/*--------------------------------*- C++ -*----------------------------------*\
| =========                 |                                                 |
| \\      /  F ield         | OpenFOAM: The Open Source CFD Toolbox           |
|  \\    /   O peration     | Version:  v2012                                 |
|   \\  /    A nd           | Website:  www.openfoam.com                      |
|    \\/     M anipulation  |                                                 |
\*---------------------------------------------------------------------------*/
FoamFile
{
    version     2.0;
    format      ascii;
    class       surfaceScalarField;
    location    "6.4";
    object      phi;
}
// * * * * * * * * * * * * * * * * * * * * * * * * * * * * * * * * * * * * * //

dimensions      [0 3 -1 0 0 0 0];
oriented        oriented;


internalField   nonuniform List<scalar> 
13830
(
9.43856e-07
-6.25876e-07
9.41671e-07
7.65397e-07
9.14276e-07
8.49371e-07
8.78095e-07
-2.96935e-07
9.18239e-07
-1.24901e-06
9.68161e-07
-1.07911e-06
9.37864e-07
-1.24999e-06
9.49492e-07
-7.3134e-07
9.83744e-07
3.24932e-07
9.57988e-07
-3.69911e-07
9.89882e-07
9.37686e-07
9.48766e-07
2.68155e-07
9.66746e-07
8.19189e-07
9.40434e-07
2.33014e-07
9.5309e-07
5.36494e-07
9.40408e-07
2.29672e-07
9.43993e-07
3.27461e-07
9.39614e-07
1.94714e-07
9.36208e-07
1.86596e-07
1.31309e-07
9.25927e-07
9.80167e-07
-6.3351e-07
9.78782e-07
7.66782e-07
9.49607e-07
8.78545e-07
9.17833e-07
-2.65162e-07
9.52507e-07
-1.28369e-06
9.97293e-07
-1.1239e-06
9.71828e-07
-1.22452e-06
9.84324e-07
-7.43837e-07
1.02e-06
2.89259e-07
9.9257e-07
-3.42483e-07
1.02443e-06
9.05825e-07
9.85307e-07
3.07279e-07
9.97356e-07
8.0714e-07
9.76308e-07
2.54062e-07
9.81366e-07
5.31436e-07
9.78551e-07
2.32487e-07
9.711e-07
3.34912e-07
9.80778e-07
1.85036e-07
9.62789e-07
2.04586e-07
1.19365e-07
9.74733e-07
1.0169e-06
-6.40953e-07
1.01793e-06
7.65746e-07
9.88697e-07
9.07781e-07
9.61698e-07
-2.38162e-07
9.87599e-07
-1.30959e-06
1.02598e-06
-1.16227e-06
1.00613e-06
-1.20468e-06
1.02073e-06
-7.58434e-07
1.05544e-06
2.54542e-07
1.03261e-06
-3.19653e-07
1.05735e-06
8.81095e-07
1.02829e-06
3.36338e-07
1.02777e-06
8.0766e-07
1.01972e-06
2.62106e-07
1.01299e-06
5.38169e-07
1.02111e-06
2.24365e-07
1.00743e-06
3.48594e-07
1.02031e-06
1.72153e-07
1.00543e-06
2.19471e-07
1.13792e-07
1.011e-06
1.05405e-06
-6.47223e-07
1.05763e-06
7.62157e-07
1.03124e-06
9.3418e-07
1.00878e-06
-2.15705e-07
1.02428e-06
-1.32509e-06
1.05544e-06
-1.19343e-06
1.04175e-06
-1.19098e-06
1.05815e-06
-7.74839e-07
1.09069e-06
2.22002e-07
1.07568e-06
-3.04644e-07
1.09267e-06
8.64108e-07
1.07502e-06
3.53986e-07
1.0652e-06
8.17481e-07
1.06554e-06
2.61768e-07
1.0552e-06
5.48512e-07
1.06491e-06
2.14656e-07
1.05447e-06
3.59029e-07
1.06321e-06
1.63418e-07
1.05489e-06
2.27789e-07
1.1315e-07
1.05553e-06
1.09182e-06
-6.51492e-07
1.09718e-06
7.56799e-07
1.07636e-06
9.55003e-07
1.05827e-06
-1.97615e-07
1.06348e-06
-1.3303e-06
1.08652e-06
-1.21648e-06
1.07888e-06
-1.18334e-06
1.09624e-06
-7.92196e-07
1.12615e-06
1.92093e-07
1.11956e-06
-2.98056e-07
1.13161e-06
8.52059e-07
1.12266e-06
3.6293e-07
1.10915e-06
8.30993e-07
1.112e-06
2.58917e-07
1.10348e-06
5.57038e-07
1.11067e-06
2.07462e-07
1.10464e-06
3.65059e-07
1.10955e-06
1.58509e-07
1.10477e-06
2.32571e-07
1.15005e-07
1.10291e-06
1.13063e-06
-6.53283e-07
1.13684e-06
7.50596e-07
1.12338e-06
9.68462e-07
1.10959e-06
-1.83824e-07
1.10598e-06
-1.32669e-06
1.11999e-06
-1.2305e-06
1.11735e-06
-1.1807e-06
1.13494e-06
-8.09782e-07
1.16239e-06
1.6464e-07
1.16245e-06
-2.98118e-07
1.17291e-06
8.416e-07
1.16949e-06
3.66352e-07
1.1558e-06
8.44687e-07
1.15815e-06
2.56559e-07
1.15236e-06
5.6283e-07
1.15702e-06
2.02808e-07
1.15363e-06
3.68448e-07
1.15629e-06
1.55845e-07
1.15297e-06
2.35894e-07
1.18096e-07
1.14988e-06
1.17089e-06
-6.52472e-07
1.17748e-06
7.44003e-07
1.17184e-06
9.74105e-07
1.16234e-06
-1.7433e-07
1.15199e-06
-1.31634e-06
1.15642e-06
-1.23493e-06
1.15673e-06
-1.18101e-06
1.17445e-06
-8.27497e-07
1.20007e-06
1.3902e-07
1.20415e-06
-3.02204e-07
1.21499e-06
8.30761e-07
1.21521e-06
3.66135e-07
1.20267e-06
8.57233e-07
1.20394e-06
2.55286e-07
1.20015e-06
5.66614e-07
1.20327e-06
1.99695e-07
1.20128e-06
3.70437e-07
1.20263e-06
1.54494e-07
1.20006e-06
2.38458e-07
1.21847e-07
1.19631e-06
1.21292e-06
-6.49209e-07
1.22008e-06
7.36846e-07
1.22146e-06
9.72716e-07
1.21616e-06
-1.69028e-07
1.20111e-06
-1.30128e-06
1.19605e-06
-1.22986e-06
1.19674e-06
-1.18171e-06
1.2149e-06
-8.4565e-07
1.23962e-06
1.14298e-07
1.24565e-06
-3.08236e-07
1.25746e-06
8.18952e-07
1.26058e-06
3.6301e-07
1.24974e-06
8.68078e-07
1.25026e-06
2.54767e-07
1.24786e-06
5.69011e-07
1.25008e-06
1.97475e-07
1.24903e-06
3.71484e-07
1.24932e-06
1.54212e-07
1.24737e-06
2.40406e-07
1.26084e-07
1.24313e-06
1.25695e-06
-6.4381e-07
1.26519e-06
7.28611e-07
1.27207e-06
9.65834e-07
1.27057e-06
-1.67532e-07
1.25262e-06
-1.28333e-06
1.23888e-06
-1.21613e-06
1.23755e-06
-1.18038e-06
1.2563e-06
-8.64395e-07
1.28109e-06
8.95082e-08
1.28814e-06
-3.15287e-07
1.30097e-06
8.06123e-07
1.3068e-06
3.57178e-07
1.29813e-06
8.76751e-07
1.29823e-06
2.54667e-07
1.29692e-06
5.70318e-07
1.29834e-06
1.96061e-07
1.29805e-06
3.71767e-07
1.29711e-06
1.55151e-07
1.29569e-06
2.41831e-07
1.30849e-07
1.29092e-06
1.30314e-06
-6.36669e-07
1.31285e-06
7.18898e-07
1.32348e-06
9.552e-07
1.3251e-06
-1.69143e-07
1.30579e-06
-1.26402e-06
1.2849e-06
-1.19524e-06
1.27973e-06
-1.17522e-06
1.2987e-06
-8.83361e-07
1.32415e-06
6.40581e-08
1.33232e-06
-3.23452e-07
1.34636e-06
7.92075e-07
1.35487e-06
3.48667e-07
1.34881e-06
8.82817e-07
1.3485e-06
2.54978e-07
1.34807e-06
5.70745e-07
1.34833e-06
1.95797e-07
1.34863e-06
3.71471e-07
1.3462e-06
1.57578e-07
1.34511e-06
2.42925e-07
1.36231e-07
1.33973e-06
1.35155e-06
-6.28201e-07
1.36272e-06
7.07728e-07
1.37558e-06
9.42339e-07
1.3794e-06
-1.72958e-07
1.36002e-06
-1.24463e-06
1.33411e-06
-1.16933e-06
1.32412e-06
-1.16523e-06
1.34237e-06
-9.01616e-07
1.3683e-06
3.81258e-08
1.37819e-06
-3.33334e-07
1.39403e-06
7.76234e-07
1.40523e-06
3.37466e-07
1.40208e-06
8.85969e-07
1.40098e-06
2.56069e-07
1.40118e-06
5.70553e-07
1.39973e-06
1.97239e-07
1.40039e-06
3.70813e-07
1.39625e-06
1.61721e-07
1.39528e-06
2.439e-07
1.42249e-07
1.38926e-06
1.40226e-06
-6.18806e-07
1.41444e-06
6.95549e-07
1.42841e-06
9.28363e-07
1.43348e-06
-1.78026e-07
1.41489e-06
-1.22605e-06
1.38657e-06
-1.14101e-06
1.37159e-06
-1.15025e-06
1.38781e-06
-9.17841e-07
1.4131e-06
1.28351e-08
1.42523e-06
-3.45463e-07
1.44361e-06
7.57862e-07
1.45745e-06
3.23621e-07
1.4574e-06
8.86017e-07
1.45492e-06
2.58555e-07
1.45548e-06
5.6999e-07
1.45181e-06
2.00912e-07
1.45266e-06
3.69966e-07
1.44675e-06
1.67623e-07
1.44577e-06
2.44883e-07
1.4878e-07
1.43924e-06
1.45527e-06
-6.08835e-07
1.46784e-06
6.82987e-07
1.48227e-06
9.13934e-07
1.48771e-06
-1.83468e-07
1.47024e-06
-1.20857e-06
1.4422e-06
-1.11297e-06
1.42287e-06
-1.13092e-06
1.43563e-06
-9.30595e-07
1.45842e-06
-9.95296e-09
1.47274e-06
-3.59788e-07
1.49407e-06
7.36535e-07
1.5103e-06
3.07387e-07
1.51351e-06
8.82805e-07
1.50903e-06
2.63033e-07
1.5099e-06
5.69129e-07
1.50375e-06
2.07058e-07
1.50477e-06
3.68949e-07
1.49733e-06
1.75056e-07
1.49636e-06
2.45854e-07
1.55555e-07
1.48959e-06
1.51061e-06
-5.98574e-07
1.52304e-06
6.70557e-07
1.53763e-06
8.99346e-07
1.54272e-06
-1.88555e-07
1.52616e-06
-1.19202e-06
1.50073e-06
-1.08754e-06
1.4783e-06
-1.10849e-06
1.48633e-06
-9.38629e-07
1.50463e-06
-2.8257e-08
1.52023e-06
-3.75387e-07
1.54412e-06
7.12648e-07
1.56214e-06
2.89369e-07
1.56879e-06
8.76151e-07
1.56205e-06
2.69769e-07
1.56346e-06
5.67719e-07
1.55504e-06
2.15483e-07
1.55643e-06
3.67558e-07
1.54798e-06
1.83509e-07
1.54719e-06
2.46643e-07
1.62205e-07
1.54054e-06
1.56827e-06
-5.88234e-07
1.58034e-06
6.5849e-07
1.59504e-06
8.84646e-07
1.59923e-06
-1.92744e-07
1.58303e-06
-1.17582e-06
1.56174e-06
-1.06626e-06
1.53767e-06
-1.08442e-06
1.54022e-06
-9.41174e-07
1.55272e-06
-4.07601e-08
1.56791e-06
-3.90576e-07
1.593e-06
6.87555e-07
1.61181e-06
2.70563e-07
1.62208e-06
8.65882e-07
1.61334e-06
2.7851e-07
1.61588e-06
5.6517e-07
1.60581e-06
2.25559e-07
1.60796e-06
3.65402e-07
1.59916e-06
1.92317e-07
1.5988e-06
2.46996e-07
1.68362e-07
1.59265e-06
1.62827e-06
-5.77958e-07
1.64002e-06
6.46739e-07
1.65489e-06
8.69771e-07
1.65785e-06
-1.95704e-07
1.64136e-06
-1.15932e-06
1.62484e-06
-1.04973e-06
1.60041e-06
-1.05999e-06
1.59735e-06
-9.38116e-07
1.60391e-06
-4.73211e-08
1.61677e-06
-4.03438e-07
1.64119e-06
6.63141e-07
1.65951e-06
2.52237e-07
1.67346e-06
8.51941e-07
1.6634e-06
2.88564e-07
1.66784e-06
5.60733e-07
1.65698e-06
2.36413e-07
1.66031e-06
3.62078e-07
1.65179e-06
2.00839e-07
1.65208e-06
2.46703e-07
1.73765e-07
1.64668e-06
1.69061e-06
-5.67818e-07
1.70226e-06
6.35085e-07
1.71741e-06
8.54621e-07
1.71901e-06
-1.97303e-07
1.70169e-06
-1.142e-06
1.68976e-06
-1.0378e-06
1.66578e-06
-1.03601e-06
1.65763e-06
-9.29968e-07
1.65923e-06
-4.89177e-08
1.66832e-06
-4.1253e-07
1.69043e-06
6.41026e-07
1.70698e-06
2.35689e-07
1.72443e-06
8.34488e-07
1.71389e-06
2.99105e-07
1.72084e-06
5.53789e-07
1.71002e-06
2.47231e-07
1.71474e-06
3.57355e-07
1.70695e-06
2.08634e-07
1.70795e-06
2.45704e-07
1.78323e-07
1.70339e-06
1.75532e-06
-5.57821e-07
1.76712e-06
6.23289e-07
1.78264e-06
8.39097e-07
1.78293e-06
-1.97591e-07
1.76442e-06
-1.12349e-06
1.75645e-06
-1.02983e-06
1.7332e-06
-1.01276e-06
1.7209e-06
-9.1767e-07
1.7191e-06
-4.71108e-08
1.72392e-06
-4.1735e-07
1.74305e-06
6.21891e-07
1.75675e-06
2.21991e-07
1.77734e-06
8.13902e-07
1.76694e-06
3.09506e-07
1.77664e-06
5.44083e-07
1.76637e-06
2.57501e-07
1.77244e-06
3.51287e-07
1.76553e-06
2.15545e-07
1.76714e-06
2.44094e-07
1.82114e-07
1.76335e-06
1.82243e-06
-5.47916e-07
1.83454e-06
6.11184e-07
1.85054e-06
8.23096e-07
1.84972e-06
-1.9677e-07
1.82981e-06
-1.10359e-06
1.82498e-06
-1.025e-06
1.80241e-06
-9.90191e-07
1.78706e-06
-9.02322e-07
1.78337e-06
-4.34226e-08
1.7843e-06
-4.18282e-07
1.80087e-06
6.05321e-07
1.81103e-06
2.11838e-07
1.83425e-06
7.90684e-07
1.82428e-06
3.19473e-07
1.83657e-06
5.31791e-07
1.82703e-06
2.67042e-07
1.83411e-06
3.44203e-07
1.82803e-06
2.21631e-07
1.83003e-06
2.42088e-07
1.85309e-07
1.82684e-06
1.89199e-06
-5.3801e-07
1.90446e-06
5.98712e-07
1.92105e-06
8.06515e-07
1.91944e-06
-1.95165e-07
1.89804e-06
-1.08218e-06
1.8955e-06
-1.02246e-06
1.8734e-06
-9.6809e-07
1.85604e-06
-8.84966e-07
1.85159e-06
-3.8968e-08
1.84945e-06
-4.16145e-07
1.86461e-06
5.9016e-07
1.87092e-06
2.05529e-07
1.89627e-06
7.65334e-07
1.88675e-06
3.28994e-07
1.90114e-06
5.17404e-07
1.89229e-06
2.7589e-07
1.89993e-06
3.36567e-07
1.8945e-06
2.27054e-07
1.89667e-06
2.39919e-07
1.88093e-07
1.89389e-06
1.96407e-06
-5.2798e-07
1.97688e-06
5.85906e-07
1.99414e-06
7.8926e-07
1.99216e-06
-1.93186e-07
1.96921e-06
-1.05924e-06
1.96815e-06
-1.0214e-06
1.94635e-06
-9.46286e-07
1.92785e-06
-8.66473e-07
1.92331e-06
-3.44264e-08
1.91883e-06
-4.11661e-07
1.93392e-06
5.75063e-07
1.9364e-06
2.03049e-07
1.96347e-06
7.38267e-07
1.95429e-06
3.38178e-07
1.97015e-06
5.01545e-07
1.96192e-06
2.84119e-07
1.96965e-06
3.28838e-07
1.96474e-06
2.31966e-07
1.96689e-06
2.37768e-07
1.90601e-07
1.96438e-06
2.03878e-06
-5.17708e-07
2.05183e-06
5.72857e-07
2.06981e-06
7.7128e-07
2.0679e-06
-1.91283e-07
2.04344e-06
-1.03477e-06
2.04308e-06
-1.02104e-06
2.02147e-06
-9.2468e-07
2.00251e-06
-8.47512e-07
1.9983e-06
-3.02103e-08
1.99178e-06
-4.05142e-07
2.00793e-06
5.58909e-07
2.00683e-06
2.04153e-07
2.03527e-06
7.09824e-07
2.02635e-06
3.47097e-07
2.04306e-06
4.84835e-07
2.03545e-06
2.9173e-07
2.04291e-06
3.21376e-07
2.03844e-06
2.36443e-07
2.04047e-06
2.35738e-07
1.92888e-07
2.03818e-06
2.11623e-06
-5.07096e-07
2.1294e-06
5.59683e-07
2.14808e-06
7.52599e-07
2.14669e-06
-1.89893e-07
2.12083e-06
-1.0089e-06
2.12045e-06
-1.02067e-06
2.09901e-06
-9.03238e-07
2.08005e-06
-8.2855e-07
2.0765e-06
-2.66576e-08
2.06782e-06
-3.96467e-07
2.08574e-06
5.40987e-07
2.08148e-06
2.08413e-07
2.11098e-06
6.8033e-07
2.10236e-06
3.55716e-07
2.11936e-06
4.67836e-07
2.11246e-06
2.98631e-07
2.11943e-06
3.14403e-07
2.11536e-06
2.40515e-07
2.11724e-06
2.33855e-07
1.94945e-07
2.11518e-06
2.19658e-06
-4.96093e-07
2.20977e-06
5.46496e-07
2.22903e-06
7.33338e-07
2.22853e-06
-1.89391e-07
2.20149e-06
-9.81865e-07
2.20047e-06
-1.01965e-06
2.17919e-06
-8.81961e-07
2.16049e-06
-8.09849e-07
2.15797e-06
-2.41383e-08
2.14678e-06
-3.85273e-07
2.16676e-06
5.21008e-07
2.15989e-06
2.15275e-07
2.1901e-06
6.50119e-07
2.18192e-06
3.63895e-07
2.19873e-06
4.51029e-07
2.19264e-06
3.04721e-07
2.19903e-06
3.08014e-07
2.19536e-06
2.44184e-07
2.19714e-06
2.32079e-07
1.96733e-07
2.19535e-06
2.27999e-06
-4.84694e-07
2.2931e-06
5.33386e-07
2.31272e-06
7.13718e-07
2.31338e-06
-1.9005e-07
2.2855e-06
-9.5398e-07
2.28333e-06
-1.01748e-06
2.26225e-06
-8.60878e-07
2.24386e-06
-7.91459e-07
2.24275e-06
-2.30325e-08
2.22872e-06
-3.7124e-07
2.25069e-06
4.99033e-07
2.24184e-06
2.24125e-07
2.2724e-06
6.19559e-07
2.26487e-06
3.71429e-07
2.28108e-06
4.34817e-07
2.2759e-06
3.099e-07
2.28161e-06
3.02304e-07
2.27835e-06
2.47442e-07
2.28015e-06
2.30284e-07
1.98214e-07
2.27867e-06
2.36663e-06
-4.72942e-07
2.37962e-06
5.20394e-07
2.3993e-06
6.94042e-07
2.40126e-06
-1.92009e-07
2.37293e-06
-9.25651e-07
2.36925e-06
-1.0138e-06
2.34843e-06
-8.40058e-07
2.33017e-06
-7.73199e-07
2.33075e-06
-2.36119e-08
2.31384e-06
-3.54335e-07
2.33752e-06
4.75355e-07
2.32729e-06
2.34354e-07
2.35781e-06
5.89035e-07
2.35115e-06
3.7809e-07
2.36641e-06
4.19557e-07
2.36225e-06
3.14063e-07
2.36714e-06
2.97409e-07
2.36414e-06
2.50452e-07
2.36632e-06
2.28102e-07
1.9938e-07
2.36515e-06
2.45664e-06
-4.60904e-07
2.46954e-06
5.07497e-07
2.48892e-06
6.74659e-07
2.49218e-06
-1.95267e-07
2.46384e-06
-8.97311e-07
2.45841e-06
-1.00837e-06
2.43798e-06
-8.19633e-07
2.41948e-06
-7.54702e-07
2.42194e-06
-2.60703e-08
2.40236e-06
-3.34754e-07
2.42733e-06
4.50392e-07
2.41631e-06
2.4537e-07
2.44635e-06
5.58991e-07
2.44085e-06
3.8359e-07
2.45482e-06
4.05594e-07
2.4518e-06
3.17082e-07
2.4552e-06
2.94009e-07
2.45254e-06
2.53109e-07
2.45578e-06
2.24861e-07
2.00229e-07
2.45493e-06
2.55016e-06
-4.48659e-07
2.56304e-06
4.94608e-07
2.58179e-06
6.55911e-07
2.58621e-06
-1.9968e-07
2.55828e-06
-8.69388e-07
2.55096e-06
-1.00104e-06
2.53115e-06
-7.99825e-07
2.51198e-06
-7.35528e-07
2.51636e-06
-3.0453e-08
2.49448e-06
-3.12873e-07
2.52025e-06
4.24622e-07
2.50899e-06
2.56629e-07
2.53814e-06
5.29836e-07
2.53399e-06
3.87741e-07
2.5465e-06
3.93091e-07
2.54468e-06
3.18901e-07
2.552e-06
2.86682e-07
2.55174e-06
2.53369e-07
2.54865e-06
2.2795e-07
2.00753e-07
2.54813e-06
2.6473e-06
-4.36276e-07
2.66032e-06
4.81582e-07
2.67815e-06
6.38083e-07
2.68346e-06
-2.04986e-07
2.65633e-06
-8.42261e-07
2.64702e-06
-9.91732e-07
2.62813e-06
-7.80929e-07
2.60788e-06
-7.15282e-07
2.61404e-06
-3.66103e-08
2.59038e-06
-2.89217e-07
2.61645e-06
3.98556e-07
2.60547e-06
2.67603e-07
2.63332e-06
5.01994e-07
2.63066e-06
3.90394e-07
2.64215e-06
3.81604e-07
2.63942e-06
3.21633e-07
2.6418e-06
2.84298e-07
2.64037e-06
2.54799e-07
2.64492e-06
2.23399e-07
2.00773e-07
2.6449e-06
2.74818e-06
-4.23802e-07
2.76152e-06
4.68242e-07
2.77824e-06
6.2136e-07
2.7841e-06
-2.10843e-07
2.75806e-06
-8.16227e-07
2.74671e-06
-9.80374e-07
2.72899e-06
-7.63215e-07
2.70742e-06
-6.93709e-07
2.71504e-06
-4.42342e-08
2.69029e-06
-2.64465e-07
2.71598e-06
3.72863e-07
2.70607e-06
2.77519e-07
2.73187e-06
4.76193e-07
2.73127e-06
3.90993e-07
2.74147e-06
3.71406e-07
2.73853e-06
3.24574e-07
2.73979e-06
2.83031e-07
2.73875e-06
2.55841e-07
2.74517e-06
2.16979e-07
2.00559e-07
2.74539e-06
2.85292e-06
-4.11263e-07
2.86675e-06
4.54411e-07
2.88231e-06
6.05796e-07
2.88832e-06
-2.16851e-07
2.8636e-06
-7.91506e-07
2.8501e-06
-9.66874e-07
2.83378e-06
-7.4689e-07
2.81078e-06
-6.70714e-07
2.8195e-06
-5.29528e-08
2.79439e-06
-2.39351e-07
2.81906e-06
3.4819e-07
2.81092e-06
2.85665e-07
2.83401e-06
4.53094e-07
2.83577e-06
3.89233e-07
2.84587e-06
3.61313e-07
2.85069e-06
3.19747e-07
2.85725e-06
2.76478e-07
2.85756e-06
2.55529e-07
2.84964e-06
2.24903e-07
2.00572e-07
2.84962e-06
2.96164e-06
-3.9866e-07
2.97612e-06
4.3993e-07
2.9906e-06
5.91322e-07
2.99636e-06
-2.22614e-07
2.97308e-06
-7.68232e-07
2.95734e-06
-9.51132e-07
2.94253e-06
-7.32078e-07
2.91817e-06
-6.46355e-07
2.92762e-06
-6.23988e-08
2.90269e-06
-2.14425e-07
2.92603e-06
3.24851e-07
2.92004e-06
2.91657e-07
2.94034e-06
4.32787e-07
2.94411e-06
3.85471e-07
2.94889e-06
3.56531e-07
2.94874e-06
3.19897e-07
2.94811e-06
2.77109e-07
2.94778e-06
2.55857e-07
2.95757e-06
2.15112e-07
2.00051e-07
2.95809e-06
3.07448e-06
-3.85982e-07
3.08972e-06
4.24693e-07
3.10329e-06
5.77754e-07
3.10843e-06
-2.27756e-07
3.08669e-06
-7.46492e-07
3.06862e-06
-9.33066e-07
3.05532e-06
-7.18774e-07
3.02977e-06
-6.20807e-07
3.03957e-06
-7.22018e-08
3.01534e-06
-1.90194e-07
3.03719e-06
3.03006e-07
3.03308e-06
2.95765e-07
3.05161e-06
4.14254e-07
3.05699e-06
3.80092e-07
3.06664e-06
3.46886e-07
3.07535e-06
3.11178e-07
3.08133e-06
2.71129e-07
3.08182e-06
2.55375e-07
3.07019e-06
2.26735e-07
1.99563e-07
3.07068e-06
3.19159e-06
-3.73214e-07
3.20762e-06
4.08667e-07
3.22057e-06
5.64806e-07
3.22473e-06
-2.3192e-07
3.20464e-06
-7.26401e-07
3.18411e-06
-9.12535e-07
3.17227e-06
-7.06937e-07
3.14572e-06
-5.94258e-07
3.15565e-06
-8.2131e-08
3.13232e-06
-1.66859e-07
3.15302e-06
2.82304e-07
3.1494e-06
2.99386e-07
3.16897e-06
3.9468e-07
3.17348e-06
3.75586e-07
3.18292e-06
3.37447e-07
3.17536e-06
3.18741e-07
3.17545e-06
2.71032e-07
3.17695e-06
2.53876e-07
3.18586e-06
2.1783e-07
1.97476e-07
3.18794e-06
3.31314e-06
-3.60343e-07
3.32994e-06
3.9187e-07
3.34256e-06
5.52187e-07
3.3455e-06
-2.34861e-07
3.32705e-06
-7.07955e-07
3.30417e-06
-8.89656e-07
3.29336e-06
-6.96127e-07
3.26647e-06
-5.67362e-07
3.27567e-06
-9.13335e-08
3.25453e-06
-1.45717e-07
3.27289e-06
2.6394e-07
3.27137e-06
3.0091e-07
3.28928e-06
3.76766e-07
3.28855e-06
3.76316e-07
3.29255e-06
3.33453e-07
3.2944e-06
3.16883e-07
3.29531e-06
2.70123e-07
3.29688e-06
2.5231e-07
3.30708e-06
2.07632e-07
1.95227e-07
3.30933e-06
3.4393e-06
-3.47365e-07
3.45678e-06
3.74389e-07
3.46941e-06
5.39557e-07
3.47089e-06
-2.36335e-07
3.45406e-06
-6.91132e-07
3.42901e-06
-8.64597e-07
3.41876e-06
-6.85883e-07
3.39222e-06
-5.40823e-07
3.39983e-06
-9.89441e-08
3.38229e-06
-1.28174e-07
3.39675e-06
2.49485e-07
3.39881e-06
2.98844e-07
3.41072e-06
3.64857e-07
3.42636e-06
3.6068e-07
3.43439e-06
3.2542e-07
3.44432e-06
3.06953e-07
3.45067e-06
2.63768e-07
3.45133e-06
2.51654e-07
3.43428e-06
2.24679e-07
1.9455e-07
3.43496e-06
3.57027e-06
-3.3429e-07
3.58829e-06
3.56375e-07
3.60131e-06
5.26529e-07
3.60094e-06
-2.35964e-07
3.58598e-06
-6.76171e-07
3.55859e-06
-8.37207e-07
3.54904e-06
-6.76332e-07
3.52242e-06
-5.14198e-07
3.52954e-06
-1.06064e-07
3.51271e-06
-1.11343e-07
3.52834e-06
2.33854e-07
3.52777e-06
2.99411e-07
3.54356e-06
3.49064e-07
3.54421e-06
3.6003e-07
3.5473e-06
3.22335e-07
3.54743e-06
3.06826e-07
3.5489e-06
2.62296e-07
3.55281e-06
2.47742e-07
3.56336e-06
2.14128e-07
1.91808e-07
3.5661e-06
3.70621e-06
-3.21115e-07
3.72464e-06
3.37941e-07
3.73831e-06
5.12861e-07
3.73604e-06
-2.33691e-07
3.72265e-06
-6.62777e-07
3.69355e-06
-8.08115e-07
3.68382e-06
-6.66596e-07
3.65839e-06
-4.88765e-07
3.66329e-06
-1.10967e-07
3.64947e-06
-9.7528e-08
3.66353e-06
2.19799e-07
3.66426e-06
2.98679e-07
3.68103e-06
3.32295e-07
3.67897e-06
3.62085e-07
3.68153e-06
3.19774e-07
3.68171e-06
3.06652e-07
3.68286e-06
2.61146e-07
3.68686e-06
2.43743e-07
3.69909e-06
2.01893e-07
1.89248e-07
3.70165e-06
3.84733e-06
-3.07857e-07
3.86603e-06
3.19243e-07
3.8806e-06
4.98292e-07
3.87644e-06
-2.29531e-07
3.86422e-06
-6.50561e-07
3.83409e-06
-7.77984e-07
3.82327e-06
-6.55781e-07
3.80063e-06
-4.66123e-07
3.80081e-06
-1.11149e-07
3.79266e-06
-8.93769e-08
3.79956e-06
2.12903e-07
3.80641e-06
2.91828e-07
3.81233e-06
3.26373e-07
3.8377e-06
3.36723e-07
3.84629e-06
3.11176e-07
3.85693e-06
2.96015e-07
3.8632e-06
2.54879e-07
3.86353e-06
2.43411e-07
3.84234e-06
2.23081e-07
1.89823e-07
3.84177e-06
3.99385e-06
-2.94552e-07
4.01259e-06
3.00499e-07
4.02844e-06
4.82443e-07
4.02207e-06
-2.23163e-07
4.01137e-06
-6.39853e-07
3.97968e-06
-7.46296e-07
3.96901e-06
-6.45115e-07
3.94576e-06
-4.42871e-07
3.9482e-06
-1.13588e-07
3.93552e-06
-7.67029e-08
3.95146e-06
1.96971e-07
3.956e-06
2.87282e-07
3.97051e-06
3.11866e-07
3.96355e-06
3.43685e-07
3.96532e-06
3.09403e-07
3.96581e-06
2.95522e-07
3.96731e-06
2.53383e-07
3.97303e-06
2.37693e-07
3.98567e-06
2.10435e-07
1.87099e-07
3.9884e-06
4.14592e-06
-2.81188e-07
4.16465e-06
2.81764e-07
4.1817e-06
4.65395e-07
4.17357e-06
-2.15034e-07
4.16354e-06
-6.2982e-07
4.1315e-06
-7.14256e-07
4.1195e-06
-6.33114e-07
4.09799e-06
-4.21364e-07
4.09932e-06
-1.1492e-07
4.08604e-06
-6.3419e-08
4.10296e-06
1.80043e-07
4.09593e-06
2.94316e-07
4.10482e-06
3.02979e-07
4.1121e-06
3.36404e-07
4.11585e-06
3.05656e-07
4.11623e-06
2.95136e-07
4.11764e-06
2.51975e-07
4.12278e-06
2.32551e-07
4.1374e-06
1.95814e-07
1.84636e-07
4.13987e-06
4.30379e-06
-2.67793e-07
4.32239e-06
2.63167e-07
4.34058e-06
4.47204e-07
4.33111e-06
-2.05566e-07
4.32091e-06
-6.19613e-07
4.28987e-06
-6.83221e-07
4.2744e-06
-6.17638e-07
4.25813e-06
-4.05098e-07
4.25271e-06
-1.09495e-07
4.24642e-06
-5.71308e-08
4.25108e-06
1.75377e-07
4.27105e-06
2.74351e-07
4.28183e-06
2.92195e-07
4.29795e-06
3.20284e-07
4.3061e-06
2.97513e-07
4.31873e-06
2.825e-07
4.32502e-06
2.45691e-07
4.32289e-06
2.34682e-07
4.2986e-06
2.20104e-07
1.8721e-07
4.29602e-06
4.46774e-06
-2.54444e-07
4.48592e-06
2.44988e-07
4.50557e-06
4.27552e-07
4.4943e-06
-1.94297e-07
4.48483e-06
-6.10147e-07
4.45314e-06
-6.51533e-07
4.43839e-06
-6.02883e-07
4.41875e-06
-3.85464e-07
4.41948e-06
-1.10222e-07
4.40405e-06
-4.16972e-08
4.42326e-06
1.5616e-07
4.41674e-06
2.80873e-07
4.42455e-06
2.84392e-07
4.42868e-06
3.1615e-07
4.43374e-06
2.92456e-07
4.4346e-06
2.81641e-07
4.43704e-06
2.43249e-07
4.44279e-06
2.28926e-07
4.45768e-06
2.05221e-07
1.84662e-07
4.46023e-06
4.63788e-06
-2.41116e-07
4.65571e-06
2.27162e-07
4.67635e-06
4.06907e-07
4.66424e-06
-1.82184e-07
4.65388e-06
-5.99786e-07
4.62407e-06
-6.21731e-07
4.6061e-06
-5.84906e-07
4.58931e-06
-3.68674e-07
4.58789e-06
-1.08801e-07
4.5715e-06
-2.53075e-08
4.58105e-06
1.46611e-07
4.58616e-06
2.75758e-07
4.59527e-06
2.75284e-07
4.59573e-06
3.15691e-07
4.60227e-06
2.85916e-07
4.60355e-06
2.80359e-07
4.60571e-06
2.41091e-07
4.61073e-06
2.23903e-07
4.62723e-06
1.88726e-07
1.82512e-07
4.62938e-06
4.81453e-06
-2.27863e-07
4.83192e-06
2.09776e-07
4.85334e-06
3.8549e-07
4.84102e-06
-1.69862e-07
4.8283e-06
-5.87074e-07
4.80367e-06
-5.97092e-07
4.77722e-06
-5.58461e-07
4.77034e-06
-3.61792e-07
4.75695e-06
-9.54158e-08
4.75779e-06
-2.61438e-08
4.75234e-06
1.52064e-07
4.7646e-06
2.63491e-07
4.77095e-06
2.68934e-07
4.80633e-06
2.80318e-07
4.82119e-06
2.7105e-07
4.83641e-06
2.65136e-07
4.8417e-06
2.35806e-07
4.8367e-06
2.289e-07
4.80896e-06
2.1647e-07
1.88022e-07
4.80345e-06
4.99802e-06
-2.1481e-07
5.01458e-06
1.93212e-07
5.03718e-06
3.62895e-07
5.02382e-06
-1.5651e-07
5.01131e-06
-5.74556e-07
4.98538e-06
-5.71166e-07
4.96263e-06
-5.35711e-07
4.94899e-06
-3.48149e-07
4.94159e-06
-8.80175e-08
4.93051e-06
-1.50687e-08
4.9362e-06
1.46382e-07
4.9438e-06
2.55888e-07
4.94928e-06
2.63449e-07
4.95313e-06
2.76468e-07
4.95842e-06
2.6576e-07
4.96305e-06
2.60513e-07
4.96278e-06
2.36073e-07
4.96881e-06
2.22865e-07
4.98528e-06
2.00005e-07
1.86153e-07
4.98715e-06
5.1884e-06
-2.01898e-07
5.20443e-06
1.77183e-07
5.22743e-06
3.39895e-07
5.21426e-06
-1.43341e-07
5.20015e-06
-5.60444e-07
5.17509e-06
-5.46111e-07
5.15406e-06
-5.14676e-07
5.13523e-06
-3.29318e-07
5.13384e-06
-8.66283e-08
5.11849e-06
2.8441e-10
5.12669e-06
1.38174e-07
5.13059e-06
2.51992e-07
5.13813e-06
2.55905e-07
5.14162e-06
2.72979e-07
5.14857e-06
2.58811e-07
5.15174e-06
2.57342e-07
5.15858e-06
2.29232e-07
5.16485e-06
2.16598e-07
5.17216e-06
1.92695e-07
1.8102e-07
5.17729e-06
5.3861e-06
-1.89216e-07
5.40147e-06
1.61812e-07
5.42468e-06
3.16681e-07
5.41248e-06
-1.31138e-07
5.39515e-06
-5.43118e-07
5.37333e-06
-5.24294e-07
5.34951e-06
-4.9085e-07
5.33291e-06
-3.12723e-07
5.32725e-06
-8.09698e-08
5.31614e-06
1.13998e-08
5.32101e-06
1.33301e-07
5.32723e-06
2.45775e-07
5.33285e-06
2.50282e-07
5.33866e-06
2.6717e-07
5.34511e-06
2.52363e-07
5.34985e-06
2.52599e-07
5.35675e-06
2.22335e-07
5.36328e-06
2.10067e-07
5.36769e-06
1.88284e-07
1.74594e-07
5.37412e-06
5.59135e-06
-1.76828e-07
5.60598e-06
1.47182e-07
5.62934e-06
2.93322e-07
5.61834e-06
-1.20139e-07
5.59834e-06
-5.23121e-07
5.57763e-06
-5.03584e-07
5.55345e-06
-4.66665e-07
5.53702e-06
-2.9629e-07
5.53059e-06
-7.45469e-08
5.52086e-06
2.11321e-08
5.5238e-06
1.30362e-07
5.53112e-06
2.38451e-07
5.53624e-06
2.45161e-07
5.5432e-06
2.60215e-07
5.54933e-06
2.46231e-07
5.55503e-06
2.46901e-07
5.56015e-06
2.17212e-07
5.56517e-06
2.05049e-07
5.57156e-06
1.81897e-07
1.68121e-07
5.57803e-06
5.80439e-06
-1.64735e-07
5.81849e-06
1.33083e-07
5.84146e-06
2.70346e-07
5.83301e-06
-1.11684e-07
5.80945e-06
-4.99562e-07
5.78966e-06
-4.83793e-07
5.76462e-06
-4.41632e-07
5.74912e-06
-2.80784e-07
5.74212e-06
-6.75499e-08
5.73325e-06
3.00035e-08
5.73478e-06
1.28831e-07
5.7429e-06
2.30327e-07
5.74812e-06
2.3994e-07
5.75499e-06
2.53349e-07
5.76116e-06
2.40059e-07
5.76761e-06
2.40453e-07
5.7726e-06
2.12223e-07
5.77962e-06
1.98024e-07
5.78379e-06
1.7773e-07
1.6237e-07
5.78954e-06
6.02557e-06
-1.53007e-07
6.03906e-06
1.1959e-07
6.06162e-06
2.47789e-07
6.05529e-06
-1.05349e-07
6.02926e-06
-4.73539e-07
6.00916e-06
-4.63688e-07
5.98395e-06
-4.16422e-07
5.96903e-06
-2.65869e-07
5.96183e-06
-6.03504e-08
5.95379e-06
3.80468e-08
5.95453e-06
1.28091e-07
5.96268e-06
2.22177e-07
5.96813e-06
2.34491e-07
5.97468e-06
2.46796e-07
5.98145e-06
2.33298e-07
5.98794e-06
2.33956e-07
5.99172e-06
2.08443e-07
5.9967e-06
1.93045e-07
6.00372e-06
1.70714e-07
1.56854e-07
6.00924e-06
6.25517e-06
-1.41679e-07
6.26806e-06
1.06699e-07
6.29011e-06
2.2574e-07
6.28509e-06
-1.00329e-07
6.25792e-06
-4.46361e-07
6.23698e-06
-4.42751e-07
6.2118e-06
-3.9124e-07
6.19704e-06
-2.51114e-07
6.19018e-06
-5.34852e-08
6.18294e-06
4.5287e-08
6.18307e-06
1.27962e-07
6.1906e-06
2.14646e-07
6.19667e-06
2.28416e-07
6.2032e-06
2.40272e-07
6.20997e-06
2.26525e-07
6.21656e-06
2.27365e-07
6.22216e-06
2.02844e-07
6.22954e-06
1.85664e-07
6.23217e-06
1.68082e-07
1.51349e-07
6.23768e-06
6.49353e-06
-1.30805e-07
6.50571e-06
9.45143e-08
6.52733e-06
2.04121e-07
6.52302e-06
-9.60173e-08
6.49575e-06
-4.19094e-07
6.47353e-06
-4.20529e-07
6.44874e-06
-3.66451e-07
6.43371e-06
-2.36085e-07
6.42742e-06
-4.71895e-08
6.42062e-06
5.20891e-08
6.42052e-06
1.28055e-07
6.42744e-06
2.07729e-07
6.43423e-06
2.21627e-07
6.44044e-06
2.34058e-07
6.44685e-06
2.20115e-07
6.45395e-06
2.20266e-07
6.45812e-06
1.98676e-07
6.4622e-06
1.81588e-07
6.46921e-06
1.61067e-07
1.45829e-07
6.47473e-06
6.74096e-06
-1.20429e-07
6.75232e-06
8.3154e-08
6.77363e-06
1.82816e-07
6.76961e-06
-9.1997e-08
6.7429e-06
-3.92388e-07
6.71981e-06
-3.97434e-07
6.69515e-06
-3.41789e-07
6.67948e-06
-2.20419e-07
6.67358e-06
-4.12886e-08
6.66741e-06
5.82601e-08
6.66755e-06
1.27912e-07
6.67357e-06
2.01709e-07
6.68051e-06
2.14688e-07
6.6867e-06
2.27862e-07
6.69305e-06
2.13767e-07
6.70065e-06
2.12671e-07
6.70607e-06
1.93252e-07
6.71269e-06
1.74971e-07
6.7154e-06
1.5836e-07
1.40689e-07
6.72054e-06
6.99783e-06
-1.10605e-07
7.00814e-06
7.28449e-08
7.02934e-06
1.61614e-07
7.02537e-06
-8.80307e-08
6.99985e-06
-3.66863e-07
6.97609e-06
-3.73676e-07
6.95128e-06
-3.16983e-07
6.9349e-06
-2.04041e-07
6.92926e-06
-3.56479e-08
6.92367e-06
6.38576e-08
6.92398e-06
1.276e-07
6.92925e-06
1.96439e-07
6.93621e-06
2.07723e-07
6.94272e-06
2.21351e-07
6.94874e-06
2.07747e-07
6.95636e-06
2.05056e-07
6.96043e-06
1.89177e-07
6.96459e-06
1.70814e-07
6.97091e-06
1.5204e-07
1.35679e-07
6.97592e-06
7.26446e-06
-1.01378e-07
7.27345e-06
6.38556e-08
7.2948e-06
1.40265e-07
7.29077e-06
-8.40016e-08
7.26767e-06
-3.43763e-07
7.24267e-06
-3.48678e-07
7.21771e-06
-2.92015e-07
7.20034e-06
-1.86679e-07
7.19462e-06
-2.9926e-08
7.18961e-06
6.88687e-08
7.19035e-06
1.26862e-07
7.19503e-06
1.91754e-07
7.20162e-06
2.01136e-07
7.20866e-06
2.1431e-07
7.21425e-06
2.02159e-07
7.22178e-06
1.97524e-07
7.22719e-06
1.83773e-07
7.23356e-06
1.64436e-07
7.23638e-06
1.49225e-07
1.30977e-07
7.24108e-06
7.54123e-06
-9.27798e-08
7.5488e-06
5.62906e-08
7.57023e-06
1.1883e-07
7.56636e-06
-8.01297e-08
7.54483e-06
-3.22227e-07
7.51892e-06
-3.22773e-07
7.49471e-06
-2.67806e-07
7.47632e-06
-1.68285e-07
7.47028e-06
-2.3891e-08
7.46576e-06
7.3393e-08
7.46678e-06
1.25839e-07
7.47132e-06
1.87215e-07
7.47734e-06
1.95116e-07
7.48471e-06
2.06935e-07
7.4898e-06
1.97078e-07
7.49721e-06
1.90114e-07
7.502e-06
1.78978e-07
7.50631e-06
1.60129e-07
7.51182e-06
1.4371e-07
1.26544e-07
7.51626e-06
7.82846e-06
-8.47819e-08
7.83501e-06
4.97426e-08
7.85563e-06
9.82084e-08
7.85299e-06
-7.7496e-08
7.82723e-06
-2.96466e-07
7.8042e-06
-2.9974e-07
7.78308e-06
-2.46684e-07
7.76305e-06
-1.48254e-07
7.75642e-06
-1.72644e-08
7.75253e-06
7.72803e-08
7.75384e-06
1.24529e-07
7.75843e-06
1.82628e-07
7.76358e-06
1.89971e-07
7.77115e-06
1.99361e-07
7.77623e-06
1.92003e-07
7.78341e-06
1.82926e-07
7.7893e-06
1.73095e-07
7.7951e-06
1.54325e-07
7.79801e-06
1.408e-07
1.2251e-07
7.80204e-06
8.12656e-06
-7.73834e-08
8.13213e-06
4.41707e-08
8.15143e-06
7.8917e-08
8.15088e-06
-7.69557e-08
8.13057e-06
-2.76155e-07
8.11859e-06
-2.87755e-07
8.08498e-06
-2.13076e-07
8.06076e-06
-1.24035e-07
8.05388e-06
-1.03844e-08
8.05042e-06
8.07371e-08
8.0516e-06
1.2335e-07
8.05649e-06
1.77736e-07
8.06097e-06
1.85492e-07
8.06851e-06
1.91827e-07
8.07366e-06
1.86851e-07
8.08035e-06
1.7623e-07
8.08558e-06
1.67869e-07
8.0898e-06
1.50103e-07
8.09501e-06
1.35596e-07
1.18803e-07
8.09871e-06
8.43606e-06
-7.06812e-08
8.43992e-06
4.03065e-08
8.45935e-06
5.94894e-08
8.45806e-06
-7.56661e-08
8.43693e-06
-2.55022e-07
8.41166e-06
-2.62488e-07
8.39068e-06
-1.92091e-07
8.37049e-06
-1.03851e-07
8.36298e-06
-2.87141e-09
8.35974e-06
8.39741e-08
8.36076e-06
1.2233e-07
8.36608e-06
1.72414e-07
8.37005e-06
1.81532e-07
8.37728e-06
1.84591e-07
8.38262e-06
1.81509e-07
8.3889e-06
1.69957e-07
8.39468e-06
1.62087e-07
8.39989e-06
1.44888e-07
8.40347e-06
1.32019e-07
1.15382e-07
8.40689e-06
8.75717e-06
-6.45646e-08
8.76019e-06
3.72799e-08
8.77778e-06
4.19053e-08
8.77549e-06
-7.33818e-08
8.75213e-06