/*--------------------------------*- C++ -*----------------------------------*\
| =========                 |                                                 |
| \\      /  F ield         | OpenFOAM: The Open Source CFD Toolbox           |
|  \\    /   O peration     | Version:  v2012                                 |
|   \\  /    A nd           | Website:  www.openfoam.com                      |
|    \\/     M anipulation  |                                                 |
\*---------------------------------------------------------------------------*/
FoamFile
{
    version     2.0;
    format      ascii;
    class       volVectorField;
    location    "6.4";
    object      U;
}
// * * * * * * * * * * * * * * * * * * * * * * * * * * * * * * * * * * * * * //

dimensions      [0 1 -1 0 0 0 0];


internalField   nonuniform List<vector> 
7000
(
(0.95029 -0.00496487 0)
(1.0589 0.00691997 0)
(0.95697 0.00848569 0)
(0.992401 -0.00371428 0)
(0.887248 -0.0158289 0)
(1.06328 -0.0152426 0)
(1.00658 -0.0210133 0)
(0.995877 -0.0134874 0)
(1.02874 0.00736494 0)
(1.06992 -0.00920995 0)
(0.975897 0.0256081 0)
(1.13094 0.00734505 0)
(0.904019 0.0281976 0)
(1.1499 0.00838676 0)
(0.866852 0.0235786 0)
(1.15711 0.0110295 0)
(0.85878 0.0181153 0)
(1.14571 0.0122867 0)
(0.864568 0.0127928 0)
(1.12549 0.0106311 0)
(0.954502 -0.00502437 0)
(1.05564 0.00689899 0)
(0.962712 0.00873817 0)
(0.988538 -0.00324012 0)
(0.903239 -0.0164245 0)
(1.04784 -0.0161531 0)
(1.00564 -0.0204451 0)
(0.992581 -0.013708 0)
(1.03011 0.0065338 0)
(1.06554 -0.00849602 0)
(0.980169 0.0249004 0)
(1.11948 0.00858781 0)
(0.917091 0.0278959 0)
(1.1239 0.00936831 0)
(0.894577 0.0233125 0)
(1.11322 0.011363 0)
(0.907855 0.0183695 0)
(1.08139 0.0118463 0)
(0.939073 0.0139619 0)
(1.03861 0.0094597 0)
(0.961933 -0.00509253 0)
(1.0482 0.00690123 0)
(0.973017 0.00908726 0)
(0.985086 -0.00287181 0)
(0.923083 -0.0168597 0)
(1.02838 -0.0167722 0)
(1.00565 -0.0200353 0)
(0.987744 -0.0140067 0)
(1.03262 0.00567343 0)
(1.05716 -0.00781183 0)
(0.992055 0.0239279 0)
(1.09769 0.00981797 0)
(0.946893 0.0275371 0)
(1.08351 0.010049 0)
(0.942217 0.0231861 0)
(1.06046 0.0112683 0)
(0.964672 0.0189338 0)
(1.02993 0.0111247 0)
(0.989458 0.0150969 0)
(1.00484 0.00897494 0)
(0.971273 -0.00514911 0)
(1.03734 0.00689336 0)
(0.984521 0.00938776 0)
(0.983901 -0.00259077 0)
(0.943089 -0.0171254 0)
(1.00931 -0.0172733 0)
(1.00536 -0.0197587 0)
(0.983371 -0.0143183 0)
(1.03414 0.00497728 0)
(1.04711 -0.00736403 0)
(1.00796 0.0233011 0)
(1.07482 0.0105384 0)
(0.981112 0.0276554 0)
(1.05028 0.0101334 0)
(0.984471 0.023583 0)
(1.02972 0.0107807 0)
(1.00095 0.0196495 0)
(1.01349 0.0104697 0)
(1.01206 0.0158478 0)
(1.00458 0.00897646 0)
(0.980924 -0.00518968 0)
(1.02495 0.00685279 0)
(0.99443 0.00962739 0)
(0.985487 -0.00235718 0)
(0.96102 -0.0172496 0)
(0.994081 -0.0176746 0)
(1.00316 -0.019589 0)
(0.981168 -0.0146345 0)
(1.03251 0.00434604 0)
(1.0382 -0.00713962 0)
(1.02117 0.0229658 0)
(1.0586 0.0108895 0)
(1.00745 0.0281321 0)
(1.03293 0.0100195 0)
(1.01032 0.0241134 0)
(1.02096 0.0103386 0)
(1.01802 0.0201821 0)
(1.01574 0.0100559 0)
(1.02103 0.0162992 0)
(1.01316 0.00913713 0)
(0.989428 -0.00521258 0)
(1.01304 0.00679481 0)
(1.00161 0.00980301 0)
(0.98942 -0.00217255 0)
(0.97607 -0.0172493 0)
(0.984424 -0.017949 0)
(0.998592 -0.0195121 0)
(0.981099 -0.0149508 0)
(1.02772 0.00374394 0)
(1.03153 -0.0070786 0)
(1.02779 0.0227072 0)
(1.04984 0.0110597 0)
(1.02239 0.0286576 0)
(1.02712 0.00992874 0)
(1.02216 0.0244608 0)
(1.02195 0.0100571 0)
(1.02431 0.0204553 0)
(1.02162 0.00980829 0)
(1.02423 0.0165828 0)
(1.02032 0.00933933 0)
(0.995863 -0.00521596 0)
(1.00308 0.00673524 0)
(1.00635 0.00990207 0)
(0.99459 -0.0020383 0)
(0.988522 -0.0171494 0)
(0.979997 -0.018082 0)
(0.992573 -0.0195039 0)
(0.98159 -0.015273 0)
(1.02154 0.00318081 0)
(1.02658 -0.00712935 0)
(1.02832 0.0224363 0)
(1.04527 0.0111116 0)
(1.02875 0.0291177 0)
(1.0261 0.00987076 0)
(1.02617 0.024643 0)
(1.02459 0.00987552 0)
(1.02602 0.02057 0)
(1.02583 0.00967049 0)
(1.02523 0.0167829 0)
(1.02439 0.0096005 0)
(0.999991 -0.00519946 0)
(0.995713 0.00667503 0)
(1.00957 0.00992343 0)
(0.999725 -0.00195322 0)
(0.998917 -0.0169769 0)
(0.979263 -0.0180724 0)
(0.986454 -0.0195247 0)
(0.981033 -0.0156043 0)
(1.01562 0.00265387 0)
(1.02248 -0.00724523 0)
(1.02548 0.0221379 0)
(1.04193 0.0110602 0)
(1.03075 0.0295166 0)
(1.02626 0.0098318 0)
(1.02724 0.0247623 0)
(1.02655 0.00974123 0)
(1.02647 0.0206303 0)
(1.02817 0.00962521 0)
(1.02565 0.0169291 0)
(1.02635 0.00991482 0)
(1.00216 -0.00516473 0)
(0.99083 0.00660817 0)
(1.01205 0.00987912 0)
(1.00388 -0.00191449 0)
(1.00746 -0.0167563 0)
(0.980647 -0.017929 0)
(0.981244 -0.0195293 0)
(0.978828 -0.0159474 0)
(1.01051 0.00213979 0)
(1.01863 -0.00739707 0)
(1.02178 0.0218096 0)
(1.03869 0.0109202 0)
(1.03145 0.0298537 0)
(1.02673 0.00981266 0)
(1.02793 0.0248476 0)
(1.02793 0.00964343 0)
(1.02699 0.0206631 0)
(1.02943 0.00965774 0)
(1.02604 0.0170306 0)
(1.02717 0.0102709 0)
(1.00301 -0.00511442 0)
(0.987913 0.00652895 0)
(1.01405 0.00978669 0)
(1.00663 -0.00191642 0)
(1.01398 -0.0165093 0)
(0.983083 -0.0176684 0)
(0.977465 -0.0194813 0)
(0.975367 -0.0163012 0)
(1.00593 0.00161428 0)
(1.01464 -0.00757667 0)
(1.01858 0.0214518 0)
(1.03554 0.010701 0)
(1.03234 0.0301115 0)
(1.02755 0.0098128 0)
(1.02905 0.024889 0)
(1.02903 0.00959589 0)
(1.02771 0.0206582 0)
(1.02996 0.00977239 0)
(1.02622 0.0171059 0)
(1.02713 0.0106737 0)
(1.00316 -0.00505161 0)
(0.986362 0.00643497 0)
(1.01541 0.00966345 0)
(1.00804 -0.00195024 0)
(1.01818 -0.0162547 0)
(0.985941 -0.0173165 0)
(0.975383 -0.0193576 0)
(0.971502 -0.016654 0)
(1.00151 0.00107031 0)
(1.01007 -0.00779403 0)
(1.01619 0.0210559 0)
(1.0326 0.0104022 0)
(1.03381 0.0302748 0)
(1.02863 0.00983649 0)
(1.03043 0.0248917 0)
(1.02975 0.00962266 0)
(1.02816 0.0206194 0)
(1.02966 0.00998626 0)
(1.02578 0.0171733 0)
(1.02615 0.0111283 0)
(1.00303 -0.00497956 0)
(0.985715 0.00632841 0)
(1.01589 0.00952339 0)
(1.00847 -0.00200521 0)
(1.02 -0.0160071 0)
(0.988787 -0.0169085 0)
(0.97513 -0.0191483 0)
(0.968119 -0.0169827 0)
(0.997079 0.000522277 0)
(1.00443 -0.00806219 0)
(1.01425 0.020601 0)
(1.02955 0.0100222 0)
(1.03544 0.0303325 0)
(1.02945 0.00990285 0)
(1.03134 0.0248705 0)
(1.02962 0.0097525 0)
(1.0277 0.0205618 0)
(1.02823 0.0103097 0)
(1.02432 0.0172414 0)
(1.02409 0.0116317 0)
(1.00279 -0.00490146 0)
(0.985701 0.00621486 0)
(1.01544 0.0093759 0)
(1.00844 -0.00207021 0)
(1.01968 -0.015774 0)
(0.991277 -0.0164853 0)
(0.976625 -0.0188573 0)
(0.965921 -0.0172594 0)
(0.992691 5.69104e-06 0)
(0.997557 -0.00838903 0)
(1.01197 0.0200666 0)
(1.02564 0.00956152 0)
(1.0362 0.0302796 0)
(1.02915 0.0100352 0)
(1.03087 0.0248375 0)
(1.02812 0.0100033 0)
(1.02579 0.020497 0)
(1.02548 0.0107397 0)
(1.02165 0.0173121 0)
(1.02096 0.0121658 0)
(1.00242 -0.0048201 0)
(0.986191 0.00610043 0)
(1.01428 0.00922611 0)
(1.0084 -0.00213528 0)
(1.0178 -0.0155558 0)
(0.99319 -0.016086 0)
(0.97947 -0.0185022 0)
(0.965286 -0.0174562 0)
(0.988469 -0.000433975 0)
(0.989918 -0.00875875 0)
(1.00845 0.0194527 0)
(1.02009 0.00902988 0)
(1.03485 0.0301119 0)
(1.02695 0.0102544 0)
(1.02829 0.0247867 0)
(1.02491 0.0103786 0)
(1.02222 0.0204236 0)
(1.02146 0.0112514 0)
(1.01785 0.0173784 0)
(1.01697 0.0127043 0)
(1.00188 -0.00473756 0)
(0.9871 0.005989 0)
(1.01275 0.00907585 0)
(1.00866 -0.00219223 0)
(1.01501 -0.0153469 0)
(0.994479 -0.0157396 0)
(0.983016 -0.0181086 0)
(0.96618 -0.0175528 0)
(0.984568 -0.00075978 0)
(0.982538 -0.00912849 0)
(1.00318 0.0187856 0)
(1.01267 0.00845679 0)
(1.03053 0.0298221 0)
(1.02254 0.0105619 0)
(1.02343 0.024697 0)
(1.02015 0.0108527 0)
(1.01726 0.0203232 0)
(1.01655 0.0118057 0)
(1.01334 0.0174268 0)
(1.01257 0.013218 0)
(1.00117 -0.00465526 0)
(0.988314 0.00588143 0)
(1.01121 0.00892486 0)
(1.00929 -0.00223544 0)
(1.01196 -0.0151388 0)
(0.995255 -0.0154619 0)
(0.986577 -0.0177016 0)
(0.96819 -0.0175423 0)
(0.981168 -0.000957123 0)
(0.976569 -0.00945869 0)
(0.996412 0.0181134 0)
(1.00401 0.00787886 0)
(1.02336 0.0294094 0)
(1.01633 0.0109322 0)
(1.01687 0.0245457 0)
(1.01444 0.0113794 0)
(1.01161 0.0201664 0)
(1.0114 0.012354 0)
(1.00868 0.0174389 0)
(1.00828 0.0136795 0)
(1.00037 -0.00457395 0)
(0.989672 0.00577622 0)
(1.00987 0.00877216 0)
(1.01021 -0.00226264 0)
(1.00908 -0.0149223 0)
(0.995694 -0.0152557 0)
(0.989659 -0.0172997 0)
(0.970713 -0.0174321 0)
(0.978455 -0.00103308 0)
(0.972717 -0.00971344 0)
(0.989171 0.0174867 0)
(0.995371 0.00733959 0)
(1.01453 0.028872 0)
(1.00939 0.0113389 0)
(1.00976 0.0242966 0)
(1.0087 0.0119231 0)
(1.00617 0.0199373 0)
(1.00669 0.0128541 0)
(1.00448 0.0173977 0)
(1.00455 0.014077 0)
(0.999599 -0.00449385 0)
(0.990989 0.00567094 0)
(1.00883 0.00861643 0)
(1.01124 -0.00227357 0)
(1.00663 -0.0146911 0)
(0.995938 -0.0151145 0)
(0.992052 -0.0169115 0)
(0.973194 -0.017238 0)
(0.976563 -0.00101844 0)
(0.970965 -0.0098731 0)
(0.982751 0.0169357 0)
(0.988077 0.00687729 0)
(1.00573 0.0282161 0)
(1.00292 0.0117508 0)
(1.00336 0.0239226 0)
(1.00376 0.0124532 0)
(1.00167 0.0196388 0)
(1.00291 0.0133025 0)
(1.0011 0.0173047 0)
(1.00165 0.0144066 0)
(0.998972 -0.00441471 0)
(0.992101 0.00556355 0)
(1.00806 0.00845632 0)
(1.01222 -0.00226975 0)
(1.00474 -0.0144426 0)
(0.996053 -0.0150258 0)
(0.993773 -0.016537 0)
(0.975288 -0.0169775 0)
(0.975514 -0.000952903 0)
(0.970738 -0.00994185 0)
(0.978092 0.0164646 0)
(0.98291 0.00651564 0)
(0.998357 0.0274572 0)
(0.997789 0.0121491 0)
(0.998454 0.0234281 0)
(1.00008 0.0129422 0)
(0.998454 0.0192718 0)
(1.00023 0.0137037 0)
(0.99869 0.0171772 0)
(0.999606 0.0146793 0)
(0.998568 -0.00433588 0)
(0.992903 0.00545291 0)
(1.0075 0.00829084 0)
(1.01306 -0.00225465 0)
(1.00342 -0.0141751 0)
(0.996052 -0.0149764 0)
(0.994936 -0.0161713 0)
(0.976887 -0.0166713 0)
(0.975221 -0.00086377 0)
(0.971311 -0.00993347 0)
(0.975429 0.0160498 0)
(0.979918 0.00627069 0)
(0.993057 0.0266111 0)
(0.994271 0.0125379 0)
(0.995251 0.0228288 0)
(0.997693 0.0133886 0)
(0.996475 0.018856 0)
(0.998551 0.014053 0)
(0.997135 0.017025 0)
(0.99829 0.0149137 0)
(0.998404 -0.00425645 0)
(0.993366 0.00533894 0)
(1.00706 0.00811883 0)
(1.01368 -0.00223245 0)
(1.00264 -0.0138875 0)
(0.995944 -0.0149549 0)
(0.995653 -0.0158086 0)
(0.978045 -0.0163391 0)
(0.975521 -0.000764005 0)
(0.972139 -0.00986093 0)
(0.974387 0.0156527 0)
(0.978621 0.00615044 0)
(0.989705 0.0256939 0)
(0.992154 0.0129108 0)
(0.993443 0.0221585 0)
(0.996328 0.0138022 0)
(0.995429 0.0184262 0)
(0.997595 0.0143696 0)
(0.996225 0.0168707 0)
(0.997495 0.0151212 0)
(0.99845 -0.00417549 0)
(0.993529 0.0052224 0)
(1.00667 0.00793933 0)
(1.01407 -0.00220844 0)
(1.00232 -0.0135792 0)
(0.99576 -0.0149488 0)
(0.996007 -0.0154499 0)
(0.978878 -0.0159911 0)
(0.976236 -0.000669288 0)
(0.972956 -0.00973064 0)
(0.974339 0.015236 0)
(0.978378 0.00615006 0)
(0.987771 0.0247306 0)
(0.991008 0.0132619 0)
(0.992536 0.0214428 0)
(0.995615 0.0141855 0)
(0.994955 0.018002 0)
(0.997084 0.0146622 0)
(0.995736 0.0167421 0)
(0.997019 0.0153187 0)
(0.998646 -0.00409217 0)
(0.993482 0.00510437 0)
(1.00628 0.00775249 0)
(1.01423 -0.00218841 0)
(1.00237 -0.0132515 0)
(0.995557 -0.0149465 0)
(0.996055 -0.0150944 0)
(0.979496 -0.0156385 0)
(0.977201 -0.000587343 0)
(0.973703 -0.00954761 0)
(0.974727 0.0147726 0)
(0.978661 0.00624568 0)
(0.986702 0.0237331 0)
(0.990425 0.0136044 0)
(0.992089 0.0206986 0)
(0.995244 0.0145466 0)
(0.994764 0.0176062 0)
(0.996799 0.0148958 0)
(0.995492 0.0165983 0)
(0.996711 0.0155067 0)
(0.998918 -0.0040058 0)
(0.993331 0.00498545 0)
(1.00585 0.00755972 0)
(1.01416 -0.00217712 0)
(1.00266 -0.012906 0)
(0.995399 -0.0149411 0)
(0.995859 -0.014738 0)
(0.979983 -0.0152904 0)
(0.978283 -0.000517606 0)
(0.97441 -0.00931477 0)
(0.975203 0.0142589 0)
(0.979141 0.00642185 0)
(0.986105 0.0226974 0)
(0.990127 0.0139402 0)
(0.99182 0.0199598 0)
(0.995013 0.0148519 0)
(0.994668 0.0172719 0)
(0.996594 0.0151332 0)
(0.99538 0.0164152 0)
(0.99648 0.015645 0)
(0.999199 -0.00391601 0)
(0.993182 0.00486642 0)
(1.00538 0.00736169 0)
(1.01388 -0.00217756 0)
(1.00308 -0.0125465 0)
(0.995338 -0.0149225 0)
(0.995488 -0.0143852 0)
(0.980399 -0.0149464 0)
(0.979369 -0.000476669 0)
(0.975115 -0.00901386 0)
(0.975622 0.0136846 0)
(0.979653 0.00668 0)
(0.985761 0.021639 0)
(0.989962 0.0142493 0)
(0.99159 0.019264 0)
(0.994818 0.0150748 0)
(0.994587 0.0169302 0)
(0.996386 0.0154289 0)
(0.995314 0.0163154 0)
(0.99627 0.0157553 0)
(0.999436 -0.0038235 0)
(0.993116 0.00474938 0)
(1.00486 0.00715996 0)
(1.01342 -0.00219205 0)
(1.00351 -0.0121808 0)
(0.995397 -0.014879 0)
(0.995015 -0.0140392 0)
(0.980789 -0.014607 0)
(0.980373 -0.000472216 0)
(0.975838 -0.00862804 0)
(0.975959 0.0130555 0)
(0.980133 0.00697048 0)
(0.985561 0.0206033 0)
(0.989855 0.0145055 0)
(0.991349 0.0186027 0)
(0.994601 0.0153193 0)
(0.994493 0.0165759 0)
(0.996166 0.0156009 0)
(0.995253 0.0162491 0)
(0.996042 0.0159022 0)
(0.999598 -0.00372881 0)
(0.993176 0.00463367 0)
(1.00434 0.0069603 0)
(1.01281 -0.00222191 0)
(1.00388 -0.0118133 0)
(0.995577 -0.0148127 0)
(0.994507 -0.0136964 0)
(0.981188 -0.0142599 0)
(0.981228 -0.000515967 0)
(0.976582 -0.00818577 0)
(0.976238 0.0124013 0)
(0.980566 0.00730551 0)
(0.985448 0.0195387 0)
(0.989759 0.014747 0)
(0.991105 0.017946 0)
(0.994348 0.0155322 0)
(0.99436 0.0163408 0)
(0.995918 0.0157255 0)
(0.995208 0.0160869 0)
(0.99581 0.0159799 0)
(0.999674 -0.00363076 0)
(0.99337 0.00451506 0)
(1.00385 0.00676831 0)
(1.01207 -0.00227109 0)
(1.00413 -0.0114386 0)
(0.995851 -0.0147319 0)
(0.994014 -0.0133544 0)
(0.981617 -0.0139131 0)
(0.981896 -0.000580178 0)
(0.977341 -0.00770173 0)
(0.976498 0.0116993 0)
(0.980952 0.00766637 0)
(0.985395 0.0185429 0)
(0.989654 0.0148715 0)
(0.990862 0.0174188 0)
(0.994078 0.0156367 0)
(0.994226 0.0161169 0)
(0.995638 0.0158387 0)
(0.995148 0.015984 0)
(0.995589 0.0160211 0)
(0.999671 -0.00353273 0)
(0.993679 0.00439928 0)
(1.00343 0.00658019 0)
(1.01127 -0.00232793 0)
(1.00426 -0.011083 0)
(0.996182 -0.0146076 0)
(0.993569 -0.0130328 0)
(0.982085 -0.0135522 0)
(0.982372 -0.000684443 0)
(0.978099 -0.00714706 0)
(0.976768 0.0110191 0)
(0.981308 0.00792347 0)
(0.985386 0.0176677 0)
(0.989536 0.01496 0)
(0.99065 0.0168986 0)
(0.993785 0.0157713 0)
(0.994097 0.0159477 0)
(0.995388 0.0158875 0)
(0.995112 0.0157988 0)
(0.995387 0.0160511 0)
(0.999603 -0.00343523 0)
(0.994068 0.00428385 0)
(1.0031 0.00640188 0)
(1.01045 -0.00238903 0)
(1.00425 -0.0107458 0)
(0.996532 -0.0144468 0)
(0.993185 -0.0127483 0)
(0.98259 -0.0131221 0)
(0.982678 -0.000880122 0)
(0.978846 -0.00653505 0)
(0.977061 0.0102688 0)
(0.981638 0.00837927 0)
(0.985436 0.0165543 0)
(0.989399 0.0151686 0)
(0.990485 0.0163112 0)
(0.993527 0.0158412 0)
(0.993995 0.0157362 0)
(0.995135 0.016127 0)
(0.995094 0.0156568 0)
(0.995254 0.0159708 0)
(0.999492 -0.00332948 0)
(0.994499 0.00414945 0)
(1.00288 0.0062506 0)
(1.00967 -0.00247775 0)
(1.00412 -0.010391 0)
(0.996867 -0.0142838 0)
(0.992863 -0.0124534 0)
(0.983118 -0.0127275 0)
(0.982853 -0.00100931 0)
(0.97956 -0.00598316 0)
(0.977409 0.00960766 0)
(0.981947 0.00858726 0)
(0.985521 0.0158822 0)
(0.989294 0.0150154 0)
(0.990363 0.0159342 0)
(0.993293 0.0158419 0)
(0.993973 0.0154679 0)
(0.994959 0.0161117 0)
(0.995058 0.0157021 0)
(0.995148 0.0160378 0)
(0.999358 -0.00323772 0)
(0.994937 0.00404056 0)
(1.00275 0.00607627 0)
(1.00897 -0.00251516 0)
(1.00391 -0.0101197 0)
(0.997159 -0.0140213 0)
(0.992598 -0.0122362 0)
(0.98365 -0.01225 0)
(0.982947 -0.00123566 0)
(0.98024 -0.00534213 0)
(0.977778 0.00893727 0)
(0.982288 0.0087668 0)
(0.985662 0.0151485 0)
(0.989189 0.0149361 0)
(0.990335 0.0156095 0)
(0.993116 0.01576 0)
(0.993968 0.0153239 0)
(0.994872 0.016009 0)
(0.995136 0.0155881 0)
(0.995108 0.0160276 0)
(0.99922 -0.00313384 0)
(0.995354 0.00389796 0)
(1.0027 0.00594704 0)
(1.00837 -0.00260455 0)
(1.00366 -0.00979758 0)
(0.997387 -0.0138104 0)
(0.992393 -0.0119736 0)
(0.984157 -0.0118183 0)
(0.983002 -0.00144097 0)
(0.980875 -0.00477678 0)
(0.978204 0.00841579 0)
(0.98262 0.00888386 0)
(0.98585 0.0144283 0)
(0.989173 0.0147948 0)
(0.990333 0.0153366 0)
(0.992995 0.0155191 0)
(0.994039 0.0152755 0)
(0.994817 0.0159213 0)
(0.995188 0.0154974 0)
(0.995115 0.0159337 0)
(0.999093 -0.00301965 0)
(0.995737 0.00373228 0)
(1.00268 0.005836 0)
(1.00789 -0.00268649 0)
(1.0034 -0.00949527 0)
(0.997546 -0.0135613 0)
(0.992241 -0.0117253 0)
(0.984623 -0.011397 0)
(0.983057 -0.00155527 0)
(0.981477 -0.00433214 0)
(0.97864 0.00796386 0)
(0.982995 0.00888563 0)
(0.986096 0.0140509 0)
(0.98919 0.014393 0)
(0.990404 0.0150788 0)
(0.992955 0.0154818 0)
(0.994141 0.0151205 0)
(0.994827 0.0158249 0)
(0.995326 0.0155213 0)
(0.995168 0.0158969 0)
(0.998982 -0.00294294 0)
(0.996081 0.00364178 0)
(1.00267 0.00564682 0)
(1.00752 -0.00262725 0)
(1.00316 -0.00936322 0)
(0.997642 -0.0131104 0)
(0.992148 -0.0116773 0)
(0.985032 -0.0107177 0)
(0.983124 -0.00190988 0)
(0.982028 -0.00358873 0)
(0.979138 0.00709915 0)
(0.983379 0.0093011 0)
(0.986368 0.013017 0)
(0.989281 0.0146491 0)
(0.990553 0.0144396 0)
(0.992971 0.015556 0)
(0.99429 0.0148251 0)
(0.994923 0.0160929 0)
(0.995447 0.0153655 0)
(0.995215 0.0156907 0)
(0.998889 -0.00282114 0)
(0.996392 0.00344584 0)
(1.00264 0.00556813 0)
(1.00725 -0.00274534 0)
(1.00295 -0.0090295 0)
(0.997691 -0.0128661 0)
(0.992099 -0.011412 0)
(0.985391 -0.0103286 0)
(0.983227 -0.00202796 0)
(0.982532 -0.00318368 0)
(0.979661 0.0068669 0)
(0.983776 0.00905068 0)
(0.986704 0.0126006 0)
(0.98942 0.0143704 0)
(0.990693 0.0142671 0)
(0.993044 0.015258 0)
(0.994475 0.0148327 0)
(0.994996 0.0158485 0)
(0.995484 0.015246 0)
(0.995287 0.0155588 0)
(0.998818 -0.00270755 0)
(0.996667 0.0032585 0)
(1.00259 0.00545843 0)
(1.00704 -0.00276891 0)
(1.00278 -0.00880048 0)
(0.997696 -0.0125227 0)
(0.992099 -0.0111775 0)
(0.985713 -0.00993438 0)
(0.983353 -0.00204383 0)
(0.983027 -0.00303341 0)
(0.980177 0.00676187 0)
(0.984187 0.00888484 0)
(0.987053 0.0123908 0)
(0.989606 0.0137259 0)
(0.990883 0.014386 0)
(0.993161 0.0150622 0)
(0.994657 0.0147714 0)
(0.995123 0.0154977 0)
(0.995637 0.0152035 0)
(0.99537 0.015414 0)
(0.998768 -0.00263505 0)
(0.996908 0.003177 0)
(1.00252 0.00522987 0)
(1.00686 -0.00261071 0)
(1.00267 -0.00878663 0)
(0.997669 -0.0119043 0)
(0.992157 -0.0112222 0)
(0.986002 -0.00919956 0)
(0.983507 -0.00244174 0)
(0.983483 -0.00228125 0)
(0.980738 0.00581317 0)
(0.984574 0.00928377 0)
(0.987395 0.0114504 0)
(0.98984 0.0139969 0)
(0.991097 0.0137833 0)
(0.993262 0.0152067 0)
(0.994824 0.0143687 0)
(0.99525 0.0156531 0)
(0.995717 0.0149743 0)
(0.995422 0.0151934 0)
(0.998728 -0.0025073 0)
(0.99713 0.00294705 0)
(1.00241 0.0051683 0)
(1.0067 -0.00271091 0)
(1.00257 -0.00847378 0)
(0.997639 -0.0116372 0)
(0.99225 -0.0109303 0)
(0.986285 -0.00888011 0)
(0.983711 -0.00234931 0)
(0.983887 -0.00218852 0)
(0.981303 0.00575341 0)
(0.98497 0.00897963 0)
(0.987769 0.0112147 0)
(0.99008 0.0135486 0)
(0.991292 0.0136423 0)
(0.993378 0.0148201 0)
(0.994966 0.014319 0)
(0.995365 0.0152389 0)
(0.995715 0.0150104 0)
(0.995476 0.0151701 0)
(0.998707 -0.002386 0)
(0.997326 0.00274687 0)
(1.00228 0.00503283 0)
(1.00652 -0.00266665 0)
(1.0025 -0.00829147 0)
(0.997606 -0.0112543 0)
(0.992369 -0.0106174 0)
(0.986588 -0.00863974 0)
(0.983913 -0.00220262 0)
(0.984318 -0.00220488 0)
(0.981866 0.00583032 0)
(0.985334 0.00856794 0)
(0.988094 0.0111741 0)
(0.990316 0.0129018 0)
(0.991491 0.0138424 0)
(0.993512 0.0143689 0)
(0.995111 0.0142494 0)
(0.995536 0.01481 0)
(0.995872 0.0149563 0)
(0.995502 0.0150475 0)
(0.998705 -0.00232199 0)
(0.997487 0.00268772 0)
(1.00217 0.00475054 0)
(1.00632 -0.0023904 0)
(1.00244 -0.00837391 0)
(0.997572 -0.0105064 0)
(0.992528 -0.0107487 0)
(0.986881 -0.0078721 0)
(0.984174 -0.00259719 0)
(0.984723 -0.0014486 0)
(0.982437 0.00480774 0)
(0.985701 0.00896622 0)
(0.988457 0.0103037 0)
(0.990609 0.013251 0)
(0.991679 0.0131385 0)
(0.993594 0.0146058 0)
(0.995245 0.0138383 0)
(0.995682 0.0150897 0)
(0.995939 0.0146795 0)
(0.995533 0.014806 0)
(0.998703 -0.00218862 0)
(0.997647 0.00243708 0)
(1.00203 0.00467468 0)
(1.00611 -0.00246658 0)
(1.00236 -0.00806873 0)
(0.997549 -0.0102506 0)
(0.992697 -0.0103237 0)
(0.987216 -0.00769713 0)
(0.984464 -0.00235844 0)
(0.985105 -0.00142779 0)
(0.983055 0.0046818 0)
(0.986073 0.00863976 0)
(0.988795 0.0101016 0)
(0.990841 0.0127539 0)
(0.991871 0.0130379 0)
(0.993717 0.0143244 0)
(0.995343 0.013877 0)
(0.995806 0.0145713 0)
(0.995891 0.0146779 0)
(0.995524 0.0148991 0)
(0.998716 -0.0020553 0)
(0.997789 0.00223021 0)
(1.0019 0.00449985 0)
(1.00588 -0.00237666 0)
(1.00226 -0.00787884 0)
(0.99755 -0.00989487 0)
(0.992867 -0.00991282 0)
(0.987576 -0.00757715 0)
(0.984777 -0.00211978 0)
(0.985519 -0.00141859 0)
(0.983641 0.00472116 0)
(0.986458 0.00815823 0)
(0.989145 0.0100569 0)
(0.991152 0.0120384 0)
(0.992084 0.0132887 0)
(0.993839 0.0138095 0)
(0.995417 0.0138273 0)
(0.995979 0.0141601 0)
(0.996138 0.0145629 0)
(0.995572 0.0148386 0)
(0.998744 -0.00202252 0)
(0.997907 0.00222387 0)
(1.0018 0.00414172 0)
(1.00561 -0.00198156 0)
(1.00216 -0.00805172 0)
(0.997532 -0.00906234 0)
(0.993068 -0.0100927 0)
(0.98794 -0.00675435 0)
(0.985134 -0.00258218 0)
(0.985932 -0.000525822 0)
(0.984269 0.00381863 0)
(0.986855 0.00865942 0)
(0.989498 0.00921257 0)
(0.991489 0.0122356 0)
(0.992307 0.0124131 0)
(0.993944 0.0140193 0)
(0.995564 0.0133753 0)
(0.99614 0.0146972 0)
(0.996221 0.0142721 0)
(0.995602 0.0145674 0)
(0.998758 -0.00184499 0)
(0.998043 0.00191101 0)
(1.00168 0.00408899 0)
(1.00535 -0.00210935 0)
(1.00203 -0.00763164 0)
(0.997541 -0.00897077 0)
(0.993259 -0.0093864 0)
(0.988327 -0.00687287 0)
(0.985533 -0.0021248 0)
(0.98635 -0.000606093 0)
(0.984914 0.00391815 0)
(0.987268 0.00818512 0)
(0.989838 0.00925969 0)
(0.991778 0.0115729 0)
(0.992558 0.0119943 0)
(0.994098 0.0135203 0)
(0.99568 0.0132563 0)
(0.99626 0.0142516 0)
(0.996178 0.0143153 0)
(0.995611 0.0148033 0)
(0.998779 -0.00175946 0)
(0.998182 0.00179797 0)
(1.00156 0.00382414 0)
(1.00509 -0.00190903 0)
(1.00188 -0.00746908 0)
(0.997581 -0.00866059 0)
(0.993421 -0.00887907 0)
(0.988753 -0.00677157 0)
(0.985929 -0.00177589 0)
(0.986791 -0.0007138 0)
(0.985552 0.00420339 0)
(0.987723 0.0076501 0)
(0.990178 0.0094104 0)
(0.992063 0.010653 0)
(0.992833 0.0118999 0)
(0.994308 0.0127048 0)
(0.995874 0.0130091 0)
(0.996533 0.0135921 0)
(0.996516 0.0144051 0)
(0.995667 0.0150258 0)
(0.998822 -0.00169717 0)
(0.998287 0.00173505 0)
(1.00148 0.00349913 0)
(1.00479 -0.00158271 0)
(1.00174 -0.00750222 0)
(0.997599 -0.00803027 0)
(0.993616 -0.00880088 0)
(0.989162 -0.00619742 0)
(0.986355 -0.00196909 0)
(0.987253 -1.57913e-05 0)
(0.986201 0.00369211 0)
(0.988173 0.00779913 0)
(0.990486 0.00886192 0)
(0.992373 0.0106134 0)
(0.993118 0.0113377 0)
(0.994486 0.0125311 0)
(0.996075 0.0126821 0)
(0.996844 0.0137231 0)
(0.996818 0.014142 0)
(0.99573 0.0147749 0)
(0.998855 -0.00151238 0)
(0.998409 0.00144382 0)
(1.00139 0.00341011 0)
(1.00451 -0.0016563 0)
(1.00159 -0.00709634 0)
(0.997638 -0.00788968 0)
(0.993788 -0.00825505 0)
(0.989594 -0.00604552 0)
(0.986818 -0.0017023 0)
(0.987685 0.000103145 0)
(0.986843 0.00359918 0)
(0.988649 0.00760692 0)
(0.990842 0.00861012 0)
(0.992665 0.0103735 0)
(0.993396 0.0109931 0)
(0.994741 0.0125468 0)
(0.996351 0.0126007 0)
(0.997103 0.0135612 0)
(0.997024 0.0137085 0)
(0.995797 0.0142716 0)
(0.998888 -0.00149583 0)
(0.998532 0.00143597 0)
(1.00131 0.0030582 0)
(1.00422 -0.00137367 0)
(1.00143 -0.0069385 0)
(0.997689 -0.00751839 0)
(0.993979 -0.00792125 0)
(0.990028 -0.00563662 0)
(0.98726 -0.00168232 0)
(0.988139 0.000383092 0)
(0.987504 0.0035775 0)
(0.989125 0.00734799 0)
(0.991168 0.00838239 0)
(0.99298 0.0100886 0)
(0.993781 0.0109292 0)
(0.995005 0.01245 0)
(0.996519 0.0122404 0)
(0.997317 0.013073 0)
(0.997226 0.0131982 0)
(0.995861 0.0136437 0)
(0.998919 -0.00134209 0)
(0.998654 0.00124521 0)
(1.00123 0.00287083 0)
(1.00394 -0.00132822 0)
(1.00127 -0.0066194 0)
(0.997749 -0.00722419 0)
(0.994165 -0.00750934 0)
(0.990461 -0.00541862 0)
(0.98774 -0.00147927 0)
(0.988594 0.000678294 0)
(0.988112 0.00345175 0)
(0.989604 0.00698803 0)
(0.991543 0.00829288 0)
(0.993338 0.00996869 0)
(0.994126 0.0106688 0)
(0.995193 0.0119693 0)
(0.996698 0.0118827 0)
(0.997545 0.0127174 0)
(0.99739 0.0127001 0)
(0.99597 0.0131144 0)
(0.99895 -0.00127426 0)
(0.998776 0.00113658 0)
(1.00116 0.00262376 0)
(1.00366 -0.0012255 0)
(1.00112 -0.00629069 0)
(0.997812 -0.00694931 0)
(0.994358 -0.0071089 0)
(0.990906 -0.00507138 0)
(0.988218 -0.00133569 0)
(0.989028 0.000779468 0)
(0.988713 0.00337683 0)
(0.990126 0.00686791 0)
(0.99194 0.00817817 0)
(0.993639 0.00961154 0)
(0.994446 0.0102536 0)
(0.995457 0.011705 0)
(0.99692 0.011785 0)
(0.997721 0.0122701 0)
(0.997539 0.0122482 0)
(0.996118 0.0127135 0)
(0.998982 -0.00117444 0)
(0.998894 0.00102498 0)
(1.0011 0.00240118 0)
(1.00339 -0.00118359 0)
(1.00096 -0.00594924 0)
(0.997881 -0.00663407 0)
(0.994562 -0.00665715 0)
(0.991338 -0.00483912 0)
(0.988699 -0.00121751 0)
(0.989481 0.00100829 0)
(0.989327 0.00348825 0)
(0.990636 0.00661293 0)
(0.992292 0.00785759 0)
(0.993957 0.00933983 0)
(0.994849 0.0100613 0)
(0.99576 0.011472 0)
(0.99704 0.011437 0)
(0.997839 0.0117673 0)
(0.997736 0.0119446 0)
(0.996297 0.0123336 0)
(0.999013 -0.00108258 0)
(0.99901 0.000898706 0)
(1.00104 0.00217935 0)
(1.00314 -0.00113468 0)
(1.00082 -0.00558065 0)
(0.997954 -0.0063142 0)
(0.994755 -0.00626999 0)
(0.991774 -0.0045618 0)
(0.989212 -0.00103807 0)
(0.989941 0.00118881 0)
(0.989883 0.00344224 0)
(0.991117 0.00630424 0)
(0.992716 0.00767967 0)
(0.994314 0.00919634 0)
(0.995202 0.00976407 0)
(0.995992 0.0110062 0)
(0.997181 0.0110969 0)
(0.998056 0.0115144 0)
(0.997943 0.0116966 0)
(0.996445 0.0118869 0)
(0.999045 -0.00100458 0)
(0.999121 0.000804234 0)
(1.001 0.00196117 0)
(1.00289 -0.00108208 0)
(1.00067 -0.00525412 0)
(0.998023 -0.00597498 0)
(0.994968 -0.00585168 0)
(0.99221 -0.00425979 0)
(0.989711 -0.000943681 0)
(0.990386 0.00130536 0)
(0.990452 0.00341782 0)
(0.991643 0.00619212 0)
(0.993128 0.0075006 0)
(0.994622 0.00894052 0)
(0.99554 0.00940944 0)
(0.99631 0.0106311 0)
(0.997387 0.0109412 0)
(0.998217 0.0112441 0)
(0.998057 0.0112791 0)
(0.996573 0.0113886 0)
(0.999077 -0.000918188 0)
(0.999231 0.000694935 0)
(1.00095 0.00175847 0)
(1.00266 -0.00105883 0)
(1.00054 -0.00491523 0)
(0.998106 -0.00561939 0)
(0.995168 -0.00542266 0)
(0.992633 -0.00397361 0)
(0.990236 -0.000812655 0)
(0.990857 0.00144323 0)
(0.991004 0.00345557 0)
(0.992124 0.00602551 0)
(0.993548 0.00719625 0)
(0.994958 0.00864391 0)
(0.995883 0.00914782 0)
(0.996631 0.0103147 0)
(0.997569 0.0107086 0)
(0.998336 0.0108399 0)
(0.998169 0.0109197 0)
(0.996744 0.0110206 0)
(0.999109 -0.000845734 0)
(0.999336 0.000610048 0)
(1.00091 0.00152571 0)
(1.00244 -0.000988998 0)
(1.00042 -0.00459036 0)
(0.998183 -0.00528668 0)
(0.995388 -0.00503869 0)
(0.993058 -0.00363942 0)
(0.990747 -0.000699533 0)
(0.991315 0.00157277 0)
(0.991552 0.00343367 0)
(0.992615 0.00586826 0)
(0.993958 0.00694421 0)
(0.9953 0.00840805 0)
(0.996237 0.00894605 0)
(0.996986 0.00994974 0)
(0.99775 0.0103886 0)
(0.998457 0.0104918 0)
(0.998307 0.0106663 0)
(0.996902 0.0106506 0)
(0.999141 -0.000764782 0)
(0.999437 0.000526032 0)
(1.00088 0.00132843 0)
(1.00224 -0.000960319 0)
(1.0003 -0.00429873 0)
(0.998272 -0.00490337 0)
(0.9956 -0.00461296 0)
(0.993468 -0.00332296 0)
(0.991277 -0.00056639 0)
(0.991793 0.0016861 0)
(0.992086 0.00341209 0)
(0.99308 0.00574143 0)
(0.994391 0.00675606 0)
(0.995678 0.00816577 0)
(0.996562 0.00872562 0)
(0.997293 0.0095332 0)
(0.99795 0.0100714 0)
(0.99862 0.0102034 0)
(0.998409 0.0103802 0)
(0.997025 0.0102682 0)
(0.999174 -0.000718477 0)
(0.999531 0.000497978 0)
(1.00085 0.0010698 0)
(1.00206 -0.000850041 0)
(1.0002 -0.00407383 0)
(0.998359 -0.00450911 0)
(0.995818 -0.00422959 0)
(0.993876 -0.00297157 0)
(0.991791 -0.000453669 0)
(0.992252 0.00175581 0)
(0.992625 0.00333095 0)
(0.993572 0.00561328 0)
(0.994805 0.00656141 0)
(0.996042 0.0078285 0)
(0.996883 0.00845349 0)
(0.997649 0.00915455 0)
(0.998199 0.00980326 0)
(0.998766 0.00989369 0)
(0.998503 0.010084 0)
(0.997153 0.00994204 0)
(0.999205 -0.000640648 0)
(0.999618 0.00041152 0)
(1.00083 0.000908599 0)
(1.00189 -0.00091631 0)
(1.00009 -0.00370212 0)
(0.998465 -0.00428919 0)
(0.996043 -0.00377975 0)
(0.994278 -0.00255079 0)
(0.992316 -0.00029522 0)
(0.992725 0.0018529 0)
(0.993151 0.00332238 0)
(0.994037 0.00546921 0)
(0.995203 0.00639381 0)
(0.996419 0.00752878 0)
(0.997206 0.00825462 0)
(0.997978 0.00884367 0)
(0.998434 0.00950156 0)
(0.998924 0.00957772 0)
(0.998598 0.00979866 0)
(0.997258 0.00962776 0)
(0.999237 -0.000585201 0)
(0.999707 0.000368437 0)
(1.00081 0.000709797 0)
(1.00174 -0.00090531 0)
(1.00001 -0.00337487 0)
(0.998569 -0.00406622 0)
(0.996296 -0.00336627 0)
(0.994657 -0.00208813 0)
(0.992802 -0.000124725 0)
(0.993176 0.00197965 0)
(0.993669 0.003301 0)
(0.994525 0.00533745 0)
(0.995602 0.00628519 0)
(0.996808 0.00725978 0)
(0.997547 0.00804579 0)
(0.998328 0.00852934 0)
(0.998705 0.00919335 0)
(0.999097 0.00927779 0)
(0.998703 0.00950899 0)
(0.997368 0.00934736 0)
(0.999269 -0.000546527 0)
(0.999781 0.000366486 0)
(1.00079 0.000487839 0)
(1.0016 -0.00081365 0)
(0.999919 -0.00318735 0)
(0.998685 -0.0037027 0)
(0.996548 -0.00299646 0)
(0.995026 -0.00175395 0)
(0.993295 2.95126e-05 0)
(0.99364 0.00203852 0)
(0.994177 0.00325744 0)
(0.995013 0.00513992 0)
(0.996 0.0061511 0)
(0.997201 0.00698591 0)
(0.997888 0.00779757 0)
(0.998657 0.00821564 0)
(0.998976 0.00886486 0)
(0.999286 0.0089776 0)
(0.998822 0.00922281 0)
(0.99747 0.00908725 0)
(0.999299 -0.000487849 0)
(0.99985 0.000319275 0)
(1.00078 0.000361469 0)
(1.00149 -0.000841007 0)
(0.99985 -0.00288084 0)
(0.998807 -0.00334741 0)
(0.996808 -0.0027114 0)
(0.995395 -0.00141094 0)
(0.993766 0.000200422 0)
(0.994082 0.0020914 0)
(0.99467 0.00322515 0)
(0.995516 0.00495426 0)
(0.996401 0.00602713 0)
(0.997582 0.00672957 0)
(0.998235 0.00753972 0)
(0.998996 0.00793452 0)
(0.999272 0.00855174 0)
(0.999491 0.00869114 0)
(0.998957 0.00893613 0)
(0.997573 0.00883254 0)
(0.99933 -0.000449393 0)
(0.999914 0.000306368 0)
(1.00077 0.000220265 0)