/*--------------------------------*- C++ -*----------------------------------*\
| =========                 |                                                 |
| \\      /  F ield         | OpenFOAM: The Open Source CFD Toolbox           |
|  \\    /   O peration     | Version:  v2012                                 |
|   \\  /    A nd           | Website:  www.openfoam.com                      |
|    \\/     M anipulation  |                                                 |
\*---------------------------------------------------------------------------*/
FoamFile
{
    version     2.0;
    format      ascii;
    class       surfaceScalarField;
    location    "1.5";
    object      phi;
}
// * * * * * * * * * * * * * * * * * * * * * * * * * * * * * * * * * * * * * //

dimensions      [0 3 -1 0 0 0 0];
oriented        oriented;


internalField   nonuniform List<scalar> 
13830
(
9.93037e-07
3.4777e-07
8.26455e-07
-1.29796e-07
9.57591e-07
-6.45031e-07
9.39666e-07
1.49497e-06
8.50949e-07
-6.98678e-07
9.83902e-07
-8.01038e-07
9.74862e-07
-3.64196e-07
9.2887e-07
2.77692e-07
9.50843e-07
9.04571e-07
9.2985e-07
1.04678e-07
9.51245e-07
4.70713e-07
9.33562e-07
1.25924e-07
9.43793e-07
4.4477e-07
9.20055e-07
2.07906e-07
9.20426e-07
3.80145e-07
9.07541e-07
2.23226e-07
9.0661e-07
2.7072e-07
9.02406e-07
1.71846e-07
8.99699e-07
1.67515e-07
1.11099e-07
8.90954e-07
1.02958e-06
2.90722e-07
8.61503e-07
3.82817e-08
9.97218e-07
-7.80745e-07
1.00212e-06
1.49007e-06
9.10194e-07
-6.06754e-07
1.02492e-06
-9.15764e-07
1.01538e-06
-3.54652e-07
9.67883e-07
3.25184e-07
9.86868e-07
8.85586e-07
9.66012e-07
1.25534e-07
9.85824e-07
4.50902e-07
9.69748e-07
1.42e-07
9.76066e-07
4.38452e-07
9.56361e-07
2.27611e-07
9.49947e-07
3.8656e-07
9.46025e-07
2.27148e-07
9.34655e-07
2.8209e-07
9.42849e-07
1.63652e-07
9.26254e-07
1.8411e-07
9.846e-08
9.38892e-07
1.06492e-06
2.35258e-07
9.06159e-07
1.97039e-07
1.03637e-06
-9.10956e-07
1.07049e-06
1.45596e-06
9.73833e-07
-5.10101e-07
1.06491e-06
-1.00684e-06
1.05946e-06
-3.49204e-07
1.01439e-06
3.7026e-07
1.02528e-06
8.74693e-07
1.01041e-06
1.40407e-07
1.02127e-06
4.40041e-07
1.01385e-06
1.49414e-07
1.00892e-06
4.43389e-07
1.00039e-06
2.36143e-07
9.82781e-07
4.04164e-07
9.87884e-07
2.22045e-07
9.70849e-07
2.99125e-07
9.81498e-07
1.53003e-07
9.6796e-07
1.97647e-07
9.21027e-08
9.74318e-07
1.09976e-06
1.83277e-07
9.58893e-07
3.37904e-07
1.07678e-06
-1.02885e-06
1.13559e-06
1.39715e-06
1.03462e-06
-4.09128e-07
1.10114e-06
-1.07337e-06
1.10308e-06
-3.51144e-07
1.0668e-06
4.06548e-07
1.06855e-06
8.72935e-07
1.05967e-06
1.49286e-07
1.06142e-06
4.38297e-07
1.06149e-06
1.49343e-07
1.0493e-06
4.55579e-07
1.04625e-06
2.39197e-07
1.02634e-06
4.24068e-07
1.03118e-06
2.17207e-07
1.01775e-06
3.12557e-07
1.02421e-06
1.46544e-07
1.01687e-06
2.0499e-07
9.0601e-08
1.01837e-06
1.13407e-06
1.36761e-07
1.01796e-06
4.54012e-07
1.11729e-06
-1.12818e-06
1.19119e-06
1.32326e-06
1.08973e-06
-3.07667e-07
1.1329e-06
-1.11654e-06
1.14417e-06
-3.62416e-07
1.12133e-06
4.29393e-07
1.11645e-06
8.77813e-07
1.11003e-06
1.55705e-07
1.10588e-06
4.42448e-07
1.10922e-06
1.46003e-07
1.09631e-06
4.68484e-07
1.09368e-06
2.41828e-07
1.07708e-06
4.40665e-07
1.07872e-06
2.1557e-07
1.06936e-06
3.21918e-07
1.07226e-06
1.43643e-07
1.06779e-06
2.09459e-07
9.1685e-08
1.06671e-06
1.16821e-06
9.73909e-08
1.08027e-06
5.41954e-07
1.15684e-06
-1.20475e-06
1.23421e-06
1.24589e-06
1.13934e-06
-2.12793e-07
1.16166e-06
-1.13886e-06
1.18198e-06
-3.82736e-07
1.17416e-06
4.37209e-07
1.16676e-06
8.85216e-07
1.15898e-06
1.63485e-07
1.15177e-06
4.49662e-07
1.15501e-06
1.42761e-07
1.14483e-06
4.78664e-07
1.14147e-06
2.45185e-07
1.12869e-06
4.53445e-07
1.12827e-06
2.15988e-07
1.12081e-06
3.29386e-07
1.12175e-06
1.42695e-07
1.11801e-06
2.13208e-07
9.41662e-08
1.11552e-06
1.203e-06
6.60852e-08
1.14261e-06
6.0235e-07
1.19516e-06
-1.2573e-06
1.266e-06
1.17505e-06
1.18549e-06
-1.32281e-07
1.19035e-06
-1.14372e-06
1.21668e-06
-4.09065e-07
1.22285e-06
4.31035e-07
1.21651e-06
8.91562e-07
1.20573e-06
1.74261e-07
1.19645e-06
4.58945e-07
1.19814e-06
1.4107e-07
1.19069e-06
4.8611e-07
1.18744e-06
2.48434e-07
1.17732e-06
4.6357e-07
1.17656e-06
2.16749e-07
1.16995e-06
3.35991e-07
1.17004e-06
1.42604e-07
1.16666e-06
2.16589e-07
9.72525e-08
1.16358e-06
1.23954e-06
4.27305e-08
1.2029e-06
6.38985e-07
1.23305e-06
-1.28745e-06
1.29124e-06
1.11685e-06
1.23043e-06
-7.14703e-08
1.22205e-06
-1.13534e-06
1.24925e-06
-4.36262e-07
1.26641e-06
4.13874e-07
1.2634e-06
8.94573e-07
1.25032e-06
1.87343e-07
1.23918e-06
4.70084e-07
1.23916e-06
1.41095e-07
1.23314e-06
4.92126e-07
1.23077e-06
2.50809e-07
1.22249e-06
4.7185e-07
1.22246e-06
2.16773e-07
1.21696e-06
3.41495e-07
1.21691e-06
1.42652e-07
1.21442e-06
2.19074e-07
1.00332e-07
1.21135e-06
1.27878e-06
2.63057e-08
1.2606e-06
6.57158e-07
1.27206e-06
-1.29891e-06
1.31565e-06
1.07327e-06
1.27567e-06
-3.14996e-08
1.25885e-06
-1.11852e-06
1.28158e-06
-4.58985e-07
1.30531e-06
3.90142e-07
1.3067e-06
8.93184e-07
1.29315e-06
2.00889e-07
1.28069e-06
4.82548e-07
1.27946e-06
1.42321e-07
1.27385e-06
4.97732e-07
1.27255e-06
2.52109e-07
1.26589e-06
4.78511e-07
1.26705e-06
2.15619e-07
1.26333e-06
3.45214e-07
1.26352e-06
1.42455e-07
1.26254e-06
2.20055e-07
1.03045e-07
1.25983e-06
1.32126e-06
1.53218e-08
1.31629e-06
6.62133e-07
1.31374e-06
-1.29635e-06
1.34382e-06
1.04319e-06
1.32203e-06
-9.71118e-09
1.30136e-06
-1.09785e-06
1.31603e-06
-4.73658e-07
1.34146e-06
3.6472e-07
1.34722e-06
8.87424e-07
1.335e-06
2.13102e-07
1.32211e-06
4.9544e-07
1.32054e-06
1.43896e-07
1.31514e-06
5.0313e-07
1.31485e-06
2.52399e-07
1.30991e-06
4.83453e-07
1.3122e-06
2.13326e-07
1.31079e-06
3.46626e-07
1.31125e-06
1.41994e-07
1.31201e-06
2.1929e-07
1.05336e-07
1.30972e-06
1.36702e-06
8.32569e-09
1.37096e-06
6.58191e-07
1.35899e-06
-1.28439e-06
1.37824e-06
1.02394e-06
1.37001e-06
-1.47563e-09
1.34901e-06
-1.07686e-06
1.35467e-06
-4.79323e-07
1.37773e-06
3.41666e-07
1.38687e-06
8.78284e-07
1.37707e-06
2.22902e-07
1.36452e-06
5.07988e-07
1.36346e-06
1.44954e-07
1.35878e-06
5.07812e-07
1.35945e-06
2.51726e-07
1.35644e-06
4.86467e-07
1.35947e-06
2.1029e-07
1.36048e-06
3.45615e-07
1.36093e-06
1.41546e-07
1.36324e-06
2.16981e-07
1.07379e-07
1.3612e-06
1.41574e-06
4.23642e-09
1.42561e-06
6.48321e-07
1.40799e-06
-1.26677e-06
1.41935e-06
1.01259e-06
1.41998e-06
-2.10537e-09
1.40071e-06
-1.05759e-06
1.39854e-06
-4.77157e-07
1.41689e-06
3.23316e-07
1.42788e-06
8.67302e-07
1.42074e-06
2.30041e-07
1.40885e-06
5.19871e-07
1.40885e-06
1.44956e-07
1.4057e-06
5.10963e-07
1.40733e-06
2.50101e-07
1.40643e-06
4.87364e-07
1.40958e-06
2.07136e-07
1.41277e-06
3.42428e-07
1.41277e-06
1.41544e-07
1.41616e-06
2.13596e-07
1.0943e-07
1.41411e-06
1.46706e-06
2.42519e-09
1.48101e-06
6.34367e-07
1.46035e-06
-1.24611e-06
1.46629e-06
1.00665e-06
1.47217e-06
-7.97982e-09
1.45543e-06
-1.04085e-06
1.44757e-06
-4.69301e-07
1.46068e-06
3.10211e-07
1.47205e-06
8.55932e-07
1.46726e-06
2.34826e-07
1.45598e-06
5.31155e-07
1.45705e-06
1.4388e-07
1.45615e-06
5.11863e-07
1.45864e-06
2.47619e-07
1.45993e-06
4.86068e-07
1.46254e-06
2.04529e-07
1.46745e-06
3.37518e-07
1.4666e-06
1.42395e-07
1.47052e-06
2.09672e-07
1.11707e-07
1.46825e-06
1.52071e-06
2.59301e-09
1.53768e-06
6.17387e-07
1.51548e-06
-1.22391e-06
1.5179e-06
1.00423e-06
1.52669e-06
-1.67675e-08
1.51247e-06
-1.02664e-06
1.50097e-06
-4.57796e-07
1.50947e-06
3.01706e-07
1.52035e-06
8.45059e-07
1.51746e-06
2.37714e-07
1.50661e-06
5.42001e-07
1.50832e-06
1.42176e-07
1.51004e-06
5.10143e-07
1.51311e-06
2.44548e-07
1.51654e-06
4.82638e-07
1.51807e-06
2.02999e-07
1.52416e-06
3.31425e-07
1.52221e-06
1.44344e-07
1.5262e-06
2.05679e-07
1.14323e-07
1.52359e-06
1.57664e-06
4.56138e-09
1.59598e-06
5.98054e-07
1.57286e-06
-1.20079e-06
1.57324e-06
1.00385e-06
1.58356e-06
-2.70869e-08
1.57145e-06
-1.01453e-06
1.55773e-06
-4.44069e-07
1.56274e-06
2.96695e-07
1.57292e-06
8.34881e-07
1.57161e-06
2.39017e-07
1.56123e-06
5.52387e-07
1.56285e-06
1.40554e-07
1.56716e-06
5.05834e-07
1.57041e-06
2.41294e-07
1.57584e-06
4.77211e-07
1.57594e-06
2.02894e-07
1.58273e-06
3.24639e-07
1.57962e-06
1.47453e-07
1.58333e-06
2.01965e-07
1.17301e-07
1.58036e-06
1.63502e-06
8.08651e-09
1.65612e-06
5.76954e-07
1.63217e-06
-1.17685e-06
1.63186e-06
1.00416e-06
1.64278e-06
-3.80109e-08
1.63218e-06
-1.00392e-06
1.61702e-06
-4.28913e-07
1.61962e-06
2.94097e-07
1.62939e-06
8.25108e-07
1.62959e-06
2.38814e-07
1.61999e-06
5.61986e-07
1.6208e-06
1.39744e-07
1.62735e-06
4.99287e-07
1.63037e-06
2.3827e-07
1.63763e-06
4.69956e-07
1.63617e-06
2.04353e-07
1.64326e-06
3.17554e-07
1.63908e-06
1.5163e-07
1.64229e-06
1.98751e-07
1.20616e-07
1.63898e-06
1.69607e-06
1.27705e-08
1.71828e-06
5.54743e-07
1.69336e-06
-1.15194e-06
1.69371e-06
1.00382e-06
1.70437e-06
-4.86794e-08
1.69456e-06
-9.94112e-07
1.67837e-06
-4.1272e-07
1.67944e-06
2.93023e-07
1.68928e-06
8.15273e-07
1.69104e-06
2.37057e-07
1.68281e-06
5.70213e-07
1.68223e-06
1.4032e-07
1.69049e-06
4.91034e-07
1.69294e-06
2.35817e-07
1.70186e-06
4.61037e-07
1.69889e-06
2.07317e-07
1.706e-06
3.10449e-07
1.70095e-06
1.56684e-07
1.70354e-06
1.96152e-07
1.24225e-07
1.69994e-06
1.75999e-06
1.80942e-08
1.78259e-06
5.32149e-07
1.75661e-06
-1.12595e-06
1.7589e-06
1.00152e-06
1.76836e-06
-5.81345e-08
1.75866e-06
-9.84412e-07
1.74169e-06
-3.9575e-07
1.74195e-06
2.92765e-07
1.75225e-06
8.04976e-07
1.75555e-06
2.33757e-07
1.74937e-06
5.7639e-07
1.74707e-06
1.42613e-07
1.75647e-06
4.81636e-07
1.75807e-06
2.34222e-07
1.7685e-06
4.50608e-07
1.76424e-06
2.11574e-07
1.77119e-06
3.03501e-07
1.76551e-06
1.6236e-07
1.76747e-06
1.94193e-07
1.28084e-07
1.76361e-06
1.82689e-06
2.35421e-08
1.84918e-06
5.0986e-07
1.82221e-06
-1.09899e-06
1.82755e-06
9.96181e-07
1.8348e-06
-6.53774e-08
1.82465e-06
-9.74261e-07
1.80719e-06
-3.78294e-07
1.80719e-06
2.92761e-07
1.8182e-06
7.93969e-07
1.82283e-06
2.29131e-07
1.81927e-06
5.79947e-07
1.81517e-06
1.46718e-07
1.82524e-06
4.71564e-07
1.8257e-06
2.33757e-07
1.83744e-06
4.38876e-07
1.8322e-06
2.16808e-07
1.83889e-06
2.96813e-07
1.83288e-06
1.68367e-07
1.83426e-06
1.92812e-07
1.32129e-07
1.83022e-06
1.8967e-06
2.87452e-08
1.91819e-06
4.88371e-07
1.89053e-06
-1.07133e-06
1.89958e-06
9.87129e-07
1.90377e-06
-6.95662e-08
1.89282e-06
-9.63317e-07
1.87525e-06
-3.60721e-07
1.87541e-06
2.92597e-07
1.88724e-06
7.82138e-07
1.89274e-06
2.23633e-07
1.89212e-06
5.80566e-07
1.88628e-06
1.52555e-07
1.89673e-06
4.61114e-07
1.89579e-06
2.347e-07
1.90853e-06
4.26141e-07
1.90268e-06
2.22657e-07
1.90905e-06
2.90439e-07
1.90303e-06
1.74388e-07
1.90396e-06
1.9188e-07
1.36263e-07
1.89983e-06
1.96929e-06
3.35612e-08
1.98978e-06
4.67883e-07
1.96182e-06
-1.04337e-06
1.97471e-06
9.74233e-07
1.97537e-06
-7.022e-08
1.96353e-06
-9.51483e-07
1.94623e-06
-3.43415e-07
1.9468e-06
2.92024e-07
1.9595e-06
7.69433e-07
1.96527e-06
2.17864e-07
1.96763e-06
5.78214e-07
1.9602e-06
1.59978e-07
1.97093e-06
4.50387e-07
1.96835e-06
2.37278e-07
1.9817e-06
4.12794e-07
1.9756e-06
2.28758e-07
1.98162e-06
2.8442e-07
1.97589e-06
1.80115e-07
1.97653e-06
1.91244e-07
1.40352e-07
1.97244e-06
2.04456e-06
3.80527e-08
2.06412e-06
4.48317e-07
2.03622e-06
-1.01546e-06
2.05264e-06
9.57814e-07
2.04972e-06
-6.73088e-08
2.03708e-06
-9.38834e-07
2.02036e-06
-3.26697e-07
2.02142e-06
2.90962e-07
2.03503e-06
7.5582e-07
2.04046e-06
2.12433e-07
2.04563e-06
5.7305e-07
2.03674e-06
1.6887e-07
2.0478e-06
4.39324e-07
2.04351e-06
2.4157e-07
2.05704e-06
3.99261e-07
2.05101e-06
2.34782e-07
2.05664e-06
2.78796e-07
2.05144e-06
1.8531e-07
2.05193e-06
1.90761e-07
1.44248e-07
2.04803e-06
2.12251e-06
4.23872e-08
2.1414e-06
4.29427e-07
2.11374e-06
-9.87804e-07
2.13312e-06
9.38429e-07
2.12701e-06
-6.11915e-08
2.11366e-06
-9.25486e-07
2.09774e-06
-3.10783e-07
2.09924e-06
2.89462e-07
2.11378e-06
7.41287e-07
2.11834e-06
2.07871e-07
2.12608e-06
5.65304e-07
2.11579e-06
1.79161e-07
2.12732e-06
4.27801e-07
2.12146e-06
2.47427e-07
2.13479e-06
3.85933e-07
2.12912e-06
2.40447e-07
2.1343e-06
2.73623e-07
2.12978e-06
1.89829e-07
2.13021e-06
1.90327e-07
1.47824e-07
2.12664e-06
2.20325e-06
4.6723e-08
2.22173e-06
4.10941e-07
2.19433e-06
-9.60399e-07
2.21613e-06
9.16627e-07
2.2074e-06
-5.24618e-08
2.19337e-06
-9.11455e-07
2.17838e-06
-2.95795e-07
2.18022e-06
2.87626e-07
2.19564e-06
7.25865e-07
2.1989e-06
2.04613e-07
2.20905e-06
5.55157e-07
2.1974e-06
1.90801e-07
2.20949e-06
4.15712e-07
2.20243e-06
2.54492e-07
2.21526e-06
3.73104e-07
2.21019e-06
2.4552e-07
2.21483e-06
2.68976e-07
2.211e-06
1.9366e-07
2.21147e-06
1.89856e-07
1.51005e-07
2.20829e-06
2.28698e-06
5.1136e-08
2.30525e-06
3.92667e-07
2.27794e-06
-9.33084e-07
2.30179e-06
8.92778e-07
2.29112e-06
-4.17959e-08
2.27624e-06
-8.96574e-07
2.26226e-06
-2.8181e-07
2.26434e-06
2.85545e-07
2.28059e-06
7.09613e-07
2.28217e-06
2.03035e-07
2.29459e-06
5.42731e-07
2.28171e-06
2.03691e-07
2.29438e-06
4.03038e-07
2.2866e-06
2.62275e-07
2.29873e-06
3.6097e-07
2.29442e-06
2.49835e-07
2.2985e-06
2.64897e-07
2.29525e-06
1.96901e-07
2.29581e-06
1.89305e-07
1.53763e-07
2.29305e-06
2.37391e-06
5.56077e-08
2.39207e-06
3.74514e-07
2.36456e-06
-9.05581e-07
2.39029e-06
8.67053e-07
2.37836e-06
-2.98636e-08
2.36228e-06
-8.80498e-07
2.34937e-06
-2.68897e-07
2.35164e-06
2.83268e-07
2.36867e-06
6.92591e-07
2.36826e-06
2.03438e-07
2.38284e-06
5.28156e-07
2.3689e-06
2.17624e-07
2.38209e-06
3.89856e-07
2.37408e-06
2.70276e-07
2.38542e-06
3.49632e-07
2.3819e-06
2.53355e-07
2.38561e-06
2.61184e-07
2.38271e-06
1.99803e-07
2.38329e-06
1.88731e-07
1.5608e-07
2.38097e-06
2.46423e-06
6.00554e-08
2.48229e-06
3.56458e-07
2.45427e-06
-8.77567e-07
2.48183e-06
8.39497e-07
2.46927e-06
-1.73012e-08
2.45154e-06
-8.62769e-07
2.43976e-06
-2.57118e-07
2.4422e-06
2.80822e-07
2.45996e-06
6.74831e-07
2.45741e-06
2.05993e-07
2.4739e-06
5.1167e-07
2.45924e-06
2.32279e-07
2.47277e-06
3.76323e-07
2.46498e-06
2.7807e-07
2.47549e-06
3.39123e-07
2.47257e-06
2.56279e-07
2.47669e-06
2.57058e-07
2.47361e-06
2.02887e-07
2.474e-06
1.88343e-07
1.57946e-07
2.47213e-06
2.55808e-06
6.43759e-08
2.57604e-06
3.38494e-07
2.5472e-06
-8.48719e-07
2.57654e-06
8.10151e-07
2.56395e-06
-4.70977e-09
2.5441e-06
-8.42918e-07
2.5335e-06
-2.46523e-07
2.53609e-06
2.78236e-07
2.55457e-06
6.5635e-07
2.54988e-06
2.10685e-07
2.56791e-06
4.93635e-07
2.55298e-06
2.47211e-07
2.5666e-06
3.62702e-07
2.55942e-06
2.85253e-07
2.56911e-06
3.29437e-07
2.56613e-06
2.5925e-07
2.5709e-06
2.52289e-07
2.56752e-06
2.06274e-07
2.56807e-06
1.87788e-07
1.5943e-07
2.56659e-06
2.65558e-06
6.84801e-08
2.67347e-06
3.20599e-07
2.64352e-06
-8.18772e-07
2.67454e-06
7.79138e-07
2.66248e-06
7.35052e-09
2.64011e-06
-8.20552e-07
2.63071e-06
-2.37122e-07
2.6334e-06
2.75543e-07
2.65255e-06
6.37198e-07
2.64597e-06
2.17274e-07
2.66505e-06
4.74549e-07
2.65042e-06
2.6184e-07
2.6637e-06
3.49422e-07
2.65762e-06
2.91338e-07
2.6665e-06
3.20551e-07
2.66273e-06
2.6302e-07
2.66579e-06
2.49231e-07
2.66333e-06
2.08737e-07
2.66575e-06
1.85368e-07
1.60778e-07
2.6644e-06
2.75682e-06
7.23119e-08
2.7747e-06
3.02715e-07
2.74348e-06
-7.8755e-07
2.77591e-06
7.46713e-07
2.76488e-06
1.83807e-08
2.73975e-06
-7.95424e-07
2.7315e-06
-2.28868e-07
2.73429e-06
2.72752e-07
2.754e-06
6.17481e-07
2.74599e-06
2.25292e-07
2.76545e-06
4.55088e-07
2.75193e-06
2.75352e-07
2.7641e-06
3.37259e-07
2.76005e-06
2.95388e-07
2.76787e-06
3.12724e-07
2.7636e-06
2.67297e-07
2.76428e-06
2.48546e-07
2.76158e-06
2.11437e-07
2.76737e-06
1.79581e-07
1.62526e-07
2.76562e-06
2.86192e-06
7.58495e-08
2.87987e-06
2.84769e-07
2.84732e-06
-7.55003e-07
2.88078e-06
7.13253e-07
2.87119e-06
2.79676e-08
2.84324e-06
-7.67469e-07
2.83601e-06
-2.21643e-07
2.83891e-06
2.69858e-07
2.85902e-06
5.97367e-07
2.85022e-06
2.3409e-07
2.86925e-06
4.36062e-07
2.85791e-06
2.86692e-07
2.86781e-06
3.27356e-07
2.86741e-06
2.95793e-07
2.87356e-06
3.06568e-07
2.87783e-06
2.63033e-07
2.88059e-06
2.4578e-07
2.87787e-06
2.14162e-07
2.87326e-06
1.84185e-07
1.65354e-07
2.87044e-06
2.971e-06
7.90944e-08
2.98907e-06
2.66702e-07
2.95528e-06
-7.21215e-07
2.98931e-06
6.79223e-07
2.98148e-06
3.57921e-08
2.9508e-06
-7.36788e-07
2.94444e-06
-2.15277e-07
2.94742e-06
2.66872e-07
2.96779e-06
5.77003e-07
2.95879e-06
2.43088e-07
2.97684e-06
4.18011e-07
2.96829e-06
2.95242e-07
2.97538e-06
3.20267e-07
2.97859e-06
2.92583e-07
2.98317e-06
3.01986e-07
2.98984e-06
2.5636e-07
2.99101e-06
2.44616e-07
2.98905e-06
2.16117e-07
2.98272e-06
1.9052e-07
1.68837e-07
2.97923e-06
3.08419e-06
8.20596e-08
3.1024e-06
2.48496e-07
3.06758e-06
-6.864e-07
3.10168e-06
6.4513e-07
3.09584e-06
4.16261e-08
3.06264e-06
-7.03587e-07
3.05697e-06
-2.09601e-07
3.05998e-06
2.63861e-07
3.08058e-06
5.56398e-07
3.07156e-06
2.52116e-07
3.08886e-06
4.00703e-07
3.08216e-06
3.01949e-07
3.08836e-06
3.14059e-07
3.09257e-06
2.88379e-07
3.09749e-06
2.97066e-07
3.10477e-06
2.49075e-07
3.1077e-06
2.41685e-07
3.10714e-06
2.16679e-07
3.09536e-06
2.02301e-07
1.71828e-07
3.09237e-06
3.20166e-06
8.47636e-08
3.21997e-06
2.30181e-07
3.18445e-06
-6.50875e-07
3.2181e-06
6.1148e-07
3.21439e-06
4.53312e-08
3.17895e-06
-6.68139e-07
3.1738e-06
-2.04453e-07
3.17679e-06
2.60866e-07
3.19756e-06
5.35629e-07
3.18858e-06
2.61092e-07
3.2058e-06
3.8349e-07
3.19902e-06
3.08726e-07
3.20708e-06
3.05995e-07
3.21021e-06
2.85249e-07
3.216e-06
2.91283e-07
3.20772e-06
2.57352e-07
3.20496e-06
2.44443e-07
3.2038e-06
2.17843e-07
3.21097e-06
1.95134e-07
1.72719e-07
3.21007e-06
3.32355e-06
8.72303e-08
3.34191e-06
2.11819e-07
3.30605e-06
-6.1502e-07
3.3388e-06
5.78733e-07
3.33723e-06
4.68959e-08
3.29993e-06
-6.30835e-07
3.29503e-06
-1.9955e-07
3.29824e-06
2.57652e-07
3.31871e-06
5.1516e-07
3.31032e-06
2.69486e-07
3.32714e-06
3.66668e-07
3.32086e-06
3.15004e-07
3.32898e-06
2.97877e-07
3.32688e-06
2.87344e-07
3.32829e-06
2.89876e-07
3.32657e-06
2.59075e-07
3.32941e-06
2.41602e-07
3.32817e-06
2.19084e-07
3.3318e-06
1.91503e-07
1.72397e-07
3.33212e-06
3.45004e-06
8.94732e-08
3.46833e-06
1.93527e-07
3.43259e-06
-5.79278e-07
3.46398e-06
5.4734e-07
3.4645e-06
4.63808e-08
3.42579e-06
-5.92125e-07
3.42078e-06
-1.94545e-07
3.4246e-06
2.53836e-07
3.44414e-06
4.95621e-07
3.43702e-06
2.76605e-07
3.45286e-06
3.50827e-07
3.44772e-06
3.20148e-07
3.45447e-06
2.91126e-07
3.45197e-06
2.89844e-07
3.45326e-06
2.88587e-07
3.45286e-06
2.59474e-07
3.45881e-06
2.35647e-07
3.46305e-06
2.14844e-07
3.45805e-06
1.965e-07
1.71918e-07
3.45853e-06
3.58133e-06
9.14896e-08
3.59938e-06
1.75473e-07
3.56424e-06
-5.44136e-07
3.59384e-06
5.17738e-07
3.59632e-06
4.39074e-08
3.55666e-06
-5.52468e-07
3.55128e-06
-1.89164e-07
3.55599e-06
2.49128e-07
3.57421e-06
4.77402e-07
3.56859e-06
2.82217e-07
3.58324e-06
3.36185e-07
3.57841e-06
3.24969e-07
3.58294e-06
2.86602e-07
3.58226e-06
2.90522e-07
3.58394e-06
2.86913e-07
3.58309e-06
2.6032e-07
3.58484e-06
2.33895e-07
3.58492e-06
2.14764e-07
3.58899e-06
1.92433e-07
1.71259e-07
3.58965e-06
3.71761e-06
9.32697e-08
3.73526e-06
1.57821e-07
3.70114e-06
-5.1002e-07
3.72861e-06
4.90269e-07
3.73279e-06
3.97243e-08
3.6928e-06
-5.12476e-07
3.68657e-06
-1.82928e-07
3.69272e-06
2.42977e-07
3.70899e-06
4.6113e-07
3.70528e-06
2.85924e-07
3.71778e-06
3.23691e-07
3.71365e-06
3.29092e-07
3.714e-06
2.86254e-07
3.71722e-06
2.87303e-07
3.71901e-06
2.8512e-07
3.71928e-06
2.60053e-07
3.72018e-06
2.32995e-07
3.71937e-06
2.15571e-07
3.72525e-06
1.86555e-07
1.70848e-07
3.72566e-06
3.85907e-06
9.47855e-08
3.87614e-06
1.40751e-07
3.84346e-06
-4.77333e-07
3.8685e-06
4.65224e-07
3.87411e-06
3.41153e-08
3.83441e-06
-4.7278e-07
3.82679e-06
-1.75301e-07
3.83484e-06
2.3493e-07
3.8489e-06
4.4706e-07
3.84677e-06
2.88061e-07
3.85687e-06
3.13584e-07
3.85475e-06
3.3122e-07
3.85304e-06
2.87958e-07
3.85769e-06
2.82657e-07
3.85893e-06
2.83877e-07
3.86119e-06
2.57791e-07
3.86516e-06
2.29033e-07
3.875e-06
2.05726e-07
3.86711e-06
1.94446e-07
1.71046e-07
3.86691e-06
4.00595e-06
9.59923e-08
4.02223e-06
1.24467e-07
3.99135e-06
-4.46449e-07
4.01375e-06
4.4282e-07
4.02055e-06
2.73194e-08
3.98158e-06
-4.33815e-07
3.97229e-06
-1.66007e-07
3.98214e-06
2.25082e-07
3.99469e-06
4.34502e-07
3.99257e-06
2.90188e-07
4.00254e-06
3.03613e-07
4.00021e-06
3.33551e-07
3.99871e-06
2.8946e-07
4.00272e-06
2.78645e-07
4.00553e-06
2.8107e-07
4.00663e-06
2.56683e-07
4.00624e-06
2.29432e-07
4.00507e-06
2.06893e-07
4.01299e-06
1.86525e-07
1.7027e-07
4.01377e-06
4.15842e-06
9.68589e-08
4.17378e-06
1.091e-07
4.14489e-06
-4.1756e-07
4.16472e-06
4.22991e-07
4.17221e-06
1.98267e-08
4.13463e-06
-3.96229e-07
4.12317e-06
-1.54551e-07
4.13485e-06
2.13401e-07
4.1463e-06
4.23057e-07
4.14367e-06
2.9282e-07
4.15326e-06
2.9402e-07
4.15189e-06
3.34921e-07
4.14979e-06
2.91563e-07
4.15348e-06
2.74947e-07
4.15732e-06
2.77232e-07
4.15822e-06
2.55784e-07
4.15915e-06
2.28501e-07
4.15984e-06
2.0621e-07
4.16473e-06
1.81628e-07
1.6879e-07
4.16621e-06
4.3167e-06
9.73483e-08
4.33102e-06
9.478e-08
4.30424e-06
-3.90781e-07
4.32167e-06
4.05562e-07
4.32933e-06
1.21625e-08
4.29379e-06
-3.60681e-07
4.27972e-06
-1.40482e-07
4.29307e-06
2.00049e-07
4.30389e-06
4.12236e-07
4.30049e-06
2.96219e-07
4.30904e-06
2.85471e-07
4.30976e-06
3.34196e-07
4.30646e-06
2.94862e-07
4.31047e-06
2.70938e-07
4.31435e-06
2.73355e-07
4.3165e-06
2.53637e-07
4.31951e-06
2.25488e-07
4.32541e-06
2.00309e-07
4.32254e-06
1.84496e-07
1.66969e-07
4.32436e-06
4.48102e-06
9.74104e-08
4.49414e-06
8.16663e-08
4.46957e-06
-3.66217e-07
4.48478e-06
3.90354e-07
4.49224e-06
4.69904e-09
4.45905e-06
-3.27489e-07
4.44267e-06
-1.24099e-07
4.45659e-06
1.86126e-07
4.46796e-06
4.00873e-07
4.46293e-06
3.01239e-07
4.47108e-06
2.77328e-07
4.47308e-06
3.32198e-07
4.47002e-06
2.97922e-07
4.47304e-06
2.67911e-07
4.47796e-06
2.68434e-07
4.47989e-06
2.51716e-07
4.48048e-06
2.24892e-07
4.47961e-06
2.01182e-07
4.48585e-06
1.78256e-07
1.64315e-07
4.4885e-06
4.6516e-06
9.70194e-08
4.66344e-06
6.98245e-08
4.64101e-06
-3.43788e-07
4.65439e-06
3.76972e-07
4.66104e-06
-1.94894e-09
4.63082e-06
-2.97272e-07
4.61215e-06
-1.05425e-07
4.62596e-06
1.72314e-07
4.63819e-06
3.88645e-07
4.63198e-06
3.07445e-07
4.63885e-06
2.70466e-07
4.64275e-06
3.28297e-07
4.63993e-06
3.00741e-07
4.64205e-06
2.65784e-07
4.64748e-06
2.6301e-07
4.64974e-06
2.49458e-07
4.65112e-06
2.23509e-07
4.65209e-06
2.00211e-07
4.65566e-06
1.74692e-07
1.61199e-07
4.65877e-06
4.82866e-06
9.6144e-08
4.83917e-06
5.93184e-08
4.81876e-06
-3.23377e-07
4.83075e-06
3.64978e-07
4.83598e-06
-7.17439e-09
4.80921e-06
-2.705e-07
4.78855e-06
-8.47714e-08
4.80143e-06
1.59433e-07
4.81453e-06
3.75548e-07
4.80796e-06
3.14016e-07
4.81293e-06
2.65498e-07
4.81888e-06
3.22342e-07
4.81636e-06
3.03265e-07
4.8179e-06
2.64246e-07
4.82314e-06
2.57767e-07
4.8265e-06
2.46099e-07
4.82923e-06
2.2078e-07
4.83327e-06
1.96171e-07
4.83216e-06
1.75802e-07
1.57964e-07
4.83539e-06
5.01247e-06
9.4745e-08
5.02156e-06
5.02251e-08
5.00308e-06
-3.04893e-07
5.01403e-06
3.54023e-07
5.01738e-06
-1.0524e-08
4.99396e-06
-2.47072e-07
4.97229e-06
-6.31088e-08
4.98304e-06
1.48681e-07
4.99731e-06
3.61286e-07
4.9907e-06
3.20626e-07
4.99405e-06
2.62141e-07
5.00136e-06
3.15034e-07
4.99988e-06
3.0474e-07
5.0005e-06
2.63627e-07
5.00574e-06
2.52532e-07
5.00955e-06
2.42286e-07
5.01053e-06
2.19798e-07
5.01069e-06
1.96014e-07
5.01532e-06
1.71168e-07
1.54677e-07
5.01861e-06
5.20325e-06
9.2806e-08
5.21094e-06
4.25349e-08
5.19418e-06
-2.88134e-07
5.20457e-06
3.43641e-07
5.20545e-06
-1.14136e-08
5.18532e-06
-2.26936e-07
5.16325e-06
-4.10382e-08
5.17128e-06
1.40646e-07
5.18659e-06
3.45977e-07
5.18064e-06
3.26582e-07
5.1823e-06
2.60481e-07
5.19062e-06
3.06714e-07
5.19035e-06
3.05009e-07
5.19048e-06
2.63494e-07
5.19516e-06
2.4785e-07
5.19954e-06
2.37913e-07
5.20239e-06
2.1694e-07
5.20621e-06
1.92194e-07
5.20568e-06
1.71705e-07
1.51648e-07
5.20871e-06
5.40128e-06
9.03072e-08
5.40756e-06
3.62517e-08
5.39235e-06
-2.72929e-07
5.40256e-06
3.33434e-07
5.40082e-06
-9.67681e-09
5.38322e-06
-2.09335e-07
5.36159e-06
-1.94026e-08
5.36671e-06
1.35529e-07
5.38274e-06
3.29941e-07
5.37801e-06
3.31314e-07
5.3781e-06
2.60391e-07
5.38692e-06
2.97895e-07
5.38809e-06
3.0384e-07
5.3879e-06
2.63687e-07
5.39189e-06
2.43853e-07
5.39674e-06
2.3307e-07
5.39871e-06
2.14966e-07
5.40011e-06
1.90791e-07
5.40333e-06
1.68482e-07
1.48908e-07
5.40607e-06
5.6068e-06
8.7241e-08
5.61172e-06
3.13374e-08
5.59788e-06
-2.59091e-07
5.60836e-06
3.2295e-07
5.60391e-06
-5.22307e-09
5.58796e-06
-1.9338e-07
5.56737e-06
1.18318e-09
5.56976e-06
1.33136e-07
5.5862e-06
3.13499e-07
5.58316e-06
3.34357e-07
5.58177e-06
2.61783e-07
5.59056e-06
2.89106e-07
5.59321e-06
3.01188e-07
5.59306e-06
2.63839e-07
5.59625e-06
2.40664e-07
5.60144e-06
2.27877e-07
5.60425e-06
2.12152e-07
5.60706e-06
1.87981e-07
5.60858e-06
1.66961e-07
1.46622e-07
5.61087e-06
5.82011e-06
8.36117e-08
5.82373e-06
2.77201e-08
5.81104e-06
-2.46404e-07
5.82229e-06
3.11703e-07
5.8152e-06
1.85972e-09
5.79993e-06
-1.78106e-07
5.78075e-06
2.03582e-08
5.78092e-06
1.32975e-07
5.79734e-06
2.97073e-07
5.79621e-06
3.35492e-07
5.79354e-06
2.64446e-07
5.802e-06
2.80655e-07
5.80596e-06
2.97228e-07
5.80621e-06
2.63582e-07
5.80854e-06
2.38338e-07
5.81394e-06
2.22476e-07
5.81727e-06
2.08824e-07
5.82095e-06
1.84301e-07
5.82166e-06
1.66243e-07
1.44764e-07
5.82352e-06
6.04148e-06
7.94317e-08
6.04386e-06
2.53359e-08
6.03215e-06
-2.34689e-07
6.04453e-06
2.99326e-07
6.03509e-06
1.12931e-08
6.01973e-06
-1.62741e-07
6.00227e-06
3.78141e-08
6.00046e-06
1.34781e-07
6.01642e-06
2.81115e-07
6.01736e-06
3.3456e-07
6.01385e-06
2.67952e-07
6.02151e-06
2.72993e-07
6.02664e-06
2.921e-07
6.02745e-06
2.62769e-07
6.02932e-06
2.36467e-07
6.03433e-06
2.17467e-07
6.0376e-06
2.05555e-07
6.03967e-06
1.82237e-07
6.04282e-06
1.63092e-07
1.43193e-07
6.04439e-06
6.2712e-06
7.47276e-08
6.27245e-06
2.40921e-08
6.26151e-06
-2.23753e-07
6.2752e-06
2.85638e-07
6.26369e-06
2.27997e-08
6.24823e-06
-1.47277e-07
6.23226e-06
5.37829e-08
6.22876e-06
1.38281e-07
6.24382e-06
2.66055e-07
6.24684e-06
3.31538e-07
6.24289e-06
2.71908e-07
6.2495e-06
2.66374e-07
6.25553e-06
2.86072e-07
6.25723e-06
2.61068e-07
6.25866e-06
2.35044e-07
6.26314e-06
2.12983e-07
6.2675e-06
2.01201e-07
6.27093e-06
1.78804e-07
6.27232e-06
1.61702e-07
1.41781e-07
6.27373e-06
6.5096e-06
6.95342e-08
6.50976e-06
2.39304e-08
6.49946e-06
-2.13456e-07
6.51433e-06
2.70775e-07
6.50141e-06
3.57194e-08
6.48568e-06
-1.31556e-07
6.47113e-06
6.83385e-08
6.46617e-06
1.4324e-07
6.47986e-06
2.52368e-07
6.48488e-06
3.26511e-07
6.48095e-06
2.75843e-07
6.48644e-06
2.60882e-07
6.49307e-06
2.79439e-07
6.49557e-06
2.58574e-07
6.49697e-06
2.33644e-07
6.50079e-06
2.09161e-07
6.50496e-06
1.9703e-07
6.50707e-06
1.76693e-07
6.51051e-06
1.58262e-07
1.40358e-07
6.51193e-06
6.75698e-06
6.38969e-08
6.7561e-06
2.48083e-08
6.74636e-06
-2.03721e-07
6.76218e-06
2.54959e-07
6.74862e-06
4.9284e-08
6.73243e-06
-1.15368e-07
6.71919e-06
8.1574e-08
6.71299e-06
1.49447e-07
6.72496e-06
2.40391e-07
6.73184e-06
3.19633e-07
6.72833e-06
2.79352e-07
6.73261e-06
2.566e-07
6.73957e-06
2.72479e-07
6.74283e-06
2.55315e-07
6.7446e-06
2.31881e-07
6.74761e-06
2.06149e-07
6.75222e-06
1.92418e-07
6.75559e-06
1.7332e-07
6.7577e-06
1.56151e-07
1.38815e-07
6.75925e-06
7.01368e-06
5.7868e-08
7.01181e-06
2.66793e-08
7.00256e-06
-1.94478e-07
7.01911e-06
2.38415e-07
7.0059e-06
6.2497e-08
6.9889e-06
-9.83678e-08
6.97671e-06
9.37559e-08
6.96958e-06
1.56585e-07
6.97959e-06
2.30373e-07
6.98797e-06
3.11253e-07
6.98525e-06
2.82078e-07
6.98846e-06
2.53383e-07
6.99548e-06
2.65463e-07
6.99939e-06
2.51406e-07
7.00166e-06
2.29615e-07
7.004e-06
2.03805e-07
7.00837e-06
1.88053e-07
7.01107e-06
1.70611e-07
7.01427e-06
1.52954e-07
1.37039e-07
7.01605e-06
7.28004e-06
5.15195e-08
7.27726e-06
2.94553e-08
7.26843e-06
-1.85643e-07
7.28554e-06
2.21302e-07
7.2732e-06
7.48351e-08
7.25543e-06
-8.0596e-08
7.24403e-06
1.05152e-07
7.23624e-06
1.64379e-07
7.24418e-06
2.22438e-07
7.25368e-06
3.01745e-07
7.25206e-06
2.83697e-07
7.25431e-06
2.51136e-07
7.26119e-06
2.58581e-07
7.26553e-06
2.47072e-07
7.26845e-06
2.2669e-07
7.27043e-06
2.01826e-07
7.27464e-06
1.83846e-07
7.2778e-06
1.67453e-07
7.28061e-06
1.50141e-07
1.35015e-07
7.28263e-06
7.55641e-06
4.49415e-08
7.55293e-06
3.29312e-08
7.54427e-06
-1.76983e-07
7.56184e-06
2.03735e-07
7.55053e-06
8.61489e-08
7.53239e-06
-6.24589e-08
7.52146e-06
1.16078e-07
7.5133e-06
1.72537e-07
7.51919e-06
2.1655e-07
7.52938e-06
2.91552e-07
7.52904e-06
2.84041e-07
7.53052e-06
2.49659e-07
7.53716e-06
2.51934e-07
7.54174e-06
2.42494e-07
7.5453e-06
2.23132e-07
7.54721e-06
1.99915e-07
7.55099e-06
1.80067e-07
7.55419e-06
1.64248e-07
7.55705e-06
1.47286e-07
1.32702e-07
7.55936e-06
7.84316e-06
3.82408e-08
7.83924e-06
3.68443e-08
7.83044e-06
-1.68181e-07
7.84835e-06
1.85824e-07
7.83818e-06
9.63243e-08
7.81989e-06
-4.4169e-08
7.80927e-06
1.26699e-07
7.80111e-06
1.80698e-07
7.80509e-06
2.12564e-07
7.81547e-06
2.81174e-07
7.81653e-06
2.82976e-07
7.81746e-06
2.48734e-07
7.82378e-06
2.45611e-07
7.82845e-06
2.37829e-07
7.83248e-06
2.19105e-07
7.83464e-06
1.97752e-07
7.83792e-06
1.76786e-07
7.84113e-06
1.61034e-07
7.8441e-06
1.44321e-07
1.3014e-07
7.84666e-06
8.14066e-06
3.15439e-08
8.13664e-06
4.08625e-08
8.1272e-06
-1.5874e-07
8.14536e-06
1.67665e-07
8.13646e-06
1.05223e-07
8.11783e-06
-2.55381e-08
8.10774e-06
1.36788e-07
8.09996e-06
1.88479e-07
8.10232e-06
2.10205e-07
8.11243e-06
2.71064e-07
8.11491e-06
2.80494e-07
8.11554e-06
2.48108e-07
8.12142e-06
2.39728e-07
8.12616e-06
2.33087e-07
8.13045e-06
2.1481e-07
8.13307e-06
1.95141e-07
8.13602e-06
1.73835e-07
8.13938e-06
1.57674e-07
8.14207e-06
1.41627e-07
1.27425e-07
8.14479e-06
8.44932e-06
2.49897e-08
8.44552e-06
4.46606e-08
8.43448e-06
-1.47707e-07
8.45296e-06
1.49187e-07
8.44513e-06
1.13056e-07
8.42582e-06
-6.23312e-09
8.41721e-06
1.45407e-07
8.41023e-06
1.95456e-07
8.41126e-06
2.09175e-07
8.42078e-06
2.61548e-07
8.42453e-06
2.76738e-07
8.42512e-06
2.47522e-07
8.43049e-06
2.34354e-07
8.43533e-06
2.28254e-07
8.43967e-06
2.10465e-07
8.4428e-06
1.92015e-07
8.44544e-06
1.71191e-07
8.44866e-06
1.54451e-07
8.45146e-06
1.38829e-07
1.24633e-07
8.45426e-06
8.76956e-06
1.87161e-08
8.76624e-06
4.79815e-08
8.75229e-06
-1.33762e-07
8.77073e-06
1.30746e-07
8.7626e-06
1.21192e-07
8.74444e-06
1.19263e-08
8.73808e-06
1.51766e-07
8.73231e-06
2.01219e-07
8.7323e-06
2.09193e-07
8.74101e-06
2.52835e-07
8.74582e-06
2.71924e-07
8.74662e-06
2.4673e-07
8.75145e-06
2.29514e-07
8.75639e-06
2.23321e-07
8.76065e-06
2.06203e-07
8.76424e-06