/*--------------------------------*- C++ -*----------------------------------*\
| =========                 |                                                 |
| \\      /  F ield         | OpenFOAM: The Open Source CFD Toolbox           |
|  \\    /   O peration     | Version:  v2012                                 |
|   \\  /    A nd           | Website:  www.openfoam.com                      |
|    \\/     M anipulation  |                                                 |
\*---------------------------------------------------------------------------*/
FoamFile
{
    version     2.0;
    format      ascii;
    class       volScalarField;
    location    "7";
    object      p;
}
// * * * * * * * * * * * * * * * * * * * * * * * * * * * * * * * * * * * * * //

dimensions      [0 2 -2 0 0 0 0];


internalField   nonuniform List<scalar> 
7000
(
-1.08738e-11
0.00443428
-0.00618535
-0.00278143
-0.00049993
0.00389529
0.00805665
0.00385061
0.00145005
0.00401863
0.00303855
0.00347296
0.00344982
0.00455771
0.00468531
0.00613764
0.00692049
0.00932541
0.0113823
0.0160565
2.11491e-06
0.00441448
-0.00615732
-0.00281932
-0.000496304
0.00392694
0.00794605
0.00385834
0.00147689
0.00401289
0.00304147
0.00346012
0.00345059
0.00454841
0.00468705
0.00612545
0.0069243
0.00930064
0.0113925
0.0157153
3.91142e-06
0.00438817
-0.00612009
-0.00286884
-0.000481269
0.00395673
0.00785962
0.00386938
0.00149951
0.00399758
0.00304603
0.00343526
0.00345459
0.00453156
0.00468939
0.00610644
0.00693073
0.00926563
0.0113898
0.0153034
5.0795e-06
0.00435813
-0.00609169
-0.00289641
-0.000453569
0.00397061
0.00776545
0.00387344
0.00151902
0.00397348
0.00304957
0.00340403
0.00345701
0.00451582
0.00468861
0.0060889
0.00693816
0.00922475
0.0113662
0.0149102
5.93981e-06
0.00432309
-0.00606891
-0.0028956
-0.000414161
0.00396639
0.00766184
0.00387291
0.0015398
0.00394133
0.003053
0.00336734
0.00345835
0.00450217
0.00468937
0.00607107
0.00694887
0.00917476
0.0113272
0.0145434
6.61037e-06
0.00428285
-0.00604558
-0.00286796
-0.000365977
0.0039438
0.00755119
0.00387198
0.00156279
0.00390318
0.00305831
0.00332596
0.00346147
0.00448928
0.00469463
0.00605001
0.00696357
0.0091155
0.0112742
0.0142011
7.18979e-06
0.0042382
-0.00601783
-0.00281776
-0.000314769
0.00390568
0.0074379
0.00387146
0.00158725
0.0038629
0.00306681
0.00328166
0.0034674
0.00447538
0.00470377
0.00602385
0.00698005
0.00904644
0.011206
0.0138768
7.79906e-06
0.0041901
-0.00598326
-0.00275218
-0.000266914
0.00385839
0.00732588
0.00387036
0.00161245
0.00382367
0.00307872
0.00323578
0.0034757
0.0044585
0.0047154
0.00599143
0.00699572
0.00896906
0.0111218
0.0135699
8.51738e-06
0.00413939
-0.00594075
-0.00267872
-0.000226586
0.00380749
0.00721666
0.00386765
0.00163805
0.00378668
0.00309345
0.00318877
0.00348599
0.00443713
0.004729
0.00595247
0.00700911
0.00888557
0.0110204
0.0132684
9.36884e-06
0.00408658
-0.00589045
-0.00260268
-0.000194809
0.00375621
0.00710963
0.0038629
0.00166389
0.00375178
0.00311019
0.00314079
0.00349835
0.00441063
0.00474457
0.00590741
0.00701885
0.00879787
0.0109015
0.0129749
1.03532e-05
0.00403197
-0.00583335
-0.00252686
-0.0001703
0.00370569
0.00700332
0.00385616
0.00168974
0.00371805
0.00312836
0.00309187
0.00351286
0.00437903
0.00476177
0.00585731
0.00702294
0.0087072
0.0107657
0.0126873
1.14703e-05
0.0039757
-0.00577073
-0.00245231
-0.000150817
0.00365574
0.00689642
0.0038476
0.00171545
0.00368451
0.00314766
0.00304188
0.00352927
0.00434269
0.00477982
0.00580376
0.00701901
0.00861424
0.0106143
0.0124036
1.27289e-05
0.00391782
-0.0057037
-0.00237913
-0.00013409
0.00360565
0.00678808
0.00383731
0.00174114
0.00365028
0.00316798
0.00299039
0.00354699
0.00430237
0.00479755
0.00574864
0.00700493
0.0085193
0.0104484
0.0121214
1.41469e-05
0.00385833
-0.00563304
-0.00230711
-0.000118229
0.00355476
0.00667782
0.00382527
0.00176674
0.00361462
0.0031893
0.00293685
0.00356539
0.00425933
0.00481339
0.00569366
0.00697921
0.00842214
0.0102695
0.0118392
1.57466e-05
0.00379722
-0.00555923
-0.00223597
-0.000101799
0.00350262
0.0065655
0.00381142
0.0017925
0.00357691
0.00321159
0.00288082
0.00358385
0.0042152
0.00482543
0.00564015
0.00694083
0.00832194
0.0100793
0.0115555
1.75495e-05
0.00373449
-0.00548256
-0.00216546
-8.3684e-05
0.00344904
0.00645114
0.00379561
0.00181857
0.0035366
0.00323486
0.00282219
0.0036016
0.0041717
0.00483175
0.00558906
0.00688916
0.0082174
0.00987981
0.0112695
1.95732e-05
0.00367015
-0.00540322
-0.00209544
-6.2967e-05
0.00339396
0.00633488
0.00377767
0.0018451
0.00349333
0.00325906
0.00276124
0.00361756
0.00413051
0.00483083
0.00554077
0.00682409
0.00810698
0.00967266
0.0109807
2.18321e-05
0.00360419
-0.00532133
-0.00202584
-3.89097e-05
0.00333738
0.00621687
0.00375741
0.00187223
0.00344687
0.003284
0.0026987
0.00363051
0.00409311
0.00482138
0.00549499
0.00674609
0.00798887
0.00945917
0.010689
2.43392e-05
0.00353661
-0.00523694
-0.00195673
-1.09972e-05
0.00327928
0.00609724
0.00373469
0.00190005
0.00339715
0.00330934
0.00263577
0.00363908
0.00406041
0.0048023
0.00545085
0.00665624
0.0078612
0.00924021
0.0103952
2.71084e-05
0.0034674
-0.00515002
-0.00188834
2.10113e-05
0.00321965
0.00597607
0.00370937
0.00192862
0.00334427
0.00333446
0.00257392
0.00364182
0.00403296
0.00477285
0.00540674
0.0065562
0.00772281
0.00901624
0.0100996
3.01529e-05
0.00339652
-0.00506046
-0.00182101
5.70839e-05
0.00315846
0.00585339
0.00368135
0.00195789
0.00328855
0.00335853
0.00251457
0.00363728
0.00401104
0.00473268
0.00536027
0.0064478
0.00757314
0.00878755
0.00980325
3.34839e-05
0.00332394
-0.00496808
-0.00175515
9.69828e-05
0.00309572
0.0057292
0.00365058
0.00198769
0.00323046
0.00338053
0.00245898
0.00362391
0.0039946
0.00468255
0.00530896
0.00633226
0.00741153
0.00855402
0.00950727
3.71097e-05
0.00324964
-0.00487271
-0.00169124
0.00014038
0.00303153
0.00560346
0.00361705
0.00201784
0.00317063
0.00339921
0.00240844
0.0036006
0.00398244
0.00462374
0.00525127
0.00621077
0.00723799
0.00831495
0.00921221
4.10376e-05
0.00317359
-0.00477414
-0.00162973
0.000186924
0.00296604
0.00547604
0.00358082
0.00204787
0.00311002
0.00341318
0.00236365
0.00356749
0.00397271
0.00455642
0.00518573
0.0060848
0.00705436
0.00807046
0.0089173
4.52738e-05
0.00309578
-0.00467224
-0.00157104
0.000236257
0.00289947
0.00534679
0.00354221
0.00207697
0.00304945
0.00342165
0.00232442
0.00352444
0.00396495
0.00448165
0.0051093
0.00595374
0.00686256
0.00782255
0.00862315
4.98244e-05
0.0030162
-0.00456688
-0.00151556
0.00028804
0.00283212
0.00521539
0.00350156
0.00210474
0.00298919
0.00342387
0.00229142
0.00347052
0.00395734
0.00440251
0.00502135
0.00581594
0.00666077
0.00757105
0.00833283
5.46982e-05
0.00293487
-0.00445796
-0.00146363
0.000341939
0.00276441
0.0050815
0.00345932
0.00213033
0.00293022
0.00341866
0.00226451
0.00340716
0.00394751
0.00431953
0.00492179
0.00567357
0.00644958
0.00731248
0.00804546
5.99096e-05
0.00285181
-0.00434544
-0.00141551
0.000397616
0.00269683
0.00494451
0.00341634
0.00215286
0.0028728
0.00340633
0.00224176
0.00333561
0.00393421
0.00423241
0.00480768
0.00552865
0.00623694
0.00704661
0.00775627
6.54776e-05
0.002767
-0.00422926
-0.0013715
0.000454601
0.00263008
0.00480414
0.00337224
0.00217319
0.0028159
0.00338679
0.00222397
0.00325604
0.00391489
0.0041415
0.00467715
0.00538169
0.00603179
0.00677062
0.00746247
7.14031e-05
0.00268057
-0.00410945
-0.00133169
0.000512325
0.00256503
0.00465974
0.00332789
0.00218955
0.0027613
0.00335986
0.00220876
0.00316965
0.00389064
0.00404812
0.00452904
0.00522268
0.00583021
0.00650721
0.0071651
7.7721e-05
0.00259252
-0.00398615
-0.00129608
0.000570315
0.00250253
0.00451073
0.00328379
0.00220186
0.00270788
0.00332636
0.00219533
0.00307631
0.0038603
0.00395249
0.00436719
0.00504771
0.00562662
0.00625828
0.00687054
8.44262e-05
0.00250293
-0.00385938
-0.00126469
0.000627703
0.00244376
0.00435691
0.00323891
0.00221273
0.00265186
0.00328753
0.00218362
0.00297668
0.00382094
0.00385645
0.00419621
0.00486074
0.00541954
0.00598848
0.00658249
9.14722e-05
0.00241219
-0.00372947
-0.00123708
0.000683799
0.00238919
0.00419836
0.00319375
0.00221998
0.00259552
0.00324647
0.00216761
0.0028719
0.0037712
0.00376488
0.0040138
0.00466076
0.00520528
0.0057273
0.00630257
9.90259e-05
0.00231972
-0.00359651
-0.00121316
0.000738062
0.00233909
0.00403617
0.00314648
0.0022265
0.00253426
0.00320435
0.00214989
0.00276423
0.00370693
0.00367345
0.00382789
0.00444789
0.00498748
0.00542368
0.00603049
0.000106964
0.00222611
-0.00346087
-0.00119273
0.000789091
0.00229583
0.00386831
0.00309835
0.00223193
0.00246883
0.00315624
0.00213757
0.00264732
0.00363294
0.00357819
0.00362326
0.00420553
0.0047653
0.00519579
0.00577357
0.000115142
0.00213227
-0.00332337
-0.00117438
0.00083555
0.00225972
0.00369546
0.00304893
0.00223413
0.00240341
0.00310082
0.00213002
0.00251643
0.00354437
0.00348278
0.00341225
0.00393692
0.004538
0.00503997
0.00552847
0.000123938
0.00203662
-0.00318366
-0.00115819
0.000878037
0.00222809
0.00352356
0.00299134
0.00224449
0.00232582
0.00304477
0.0021226
0.00238327
0.00342773
0.00338966
0.00321444
0.00367291
0.0043111
0.0047591
0.00528544
0.000133011
0.00194064
-0.00304272
-0.00114381
0.000915031
0.00220422
0.00334691
0.00292963
0.00225637
0.00224503
0.00297775
0.00212113
0.00224659
0.00328074
0.00328204
0.00302363
0.00340841
0.0040683
0.00455287
0.00505775
0.000142105
0.0018459
-0.00290215
-0.00112901
0.000943742
0.00218955
0.00316591
0.0028646
0.00226634
0.00216648
0.00289243
0.0021289
0.00210309
0.00311021
0.00315844
0.00284109
0.00313781
0.00380041
0.0044256
0.00485102
0.000151874
0.00174961
-0.00276083
-0.00111458
0.00096824
0.00217619
0.00299666
0.00278073
0.00229285
0.00207531
0.00279899
0.00213072
0.00196463
0.00291937
0.00303728
0.00267747
0.00287906
0.00351345
0.00409593
0.00464215
0.000161697
0.00165405
-0.00262056
-0.00109976
0.000985769
0.0021688
0.00282538
0.0026887
0.00231927
0.00199119
0.00268918
0.00212797
0.00182765
0.00269444
0.00289974
0.00252172
0.00262315
0.00321914
0.00385276
0.00443903
0.000171081
0.00156211
-0.00248334
-0.00108209
0.000991039
0.00217657
0.00265069
0.00259382
0.00233857
0.00192117
0.00255488
0.00212134
0.00168494
0.00245367
0.00273058
0.0023624
0.00237749
0.00292363
0.00371481
0.00424629
0.000181297
0.00146813
-0.00234691
-0.00106367
0.00099648
0.0021335
0.00250047
0.00247266
0.00236731
0.00185291
0.00241124
0.00209896
0.00156759
0.00219362
0.00254246
0.00221415
0.00216491
0.00260609
0.0032787
0.00402365
0.000190914
0.00137779
-0.00221458
-0.001043
0.000991963
0.00214112
0.00235048
0.002348
0.00238382
0.00179671
0.00225275
0.00205687
0.00146673
0.00191848
0.00232603
0.00205276
0.00193566
0.0023058
0.0029828
0.00379896
0.000199673
0.0012936
-0.00208751
-0.00101833
0.00097314
0.00216004
0.00219859
0.00222495
0.00238163
0.00175772
0.0020725
0.00200226
0.00136906
0.00165275
0.00207683
0.00185865
0.00168087
0.00202627
0.00286002
0.00358856
0.000209438
0.0012046
-0.00196266
-0.000993378
0.000967911
0.00214748
0.00207933
0.00207025
0.00238032
0.00172355
0.00188467
0.00191792
0.00130874
0.00144772
0.00181641
0.00163457
0.00141557
0.00166006
0.0023518
0.00336041
0.000217256
0.00112636
-0.00184427
-0.000966514
0.000952015
0.00214222
0.00196827
0.00190806
0.00236594
0.00169323
0.00169071
0.00180594
0.00127457
0.00125149
0.00154063
0.00137705
0.00112261
0.00126885
0.00193458
0.00315618
0.000225026
0.00104943
-0.00173182
-0.000936708
0.000923464
0.00213937
0.00186059
0.00174722
0.00232973
0.00167168
0.00149195
0.00168067
0.00123248
0.00106645
0.0012466
0.00108775
0.000820846
0.00092354
0.00161461
0.00296646
0.000232427
0.000971659
-0.00162345
-0.00090746
0.00090505
0.00212903
0.00176226
0.00158213
0.00227129
0.00165456
0.00130287
0.00153194
0.0011706
0.000896229
0.000940609
0.000780326
0.00053881
0.000649926
0.00135192
0.0027694
0.000237965
0.000908225
-0.00152091
-0.000878963
0.000882418
0.00211353
0.00167259
0.00141373
0.00218982
0.00164355
0.00112814
0.00135134
0.00109019
0.000738207
0.000643603
0.000478432
0.000277695
0.000407545
0.0011184
0.00255637
0.000243411
0.000844405
-0.0014233
-0.000851603
0.000856727
0.00209314
0.00159318
0.00124233
0.00208588
0.00163642
0.000963043
0.0011468
0.00099054
0.000592379
0.000372621
0.000180712
1.24267e-05
0.000170912
0.000898303
0.00235101
0.000247687
0.000785475
-0.00132968
-0.000827661
0.000829677
0.00206963
0.00152116
0.00106828
0.00196171
0.00162638
0.000813156
0.000927095
0.000866126
0.000455797
0.000128551
-0.000116911
-0.000262806
-6.67161e-05
0.000692758
0.00216517
0.000250968
0.00073123
-0.00123993
-0.000807153
0.000801115
0.0020416
0.00145397
0.000895365
0.00181803
0.00160885
0.000683666
0.000697246
0.000714962
0.000323483
-9.42094e-05
-0.000409674
-0.000541666
-0.000307097
0.000491828
0.00199575
0.000253363
0.000681446
-0.00115342
-0.000790623
0.000768241
0.00200852
0.00139362
0.000727648
0.001655
0.00157953
0.000573593
0.000460795
0.000536721
0.000186342
-0.00029811
-0.000685887
-0.000818646
-0.000555075
0.000292969
0.00183861
0.00025506
0.000635515
-0.00107008
-0.000778398
0.000730752
0.00197199
0.00133873
0.000563904
0.00147333
0.00153633
0.000482836
0.000225972
0.000333369
3.63897e-05
-0.000482367
-0.000938537
-0.00109442
-0.000809969
8.67889e-05
0.00168169
0.000255876
0.00059377
-0.000989221
-0.000770788
0.000687472
0.00193154
0.00128772
0.000406031
0.00127603
0.00147566
0.000409517
-3.33644e-07
0.000107941
-0.000129775
-0.000651731
-0.00117027
-0.00136497
-0.00106767
-0.000130804
0.0015192
0.000256364
0.000555776
-0.000911342
-0.000766165
0.000636274
0.00188375
0.00124234
0.000260052
0.0010668
0.00139063
0.000346597
-0.000215933
-0.000134897
-0.000311599
-0.000817701
-0.00138424
-0.0016197
-0.00132175
-0.000359696
0.00134859
0.000255498
0.000522423
-0.000835924
-0.000764025
0.000576769
0.00182624
0.00120086
0.000126494
0.000848791
0.00128281
0.000292248
-0.000415482
-0.000388608
-0.000514169
-0.00098941
-0.00157694
-0.00185333
-0.00157238
-0.000599355
0.00116707
0.00025386
0.000492945
-0.000762347
-0.00076554
0.000507613
0.00176016
0.00116196
4.26897e-06
0.000626602
0.00115338
0.000242355
-0.000594948
-0.000650039
-0.000737803
-0.00116558
-0.00175284
-0.00207398
-0.00181884
-0.000837894
0.000981782
0.000253844
0.000463426
-0.000689929
-0.000768496
0.000431567
0.00168395
0.00111417
-0.000105532
0.000404218
0.00100142
0.000190565
-0.000753331
-0.000912693
-0.000976847
-0.0013531
-0.00192403
-0.00227829
-0.00205059
-0.00106714
0.000797708
0.000251227
0.000438926
-0.000617938
-0.000773429
0.000346026
0.00159157
0.0010661
-0.000202421
0.000183048
0.000827489
0.000132038
-0.000888941
-0.00116673
-0.00123056
-0.00155684
-0.00208878
-0.00246323
-0.00226715
-0.00128504
0.000611404
0.000248526
0.000417452
-0.000548542
-0.000779216
0.000248942
0.00148601
0.00101803
-0.000284198
-3.15273e-05
0.000633071
5.99932e-05
-0.00100405
-0.00141063
-0.00149773
-0.00177284
-0.00225674
-0.00263986
-0.00246721
-0.0014927
0.000425086
0.000245929
0.000396638
-0.000482118
-0.00078501
0.000141727
0.00136855
0.000972597
-0.000349525
-0.000238784
0.000417555
-3.37019e-05
-0.00110716
-0.00164005
-0.0017679
-0.00200413
-0.00243811
-0.0028024
-0.00264571
-0.00168868
0.000246717
0.000242051
0.00037733
-0.000419188
-0.000790442
2.96994e-05
0.00124205
0.000924263
-0.000405631
-0.00044215
0.000182979
-0.000150653
-0.0012007
-0.00184408
-0.00203373
-0.00225248
-0.00262645
-0.00295265
-0.00281114
-0.00186959
7.71587e-05
0.000238494
0.00035742
-0.000361433
-0.000792385
-8.44472e-05
0.0011022
0.000865843
-0.000455053
-0.000634053
-6.13103e-05
-0.000289305
-0.00128937
-0.00202614
-0.00229495
-0.00250973
-0.00282424
-0.0031079
-0.00296734
-0.00203214
-8.38059e-05
0.000234639
0.000336711
-0.000308966
-0.000789871
-0.000200601
0.00094797
0.000796026
-0.000496565
-0.000810225
-0.000311047
-0.000452637
-0.00138397
-0.00219251
-0.00254361
-0.00276786
-0.00303747
-0.00327015
-0.00310946
-0.00217784
-0.000235658
0.000230539
0.000315206
-0.000262499
-0.000783353
-0.000316748
0.000780863
0.000713459
-0.000532798
-0.000970982
-0.000563197
-0.000639342
-0.00148879
-0.00234412
-0.00277519
-0.00302407
-0.00326232
-0.00343606
-0.00324444
-0.00231492
-0.000380299
0.000226324
0.000292757
-0.000223271
-0.000773617
-0.000429758
0.000602863
0.000615688
-0.000567309
-0.00111639
-0.000813
-0.000845782
-0.00160672
-0.00248535
-0.00299206
-0.00327418
-0.0034915
-0.0036095
-0.00338325
-0.00244722
-0.000516337
0.000222028
0.000269207
-0.000192131
-0.00076144
-0.000537292
0.000415932
0.000500645
-0.000603967
-0.0012468
-0.00105566
-0.00106832
-0.00174117
-0.0026211
-0.00319514
-0.00351351
-0.00372172
-0.00379457
-0.0035281
-0.00257387
-0.000644864
0.000217612
0.000244416
-0.000169414
-0.000748153
-0.00063809
0.000222816
0.000367736
-0.00064627
-0.00136351
-0.00128783
-0.00130299
-0.00189413
-0.00275414
-0.00338444
-0.00374195
-0.0039524
-0.00398908
-0.00367737
-0.00269994
-0.000771686
0.000212959
0.000218473
-0.000155384
-0.00073541
-0.000731163
2.67933e-05
0.000217562
-0.000697967
-0.00146982
-0.00150739
-0.00154412
-0.00206541
-0.00288767
-0.00356206
-0.00396139
-0.00418039
-0.00418877
-0.00383546
-0.00283353
-0.000899239
0.000207946
0.000191474
-0.000150196
-0.000724785
-0.00081622
-0.000168895
5.14429e-05
-0.000762643
-0.00156889
-0.00171268
-0.00178567
-0.00225389
-0.00302693
-0.00373082
-0.00417099
-0.00440272
-0.00439416
-0.00400612
-0.0029748
-0.00102629
0.000202434
0.000163463
-0.000153772
-0.000717825
-0.000893658
-0.000361372
-0.000128844
-0.000842388
-0.00166307
-0.00190434
-0.00202317
-0.00245697
-0.00317669
-0.00389272
-0.00437094
-0.00462062
-0.00460418
-0.00418492
-0.00312171
-0.00115579
0.00019616
0.000134655
-0.000165764
-0.000716085
-0.000964218
-0.000548145
-0.00032065
-0.000938449
-0.00175594
-0.00208443
-0.00225342
-0.00267064
-0.00333971
-0.00405136
-0.00456309
-0.00483276
-0.00481324
-0.004369
-0.00327769
-0.00129203
0.000188895
0.000105062
-0.000185752
-0.000720634
-0.00102912
-0.000727373
-0.000520738
-0.00105158
-0.0018507
-0.00225496
-0.00247553
-0.00288987
-0.00351661
-0.00421113
-0.0047473
-0.00503653
-0.00502005
-0.00456009
-0.00344418
-0.00143473
0.000180335
7.48565e-05
-0.000212991
-0.000732564
-0.00109001
-0.000897612
-0.000725843
-0.00118188
-0.00195011
-0.00241808
-0.00268973
-0.00310903
-0.00370546
-0.00437509
-0.00492495
-0.00523361
-0.00522568
-0.00475637
-0.00361786
-0.00158326
0.000170188
4.39892e-05
-0.000246684
-0.000752501
-0.00114863
-0.00105818
-0.000932521
-0.00132815
-0.00205719
-0.00257555
-0.00289673
-0.00332516
-0.00390264
-0.00454577
-0.00510001
-0.00542599
-0.00542823
-0.0049539
-0.00379745
-0.0017397
0.000158213
1.24224e-05
-0.000286202
-0.000780601
-0.00120647
-0.00120953
-0.00113779
-0.00148812
-0.00217413
-0.00272865
-0.0030978
-0.00353795
-0.00410473
-0.00472475
-0.00527595
-0.00561453
-0.00562659
-0.00515204
-0.00398295
-0.00190312
0.000144087
-1.99838e-05
-0.000330563
-0.000816789
-0.00126519
-0.00135214
-0.0013395
-0.00165915
-0.0023023
-0.00287929
-0.00329331
-0.00374802
-0.00430966
-0.0049122
-0.00545527
-0.00580114
-0.00582198
-0.00535004
-0.00417101
-0.00207046
0.000127599
-5.33831e-05
-0.000379074
-0.000860674
-0.00132618
-0.00148689
-0.00153593
-0.0018381
-0.00244237
-0.00303054
-0.00348337
-0.00395585
-0.00451616
-0.00510683
-0.00563911
-0.00598723
-0.0060144
-0.00554531
-0.00435957
-0.00224279
0.000108522
-8.78883e-05
-0.000430978
-0.000911648
-0.00139076
-0.0016151
-0.00172587
-0.00202156
-0.00259308
-0.00318609
-0.0036695
-0.00416123
-0.00472328
-0.00530686
-0.00582819
-0.0061744
-0.00620468
-0.00573837
-0.00454963
-0.00242085
8.67809e-05
-0.000123862
-0.000485644
-0.000968669
-0.00145972
-0.00173811
-0.00190902
-0.00220734
-0.00275198
-0.00334835
-0.00385366
-0.00436311
-0.00492982
-0.00551088
-0.00602414
-0.00636593
-0.00639679
-0.00593237
-0.00474187
-0.00260334
6.22086e-05
-0.000161338
-0.000542627
-0.00103109
-0.00153308
-0.00185687
-0.00208563
-0.00239476
-0.00291628
-0.0035168
-0.004039
-0.00456199
-0.00513462
-0.00571686
-0.00622677
-0.00656405
-0.00659361
-0.00612893
-0.0049368
-0.00279119
3.47286e-05
-0.00020053
-0.000601391
-0.00109762
-0.00161093
-0.0019728
-0.00225528
-0.0025839
-0.00308476
-0.0036896
-0.00422918
-0.00476098
-0.00533817
-0.00592331
-0.0064341
-0.00676791
-0.00679465
-0.00632768
-0.00513379
-0.00298414
4.25135e-06
-0.000241579
-0.000661849
-0.00116738
-0.00169242
-0.00208647
-0.00241664
-0.00277363
-0.00325769
-0.00386357
-0.0044246
-0.00496418
-0.0055441
-0.00613165
-0.00664678
-0.00697989
-0.00700367
-0.0065331
-0.00533586
-0.00318141
-2.92486e-05
-0.000284278
-0.000723525
-0.00123984
-0.00177781
-0.00220022
-0.00257042
-0.00296146
-0.00343541
-0.00403524
-0.00461887
-0.00516885
-0.00575098
-0.00633898
-0.00686052
-0.00719964
-0.00722454
-0.006752
-0.00555137
-0.00339271
-6.59739e-05
-0.000328705
-0.000785647
-0.00131286
-0.00186443
-0.00231611
-0.00271999
-0.00314717
-0.00362207
-0.00420957
-0.00481226
-0.00537528
-0.00595926
-0.00654597
-0.00707221
-0.00741966
-0.00745093
-0.00697995
-0.00577707
-0.00361505
-0.000105955
-0.00037496
-0.000848533
-0.00138616
-0.00194982
-0.00243066
-0.00286573
-0.00332834
-0.00381582
-0.00438838
-0.00500468
-0.00558544
-0.00617355
-0.00676038
-0.00729023
-0.00764599
-0.00768603
-0.00722092
-0.00601765
-0.00384982
-0.00014938
-0.000423009
-0.000910304
-0.00145746
-0.00203223
-0.00254327
-0.00300953
-0.0035043
-0.00401278
-0.00457141
-0.00519261
-0.0057924
-0.00638766
-0.00697705
-0.00751002
-0.00787443
-0.00792349
-0.00746811
-0.00627385
-0.0041134
-0.00019758
-0.000475297
-0.000974032
-0.00152531
-0.00210688
-0.00264863
-0.0031515
-0.0036739
-0.00420631
-0.00475797
-0.0053749
-0.0059928
-0.00660153
-0.00719908
-0.00773666
-0.00810952
-0.00816854
-0.00772264
-0.00653686
-0.00438551
-0.000244974
-0.000529481
-0.00104135
-0.00160332
-0.00219132
-0.00276463
-0.00330632
-0.00384719
-0.00439435
-0.00494217
-0.00555138
-0.00618367
-0.00681281
-0.00742666
-0.00797484
-0.00836023
-0.00843365
-0.00799977
-0.00682091
-0.00466916
-0.000306974
-0.000549435
-0.00105979
-0.00163558
-0.00226781
-0.00290302
-0.00349682
-0.0040499
-0.00459121
-0.00512973
-0.00572777
-0.0063667
-0.00701615
-0.00764981
-0.00821659
-0.00862563
-0.00872863
-0.00832209
-0.00715757
-0.00500631
-0.00041619
-0.000686651
-0.00110898
-0.00162563
-0.00222779
-0.00296144
-0.00366092
-0.00423101
-0.00476214
-0.00529725
-0.00588699
-0.0065308
-0.00719539
-0.00785167
-0.00844704
-0.00889386
-0.00904307
-0.00868983
-0.00757497
-0.00546635
-0.000370941
-0.000613282
-0.00117998
-0.00180748
-0.00247761
-0.00316726
-0.00381973
-0.00437712
-0.00489845
-0.00542983
-0.00601521
-0.00665101
-0.00730734
-0.00795266
-0.00854135
-0.00899489
-0.00918482
-0.00890072
-0.00789242
-0.00591729
-0.000471702
-0.000712199
-0.00127566
-0.00183304
-0.00247019
-0.00321657
-0.00393356
-0.00451468
-0.00508041
-0.005638
-0.00626017
-0.00691341
-0.00759614
-0.00823784
-0.00878597
-0.00914785
-0.00922008
-0.0088386
-0.00777398
-0.00577083
-0.000377884
-0.000752855
-0.00135945
-0.00202188
-0.0027012
-0.00336245
-0.00396738
-0.00446561
-0.00498109
-0.00555109
-0.00617352
-0.00683591
-0.00754538
-0.00831244
-0.00913068
-0.00989732
-0.0104261
-0.010468
-0.00974524
-0.00801677
-0.000203113
-0.000897801
-0.00155909
-0.00224175
-0.00285965
-0.00359674
-0.00429772
-0.00480896
-0.00531577
-0.00594975
-0.00664053
-0.00727703
-0.00767539
-0.0077106
-0.00732544
-0.00661257
-0.00575943
-0.00507421
-0.00493095
-0.00566814
-0.00026194
-0.000907503
-0.00162068
-0.00224683
-0.00278335
-0.00330932
-0.00379837
-0.00431475
-0.00492345
-0.00564847
-0.00646569
-0.00737262
-0.0083693
-0.0094476
-0.0105478
-0.0115665
-0.0123352
-0.0126207
-0.0121416
-0.0106497
-0.000126373
-0.000987756
-0.00171342
-0.0023469
-0.00288425
-0.00355433
-0.00429636
-0.00505656
-0.005738
-0.00625012
-0.00677387
-0.00742319
-0.00803589
-0.00843018
-0.00846054
-0.0081178
-0.00754306
-0.00704334
-0.0070107
-0.00780412
-0.000164896
-0.00103512
-0.00177513
-0.00234133
-0.00274228
-0.00313357
-0.0034572
-0.00391693
-0.00459312
-0.00554004
-0.00674297
-0.00823619
-0.00994913
-0.011732
-0.0133808
-0.0147388
-0.0156357
-0.0158781
-0.0152353
-0.0135077
0.0201091
0.00245314
-0.0045635
-0.00439977
-0.00343524
-0.00316327
-0.00341357
-0.00378733
-0.00383659
-0.00350334
-0.00318634
-0.00310296
-0.00302665
-0.00282554
-0.00267635
-0.00263256
-0.00251081
-0.00227973
-0.00218346
-0.00239263
-0.00252756
-0.00233
-0.00205265
-0.00186251
-0.00169971
-0.00154228
-0.00138635
-0.00122457
-0.00108321
-0.000915124
-0.000719709
-0.000489765
-0.000276863
-5.09308e-05
0.000153243
0.000401524
0.000662369
0.000939347
0.00120798
0.00145146
0.00173126
0.00195653
0.00226018
0.00248374
0.00276029
0.00302908
0.00323414
0.00360095
0.00389471
0.00422767
0.019605
0.00250423
-0.0045234
-0.00438237
-0.00342481
-0.00315633
-0.00340872
-0.0037839
-0.00383413
-0.00350138
-0.00318459
-0.00310139
-0.00302528
-0.00282427
-0.00267513
-0.00263143
-0.00250982
-0.00227884
-0.00218262
-0.00239187
-0.00252694
-0.00232946
-0.00205215
-0.00186205
-0.00169929
-0.00154191
-0.00138602
-0.00122427
-0.00108293
-0.000914867
-0.000719474
-0.000489548
-0.000276659
-5.07416e-05
0.00015342
0.000401686
0.00066252
0.000939487
0.00120811
0.00145158
0.00173137
0.00195663
0.00226028
0.00248384
0.00276038
0.00302917
0.00323422
0.00360102
0.00389477
0.00422773
0.0191354
0.00260446
-0.00445676
-0.00436158
-0.00341382
-0.00314891
-0.00340368
-0.00378047
-0.00383174
-0.0034995
-0.00318296
-0.00309998
-0.00302408
-0.00282316
-0.00267406
-0.00263044
-0.00250894
-0.00227802
-0.00218183
-0.00239121
-0.00252643
-0.002329
-0.00205169
-0.00186163
-0.00169892
-0.00154157
-0.00138572
-0.00122399
-0.00108268
-0.000914642
-0.000719267
-0.000489356
-0.000276479
-5.05738e-05
0.000153576
0.000401828
0.000662654
0.000939611
0.00120823
0.00145169
0.00173148
0.00195673
0.00226037
0.00248392
0.00276045
0.00302924
0.00323428
0.00360108
0.00389483
0.0042278
0.0187142
0.00274174
-0.00435867
-0.00433267
-0.00340001
-0.00313944
-0.00339714
-0.00377595
-0.00382862
-0.00349726
-0.00318118
-0.00309852
-0.00302286
-0.00282206
-0.00267302
-0.0026295
-0.00250807
-0.00227718
-0.002181
-0.00239053
-0.00252595
-0.00232854
-0.00205121
-0.00186121
-0.00169855
-0.00154124
-0.00138541
-0.00122372
-0.00108243
-0.000914419
-0.000719061
-0.000489164
-0.0002763
-5.04075e-05
0.000153729
0.000401968
0.000662786
0.000939735
0.00120835
0.0014518
0.00173158
0.00195682
0.00226046
0.00248401
0.00276053
0.00302931
0.00323435
0.00360114
0.00389488
0.00422789
0.0182997
0.0028947
-0.00423742
-0.00429591
-0.00338262
-0.00312705
-0.00338814
-0.00376928
-0.0038239
-0.00349416
-0.00317903
-0.00309681
-0.00302146
-0.00282091
-0.002672
-0.00262855
-0.00250716
-0.00227624
-0.00218007
-0.00238979
-0.00252544
-0.00232804
-0.00205069
-0.00186075
-0.00169814
-0.00154087
-0.00138509
-0.00122342
-0.00108217
-0.000914183
-0.000718843
-0.000488961
-0.00027611
-5.02314e-05
0.00015389
0.000402115
0.000662926
0.000939865
0.00120847
0.00145191
0.00173169
0.00195692
0.00226055
0.00248409
0.00276061
0.00302939
0.00323441
0.0036012
0.00389494
0.004228
0.0178748
0.00305234
-0.00410369
-0.00425493
-0.00336278
-0.00311208
-0.00337665
-0.00376007
-0.00381701
-0.00348982
-0.00317634
-0.00309473
-0.00301975
-0.00281963
-0.002671
-0.00262764
-0.00250621
-0.00227523
-0.00217902
-0.00238893
-0.00252485
-0.00232748
-0.00205011
-0.00186023
-0.00169769
-0.00154046
-0.00138472
-0.00122309
-0.00108188
-0.000913927
-0.000718607
-0.000488741
-0.000275906
-5.00438e-05
0.000154061
0.000402271
0.000663074
0.000940005
0.0012086
0.00145203
0.0017318
0.00195702
0.00226065
0.00248419
0.0027607
0.00302948
0.00323448
0.00360127
0.00389499
0.00422814
0.0174398
0.00321112
-0.00396288
-0.00421227
-0.00334181
-0.00309542
-0.00336326
-0.00374857
-0.00380788
-0.00348405
-0.00317298
-0.00309216
-0.00301758
-0.00281809
-0.00266998
-0.00262679
-0.0025053
-0.0022742
-0.00217786
-0.00238791
-0.00252411
-0.00232681
-0.00204946
-0.00185966
-0.00169719
-0.00154
-0.0013843
-0.00122272
-0.00108156
-0.000913645
-0.000718348
-0.000488502
-0.000275686
-4.98426e-05
0.000154244
0.000402438
0.000663232
0.000940153
0.00120874
0.00145216
0.00173192
0.00195713
0.00226076
0.00248428
0.00276079
0.00302956
0.00323456
0.00360134
0.00389505
0.00422832
0.0169978
0.00336986
-0.0038165
-0.00416878
-0.00332048
-0.00307782
-0.00334874
-0.0037355
-0.00379688
-0.00347692
-0.00316893
-0.00308908
-0.00301487
-0.00281617
-0.0026688
-0.00262593
-0.00250447
-0.00227324
-0.00217666
-0.00238672
-0.00252317
-0.00232598
-0.0020487
-0.00185903
-0.00169662
-0.00153947
-0.00138382
-0.00122229
-0.00108118
-0.000913325
-0.000718057
-0.000488235
-0.000275444
-4.96235e-05
0.000154441
0.000402616
0.0006634
0.000940311
0.00120889
0.00145229
0.00173205
0.00195725
0.00226087
0.00248439
0.00276088
0.00302966
0.00323463
0.00360141
0.00389511
0.00422853
0.0165508
0.00352784
-0.00366429
-0.00412443
-0.00329915
-0.00305966
-0.00333355
-0.00372152
-0.0037846
-0.00346871
-0.00316429
-0.00308555
-0.00301165
-0.0028138
-0.00266731
-0.00262496
-0.00250371
-0.00227246
-0.00217553
-0.00238538
-0.00252197
-0.00232491
-0.00204781
-0.00185832
-0.00169599
-0.00153887
-0.00138326
-0.00122178
-0.00108075
-0.000912952
-0.000717724
-0.000487933
-0.000275171
-4.93798e-05
0.000154656
0.00040281
0.000663582
0.000940482
0.00120906
0.00145244
0.00173219
0.00195737
0.00226099
0.0024845
0.00276099
0.00302976
0.00323472
0.00360149
0.00389519
0.00422878
0.0160995
0.00368452
-0.00350546
-0.00407883
-0.00327793
-0.0030411
-0.00331788
-0.00370698
-0.00377152
-0.00345971
-0.00315917
-0.00308169
-0.00300804
-0.002811
-0.00266543
-0.00262372
-0.00250296
-0.00227193
-0.00217462
-0.00238401
-0.00252051
-0.00232355
-0.00204672
-0.00185751
-0.0016953
-0.0015382
-0.00138262
-0.00122118
-0.00108022
-0.000912504
-0.000717335
-0.000487584
-0.000274856
-4.91017e-05
0.000154896
0.000403022
0.000663779
0.000940666
0.00120923
0.0014526
0.00173233
0.00195751
0.00226112
0.00248462
0.00276109
0.00302987
0.0032348
0.00360157
0.00389528
0.00422908
0.0156446
0.00383938
-0.00333934
-0.0040316
-0.00325691
-0.0030222
-0.00330175
-0.00369202
-0.0037579
-0.00345014
-0.00315368
-0.00307759
-0.00300417
-0.00280787
-0.00266317
-0.00262215