/*--------------------------------*- C++ -*----------------------------------*\
| =========                 |                                                 |
| \\      /  F ield         | OpenFOAM: The Open Source CFD Toolbox           |
|  \\    /   O peration     | Version:  v2012                                 |
|   \\  /    A nd           | Website:  www.openfoam.com                      |
|    \\/     M anipulation  |                                                 |
\*---------------------------------------------------------------------------*/
FoamFile
{
    version     2.0;
    format      ascii;
    class       surfaceScalarField;
    location    "7";
    object      phi;
}
// * * * * * * * * * * * * * * * * * * * * * * * * * * * * * * * * * * * * * //

dimensions      [0 3 -1 0 0 0 0];
oriented        oriented;


internalField   nonuniform List<scalar> 
13830
(
9.48027e-07
-1.89747e-07
8.63435e-07
-4.21471e-07
1.02894e-06
1.20581e-06
8.395e-07
1.29647e-06
8.78225e-07
-1.26245e-06
9.73005e-07
4.09134e-07
8.73256e-07
-6.4776e-09
9.29257e-07
3.58393e-07
9.53292e-07
-3.41042e-08
9.40205e-07
1.40253e-07
9.44288e-07
5.3088e-07
9.24371e-07
2.89012e-07
9.30734e-07
5.7525e-07
9.18166e-07
3.13756e-07
9.25332e-07
3.60931e-07
9.16059e-07
1.37028e-07
9.21316e-07
1.68571e-07
9.15172e-07
4.55392e-08
9.1571e-07
6.68695e-08
-9.96876e-09
8.99143e-07
9.84449e-07
-2.01664e-07
8.95552e-07
-3.32573e-07
1.06862e-06
1.03274e-06
8.91414e-07
1.47367e-06
9.3033e-07
-1.30136e-06
1.023e-06
3.16466e-07
9.21698e-07
9.48233e-08
9.72373e-07
3.07718e-07
9.94425e-07
-5.61565e-08
9.79988e-07
1.5469e-07
9.81195e-07
5.29673e-07
9.62832e-07
3.07376e-07
9.62095e-07
5.75986e-07
9.5778e-07
3.18072e-07
9.55858e-07
3.62853e-07
9.5749e-07
1.35396e-07
9.51487e-07
1.74574e-07
9.58182e-07
3.88442e-08
9.44702e-07
8.03495e-08
-1.364e-08
9.48373e-07
1.02172e-06
-2.13931e-07
9.33651e-07
-2.44503e-07
1.10403e-06
8.62354e-07
9.57936e-07
1.61977e-06
9.87163e-07
-1.33059e-06
1.08322e-06
2.2041e-07
9.80803e-07
1.97239e-07
1.02038e-06
2.68145e-07
1.03819e-06
-7.39736e-08
1.0286e-06
1.64286e-07
1.02033e-06
5.37945e-07
1.00952e-06
3.18184e-07
9.97688e-07
5.87815e-07
1.00234e-06
3.13419e-07
9.93127e-07
3.72067e-07
1.00097e-06
1.27554e-07
9.91299e-07
1.84244e-07
9.99435e-07
3.07082e-08
9.87366e-07
9.24182e-08
-1.41829e-08
9.87909e-07
1.05999e-06
-2.26146e-07
9.76671e-07
-1.61183e-07
1.13829e-06
7.00736e-07
1.03205e-06
1.72601e-06
1.04478e-06
-1.34332e-06
1.14324e-06
1.21953e-07
1.04479e-06
2.95694e-07
1.06876e-06
2.44171e-07
1.08e-06
-8.52157e-08
1.07827e-06
1.66019e-07
1.06458e-06
5.51636e-07
1.05841e-06
3.24354e-07
1.04273e-06
6.03489e-07
1.04782e-06
3.0833e-07
1.03872e-06
3.81166e-07
1.0447e-06
1.21579e-07
1.03668e-06
1.92267e-07
1.04139e-06
2.59961e-08
1.03216e-06
1.01646e-07
-1.13868e-08
1.02937e-06
1.09913e-06
-2.37725e-07
1.02483e-06
-8.68832e-08
1.17075e-06
5.54818e-07
1.1059e-06
1.79087e-06
1.0979e-06
-1.33533e-06
1.19405e-06
2.58038e-08
1.10852e-06
3.81233e-07
1.11447e-06
2.38216e-07
1.11856e-06
-8.93038e-08
1.12356e-06
1.61014e-07
1.11163e-06
5.63573e-07
1.1066e-06
3.29381e-07
1.09301e-06
6.17079e-07
1.09424e-06
3.07095e-07
1.08647e-06
3.88939e-07
1.08883e-06
1.19216e-07
1.0816e-06
1.995e-07
1.08327e-06
2.43296e-08
1.07521e-06
1.097e-07
-6.45137e-09
1.07028e-06
1.13921e-06
-2.48095e-07
1.07754e-06
-2.52127e-08
1.20119e-06
4.31173e-07
1.1717e-06
1.82036e-06
1.14391e-06
-1.30754e-06
1.23146e-06
-6.17464e-08
1.16805e-06
4.44639e-07
1.15756e-06
2.4871e-07
1.15508e-06
-8.68297e-08
1.16368e-06
1.52418e-07
1.15758e-06
5.69675e-07
1.15287e-06
3.34093e-07
1.14252e-06
6.27428e-07
1.14029e-06
3.0932e-07
1.13254e-06
3.96692e-07
1.13233e-06
1.19424e-07
1.12483e-06
2.07e-07
1.12456e-06
2.46022e-08
1.11703e-06
1.17225e-07
-4.21085e-10
1.111e-06
1.18052e-06
-2.5692e-07
1.1334e-06
2.1913e-08
1.23026e-06
3.34313e-07
1.22577e-06
1.82485e-06
1.18404e-06
-1.26581e-06
1.25752e-06
-1.35227e-07
1.22073e-06
4.81432e-07
1.19961e-06
2.69829e-07
1.19145e-06
-7.86763e-08
1.20069e-06
1.43183e-07
1.20015e-06
5.70216e-07
1.1966e-06
3.37645e-07
1.18864e-06
6.3539e-07
1.18501e-06
3.12946e-07
1.17686e-06
4.04845e-07
1.1755e-06
1.2078e-07
1.16782e-06
2.14683e-07
1.16645e-06
2.59724e-08
1.15957e-06
1.24103e-07
6.03285e-09
1.15312e-06
1.22351e-06
-2.64245e-07
1.19068e-06
5.47436e-08
1.2595e-06
2.65492e-07
1.26954e-06
1.81481e-06
1.2219e-06
-1.21818e-06
1.27818e-06
-1.91506e-07
1.26583e-06
4.93777e-07
1.24207e-06
2.93593e-07
1.22927e-06
-6.58797e-08
1.23703e-06
1.35422e-07
1.2397e-06
5.67547e-07
1.238e-06
3.39344e-07
1.23192e-06
6.41479e-07
1.22881e-06
3.16056e-07
1.22091e-06
4.12746e-07
1.21948e-06
1.22205e-07
1.21225e-06
2.21917e-07
1.21023e-06
2.7985e-08
1.20431e-06
1.30026e-07
1.2598e-08
1.19775e-06
1.26857e-06
-2.70459e-07
1.24799e-06
7.53251e-08
1.29087e-06
2.22606e-07
1.3076e-06
1.79808e-06
1.26097e-06
-1.17155e-06
1.29987e-06
-2.30406e-07
1.30519e-06
4.88458e-07
1.28572e-06
3.13063e-07
1.26972e-06
-4.98793e-08
1.27464e-06
1.30503e-07
1.27817e-06
5.64021e-07
1.2782e-06
3.39313e-07
1.27401e-06
6.45663e-07
1.27271e-06
3.17356e-07
1.26599e-06
4.19467e-07
1.26511e-06
1.23086e-07
1.25897e-06
2.28059e-07
1.25646e-06
3.05001e-08
1.25173e-06
1.34755e-07
1.91765e-08
1.24515e-06
1.3159e-06
-2.76078e-07
1.30464e-06
8.65812e-08
1.3261e-06
2.01152e-07
1.34487e-06
1.77931e-06
1.30321e-06
-1.1299e-06
1.32725e-06
-2.5444e-07
1.34246e-06
4.73248e-07
1.33091e-06
3.24611e-07
1.31344e-06
-3.24086e-08
1.31488e-06
1.29063e-07
1.31768e-06
5.61215e-07
1.31883e-06
3.38168e-07
1.31655e-06
6.47942e-07
1.31769e-06
3.16218e-07
1.31283e-06
4.24319e-07
1.31269e-06
1.23231e-07
1.3081e-06
2.32647e-07
1.30505e-06
3.3557e-08
1.3016e-06
1.38197e-07
2.57466e-08
1.29503e-06
1.36544e-06
-2.81498e-07
1.36064e-06
9.13832e-08
1.36611e-06
1.95684e-07
1.38484e-06
1.76057e-06
1.34912e-06
-1.09418e-06
1.36239e-06
-2.67705e-07
1.38143e-06
4.54202e-07
1.37791e-06
3.28131e-07
1.36048e-06
-1.49804e-08
1.35858e-06
1.30967e-07
1.35991e-06
5.5989e-07
1.36157e-06
3.365e-07
1.36088e-06
6.48636e-07
1.36446e-06
3.12642e-07
1.36181e-06
4.26962e-07
1.36225e-06
1.22796e-07
1.35946e-06
2.35435e-07
1.35577e-06
3.72414e-08
1.35356e-06
1.40415e-07
3.22994e-08
1.347e-06
1.41699e-06
-2.86834e-07
1.41639e-06
9.19835e-08
1.41098e-06
2.01089e-07
1.42913e-06
1.74243e-06
1.39848e-06
-1.06353e-06
1.4052e-06
-2.74422e-07
1.42458e-06
4.34819e-07
1.42708e-06
3.25632e-07
1.41056e-06
1.53797e-09
1.40607e-06
1.35462e-07
1.40579e-06
5.60169e-07
1.40771e-06
3.34578e-07
1.4081e-06
6.48246e-07
1.41361e-06
3.07137e-07
1.41324e-06
4.27332e-07
1.41383e-06
1.22199e-07
1.41288e-06
2.36386e-07
1.40848e-06
4.1643e-08
1.40732e-06
1.41575e-07
3.8821e-08
1.4008e-06
1.47033e-06
-2.91915e-07
1.47243e-06
8.98842e-08
1.46024e-06
2.13278e-07
1.47801e-06
1.72466e-06
1.45091e-06
-1.03643e-06
1.45432e-06
-2.77839e-07
1.47258e-06
4.16561e-07
1.47868e-06
3.19533e-07
1.46329e-06
1.69266e-08
1.45724e-06
1.4151e-07
1.45564e-06
5.61774e-07
1.45787e-06
3.32344e-07
1.45895e-06
6.47163e-07
1.46556e-06
3.0053e-07
1.46737e-06
4.25528e-07
1.46757e-06
1.21992e-07
1.46834e-06
2.3562e-07
1.46315e-06
4.68277e-08
1.46282e-06
1.41912e-07
4.5296e-08
1.45634e-06
1.52533e-06
-2.96376e-07
1.52922e-06
8.60013e-08
1.51323e-06
2.29264e-07
1.53117e-06
1.70673e-06
1.50609e-06
-1.01135e-06
1.5081e-06
-2.79855e-07
1.52489e-06
3.9978e-07
1.53278e-06
3.11639e-07
1.51839e-06
3.1314e-08
1.51181e-06
1.48088e-07
1.50933e-06
5.64257e-07
1.51211e-06
3.2957e-07
1.51378e-06
6.4549e-07
1.52055e-06
2.93758e-07
1.52432e-06
4.21755e-07
1.52362e-06
1.22694e-07
1.52584e-06
2.33402e-07
1.51986e-06
5.28062e-08
1.52008e-06
1.41697e-07
5.17056e-08
1.51367e-06
1.58203e-06
-2.99795e-07
1.58711e-06
8.09223e-08
1.56948e-06
2.46893e-07
1.58825e-06
1.68795e-06
1.5638e-06
-9.86902e-07
1.56518e-06
-2.81233e-07
1.58055e-06
3.84408e-07
1.58927e-06
3.02921e-07
1.5757e-06
4.48851e-08
1.56945e-06
1.54338e-07
1.56655e-06
5.67156e-07
1.57008e-06
3.26037e-07
1.57255e-06
6.43027e-07
1.5786e-06
2.87709e-07
1.58407e-06
4.16276e-07
1.58207e-06
1.24694e-07
1.58539e-06
2.30081e-07
1.57869e-06
5.95137e-08
1.57919e-06
1.41195e-07
5.80292e-08
1.57287e-06
1.64054e-06
-3.01795e-07
1.64636e-06
7.51014e-08
1.62874e-06
2.64514e-07
1.64907e-06
1.66763e-06
1.62391e-06
-9.61745e-07
1.62472e-06
-2.82044e-07
1.63885e-06
3.7028e-07
1.64801e-06
2.93762e-07
1.63513e-06
5.77701e-08
1.62986e-06
1.59605e-07
1.62695e-06
5.7006e-07
1.63132e-06
3.21673e-07
1.63498e-06
6.39361e-07
1.63959e-06
2.83103e-07
1.64646e-06
4.09404e-07
1.64295e-06
1.2821e-07
1.647e-06
2.26034e-07
1.63969e-06
6.68188e-08
1.64025e-06
1.40631e-07
6.42451e-08
1.63404e-06
1.70106e-06
-3.0211e-07
1.70724e-06
6.89294e-08
1.69098e-06
2.80772e-07
1.7135e-06
1.64511e-06
1.68635e-06
-9.34603e-07
1.6864e-06
-2.82094e-07
1.69947e-06
3.57208e-07
1.70895e-06
2.84285e-07
1.69664e-06
7.00841e-08
1.69279e-06
1.6345e-07
1.69025e-06
5.72607e-07
1.6953e-06
3.1662e-07
1.70065e-06
6.34006e-07
1.70336e-06
2.80397e-07
1.7113e-06
4.0146e-07
1.70625e-06
1.33265e-07
1.71065e-06
2.21633e-07
1.70293e-06
7.45371e-08
1.70338e-06
1.40181e-07
7.03328e-08
1.69729e-06
1.76379e-06
-3.00586e-07
1.77002e-06
6.27039e-08
1.7562e-06
2.94592e-07
1.78138e-06
1.61993e-06
1.75116e-06
-9.04389e-07
1.75026e-06
-2.81191e-07
1.76246e-06
3.45004e-07
1.77219e-06
2.74562e-07
1.76028e-06
8.19912e-08
1.75805e-06
1.65679e-07
1.7562e-06
5.7446e-07
1.76158e-06
3.11238e-07
1.76903e-06
6.26554e-07
1.76968e-06
2.79751e-07
1.77841e-06
3.92727e-07
1.77197e-06
1.39709e-07
1.77639e-06
2.17211e-07
1.76847e-06
8.246e-08
1.76869e-06
1.39962e-07
7.62753e-08
1.76274e-06
1.82892e-06
-2.97172e-07
1.83505e-06
5.65755e-08
1.82439e-06
3.05252e-07
1.85243e-06
1.59189e-06
1.81846e-06
-8.70415e-07
1.81652e-06
-2.79254e-07
1.82803e-06
3.33492e-07
1.83791e-06
2.64685e-07
1.82621e-06
9.36955e-08
1.82551e-06
1.66378e-07
1.82467e-06
5.75294e-07
1.82986e-06
3.06047e-07
1.83963e-06
6.16786e-07
1.83835e-06
2.81032e-07
1.84767e-06
3.83407e-07
1.84013e-06
1.47249e-07
1.84431e-06
2.13027e-07
1.83638e-06
9.03891e-08
1.83631e-06
1.40032e-07
8.20608e-08
1.83053e-06
1.89664e-06
-2.91909e-07
1.90267e-06
5.05422e-08
1.89545e-06
3.12475e-07
1.9263e-06
1.56104e-06
1.8884e-06
-8.32509e-07
1.88544e-06
-2.76301e-07
1.89638e-06
3.2255e-07
1.90632e-06
2.54751e-07
1.89466e-06
1.0535e-07
1.89515e-06
1.65893e-07
1.89562e-06
5.74821e-07
1.90006e-06
3.01607e-07
1.91212e-06
6.0473e-07
1.90925e-06
2.83902e-07
1.91903e-06
3.73622e-07
1.91078e-06
1.55507e-07
1.91455e-06
2.09256e-07
1.90678e-06
9.81528e-08
1.90641e-06
1.40401e-07
8.76799e-08
1.90079e-06
1.96712e-06
-2.84925e-07
1.97315e-06
4.4517e-08
1.9692e-06
3.16417e-07
2.00265e-06
1.52759e-06
1.96113e-06
-7.90982e-07
1.95722e-06
-2.72394e-07
1.96763e-06
3.1214e-07
1.97752e-06
2.44855e-07
1.96593e-06
1.16946e-07
1.96709e-06
1.64734e-07
1.96909e-06
5.72813e-07
1.9723e-06
2.984e-07
1.98641e-06
5.90617e-07
1.98238e-06
2.8794e-07
1.99254e-06
3.63456e-07
1.98397e-06
1.64077e-07
1.98724e-06
2.05987e-07
1.97977e-06
1.05627e-07
1.97914e-06
1.41035e-07
9.31207e-08
1.9737e-06
2.04056e-06
-2.7644e-07
2.04665e-06
3.84287e-08
2.04551e-06
3.17558e-07
2.08127e-06
1.49183e-06
2.03676e-06
-7.46466e-07
2.03197e-06
-2.67606e-07
2.0418e-06
3.02305e-07
2.05154e-06
2.35122e-07
2.04022e-06
1.28265e-07
2.04151e-06
1.63445e-07
2.04519e-06
5.69135e-07
2.04686e-06
2.96729e-07
2.06268e-06
5.74796e-07
2.05787e-06
2.9275e-07
2.06831e-06
3.53012e-07
2.05982e-06
1.72573e-07
2.06255e-06
2.0325e-07
2.05545e-06
1.12727e-07
2.05461e-06
1.41878e-07
9.83639e-08
2.04936e-06
2.11714e-06
-2.66745e-07
2.12328e-06
3.22921e-08
2.12431e-06
3.16534e-07
2.16212e-06
1.45401e-06
2.11537e-06
-6.9972e-07
2.1098e-06
-2.62031e-07
2.11896e-06
2.93143e-07
2.12831e-06
2.2577e-07
2.11766e-06
1.3892e-07
2.11861e-06
1.62495e-07
2.12402e-06
5.63723e-07
2.12406e-06
2.96692e-07
2.14121e-06
5.57644e-07
2.13594e-06
2.98014e-07
2.14651e-06
3.42449e-07
2.1384e-06
1.80683e-07
2.14061e-06
2.01038e-07
2.13391e-06
1.19425e-07
2.13293e-06
1.42857e-07
1.03383e-07
2.12791e-06
2.197e-06
-2.56157e-07
2.20308e-06
2.62087e-08
2.20563e-06
3.13983e-07
2.24528e-06
1.41436e-06
2.19706e-06
-6.51498e-07
2.19083e-06
-2.55802e-07
2.19922e-06
2.84754e-07
2.20783e-06
2.17157e-07
2.19828e-06
1.48475e-07
2.19856e-06
1.62217e-07
2.20573e-06
5.56553e-07
2.20421e-06
2.98206e-07
2.22234e-06
5.3952e-07
2.21687e-06
3.03478e-07
2.22733e-06
3.31993e-07
2.21983e-06
1.88179e-07
2.22152e-06
1.99354e-07
2.21522e-06
1.25723e-07
2.21419e-06
1.43881e-07
1.08152e-07
2.20943e-06
2.28021e-06
-2.44973e-07
2.2861e-06
2.03173e-08
2.28962e-06
3.10464e-07
2.3309e-06
1.37307e-06
2.28191e-06
-6.02505e-07
2.27521e-06
-2.49098e-07
2.28277e-06
2.77187e-07
2.29018e-06
2.09754e-07
2.28208e-06
1.56571e-07
2.28153e-06
1.62763e-07
2.29043e-06
5.47655e-07
2.28758e-06
3.0106e-07
2.30634e-06
5.20761e-07
2.30089e-06
3.08923e-07
2.311e-06
3.21882e-07
2.30424e-06
1.94941e-07
2.30538e-06
1.98214e-07
2.29939e-06
1.31711e-07
2.29849e-06
1.44786e-07
1.12656e-07
2.29398e-06
2.36685e-06
-2.33437e-07
2.37243e-06
1.47414e-08
2.37644e-06
3.06447e-07
2.41913e-06
1.33039e-06
2.37003e-06
-5.53409e-07
2.36304e-06
-2.4211e-07
2.36984e-06
2.70396e-07
2.37551e-06
2.04075e-07
2.36909e-06
1.62998e-07
2.36768e-06
1.64171e-07
2.37823e-06
5.37107e-07
2.37434e-06
3.04942e-07
2.39341e-06
5.01695e-07
2.38818e-06
3.1415e-07
2.39771e-06
3.12353e-07
2.39179e-06
2.00861e-07
2.39217e-06
1.97837e-07
2.38636e-06
1.37523e-07
2.3859e-06
1.45243e-07
1.16891e-07
2.38167e-06
2.45699e-06
-2.21751e-07
2.46217e-06
9.56759e-09
2.46627e-06
3.02342e-07
2.5101e-06
1.28656e-06
2.46154e-06
-5.0485e-07
2.45442e-06
-2.34985e-07
2.4606e-06
2.64211e-07
2.46411e-06
2.00566e-07
2.45935e-06
1.67757e-07
2.45714e-06
1.66376e-07
2.46917e-06
5.25084e-07
2.46465e-06
3.09456e-07
2.4837e-06
4.82651e-07
2.47894e-06
3.18911e-07
2.48756e-06
3.03729e-07
2.48269e-06
2.05735e-07
2.4814e-06
1.99119e-07
2.47593e-06
1.42999e-07
2.47656e-06
1.4461e-07
1.20855e-07
2.4726e-06
2.55073e-06
-2.10085e-07
2.55545e-06
4.8519e-09
2.55926e-06
2.9853e-07
2.60396e-06
1.24186e-06
2.55654e-06
-4.57427e-07
2.54932e-06
-2.27768e-07
2.55519e-06
2.58339e-07
2.55626e-06
1.99497e-07
2.553e-06
1.71021e-07
2.55009e-06
1.69283e-07
2.56332e-06
5.11853e-07
2.55859e-06
3.1419e-07
2.57731e-06
4.63935e-07
2.57319e-06
3.23031e-07
2.58068e-06
2.96237e-07
2.57709e-06
2.09325e-07
2.57945e-06
1.96756e-07
2.57588e-06
1.46572e-07
2.57064e-06
1.4985e-07
1.24574e-07
2.56692e-06
2.6482e-06
-1.98603e-07
2.65242e-06
6.31124e-10
2.65558e-06
2.95364e-07
2.70089e-06
1.19656e-06
2.65513e-06
-4.11668e-07
2.64772e-06
-2.20358e-07
2.65368e-06
2.52378e-07
2.65226e-06
2.00917e-07
2.65023e-06
1.73053e-07
2.64669e-06
1.7282e-07
2.66078e-06
4.97765e-07
2.6562e-06
3.18774e-07
2.67441e-06
4.45723e-07
2.67094e-06
3.26504e-07
2.67781e-06
2.89367e-07
2.67289e-06
2.14244e-07
2.67082e-06
1.9882e-07
2.6656e-06
1.51793e-07
2.66784e-06
1.47609e-07
1.27671e-07
2.66475e-06
2.74951e-06
-1.87456e-07
2.75321e-06
-3.07719e-09
2.75542e-06
2.9316e-07
2.80108e-06
1.15089e-06
2.75742e-06
-3.68011e-07
2.74958e-06
-2.1251e-07
2.75606e-06
2.45892e-07
2.75236e-06
2.04615e-07
2.75118e-06
1.74234e-07
2.74723e-06
1.76771e-07
2.76157e-06
4.83423e-07
2.75771e-06
3.22642e-07
2.77487e-06
4.28562e-07
2.77263e-06
3.28746e-07
2.77841e-06
2.83585e-07
2.7731e-06
2.19551e-07
2.7702e-06
2.01721e-07
2.76493e-06
1.57057e-07
2.76897e-06
1.43569e-07
1.30486e-07
2.76616e-06
2.85478e-06
-1.76773e-07
2.85798e-06
-6.28137e-09
2.85898e-06
2.92159e-07
2.90476e-06
1.10511e-06
2.86354e-06
-3.26795e-07
2.85489e-06
-2.03854e-07
2.86231e-06
2.38473e-07
2.85675e-06
2.10167e-07
2.85603e-06
1.74961e-07
2.85191e-06
1.80884e-07
2.86587e-06
4.69464e-07
2.86328e-06
3.25231e-07
2.87884e-06
4.13002e-07
2.87818e-06
3.29413e-07
2.88388e-06
2.7788e-07
2.88647e-06
2.16965e-07
2.88877e-06
1.99415e-07
2.88451e-06
1.61319e-07
2.87444e-06
1.5364e-07
1.33609e-07
2.87132e-06
2.96412e-06
-1.66645e-07
2.96686e-06
-9.01991e-09
2.96652e-06
2.92497e-07
3.01217e-06
1.05946e-06
2.97366e-06
-2.88284e-07
2.96374e-06
-1.9394e-07
2.97245e-06
2.29769e-07
2.96553e-06
2.17079e-07
2.96494e-06
1.75556e-07
2.96089e-06
1.84937e-07
2.97407e-06
4.56283e-07
2.97275e-06
3.26547e-07
2.98697e-06
3.98779e-07
2.9875e-06
3.28888e-07
2.98771e-06
2.77665e-07
2.98487e-06
2.19808e-07
2.98063e-06
2.03654e-07
2.97587e-06
1.66086e-07
2.98281e-06
1.46697e-07
1.35863e-07
2.98055e-06
3.07763e-06
-1.57116e-07
3.07997e-06
-1.13564e-08
3.07828e-06
2.94178e-07
3.12355e-06
1.0142e-06
3.08792e-06
-2.52658e-07
3.07637e-06
-1.82386e-07
3.08651e-06
2.19627e-07
3.07882e-06
2.24768e-07
3.07804e-06
1.76338e-07
3.0742e-06
1.88773e-07
3.08659e-06
4.43891e-07
3.08605e-06
3.27089e-07
3.0997e-06
3.85127e-07
3.10127e-06
3.27322e-07
3.10648e-06
2.72459e-07
3.11243e-06
2.13855e-07
3.11488e-06
2.01205e-07
3.11062e-06
1.70346e-07
3.09636e-06
1.60961e-07
1.38233e-07
3.09398e-06
3.19543e-06
-1.48184e-07
3.19743e-06
-1.33543e-08
3.19455e-06
2.97057e-07
3.23912e-06
9.69631e-07
3.20655e-06
-2.20092e-07
3.193e-06
-1.68833e-07
3.20462e-06
2.08005e-07
3.19664e-06
2.32754e-07
3.19548e-06
1.77489e-07
3.19194e-06
1.92313e-07
3.20391e-06
4.31925e-07
3.20266e-06
3.28334e-07
3.21836e-06
3.69437e-07
3.21879e-06
3.26884e-07
3.22287e-06
2.68382e-07
3.21312e-06
2.23607e-07
3.21003e-06
2.04295e-07
3.20613e-06
1.74239e-07
3.2124e-06
1.54693e-07
1.38561e-07
3.21207e-06
3.31763e-06
-1.398e-07
3.31937e-06
-1.50964e-08
3.31554e-06
3.0089e-07
3.35912e-06
9.26046e-07
3.32964e-06
-1.90612e-07
3.31402e-06
-1.5321e-07
3.32679e-06
1.95233e-07
3.31921e-06
2.4033e-07
3.31715e-06
1.79551e-07
3.31472e-06
1.94748e-07
3.32544e-06
4.212e-07
3.32477e-06
3.29011e-07
3.33988e-06
3.54323e-07
3.33524e-06
3.31523e-07
3.33389e-06
2.6973e-07
3.33213e-06
2.2537e-07
3.33089e-06
2.05539e-07
3.32701e-06
1.78112e-07
3.33439e-06
1.47317e-07
1.38724e-07
3.33423e-06
3.44437e-06
-1.3189e-07
3.44592e-06
-1.66424e-08
3.44147e-06
3.05341e-07
3.48378e-06
8.83738e-07
3.4573e-06
-1.64137e-07
3.43973e-06
-1.35636e-07
3.45317e-06
1.81786e-07
3.44675e-06
2.46756e-07
3.44297e-06
1.83326e-07
3.44288e-06
1.94842e-07
3.45114e-06
4.12938e-07
3.45221e-06
3.27941e-07
3.46269e-06
3.43844e-07
3.47406e-06
3.20153e-07
3.47666e-06
2.67128e-07
3.48273e-06
2.19307e-07
3.48651e-06
2.01753e-07
3.48367e-06
1.80958e-07
3.46312e-06
1.6786e-07
1.41156e-07
3.46069e-06
3.57586e-06
-1.24403e-07
3.57715e-06
-1.79363e-08
3.57257e-06
3.09925e-07
3.61318e-06
8.43128e-07
3.58983e-06
-1.4079e-07
3.5702e-06
-1.16001e-07
3.58422e-06
1.67765e-07
3.57883e-06
2.52143e-07
3.57417e-06
1.87991e-07
3.57422e-06
1.94791e-07
3.58442e-06
4.02738e-07
3.58193e-06
3.3043e-07
3.59587e-06
3.29908e-07
3.59324e-06
3.22781e-07
3.59035e-06
2.70017e-07
3.58618e-06
2.23476e-07
3.58596e-06
2.01973e-07
3.58524e-06
1.81677e-07
3.59263e-06
1.60472e-07
1.4094e-07
3.59284e-06
3.71224e-06
-1.17263e-07
3.71328e-06
-1.89703e-08
3.70894e-06
3.14262e-07
3.74763e-06
8.04444e-07
3.72716e-06
-1.20326e-07
3.70597e-06
-9.48066e-08
3.71977e-06
1.53966e-07
3.71629e-06
2.55616e-07
3.70975e-06
1.94536e-07
3.71138e-06
1.9316e-07
3.72175e-06
3.9237e-07
3.71891e-06
3.33265e-07
3.73418e-06
3.14638e-07
3.72945e-06
3.27508e-07
3.72585e-06
2.73617e-07
3.72129e-06
2.2804e-07
3.72057e-06
2.0269e-07
3.72039e-06
1.81864e-07
3.72947e-06
1.51384e-07
1.40966e-07
3.72945e-06
3.85373e-06
-1.10406e-07
3.85448e-06
-1.97136e-08
3.85073e-06
3.18006e-07
3.88736e-06
7.67814e-07
3.86938e-06
-1.02339e-07
3.84736e-06
-7.27913e-08
3.85993e-06
1.414e-07
3.85962e-06
2.55917e-07
3.84972e-06
2.04441e-07
3.85471e-06
1.88165e-07
3.86014e-06
3.86942e-07
3.86162e-06
3.31792e-07
3.86705e-06
3.09201e-07
3.88901e-06
3.05546e-07
3.89234e-06
2.70291e-07
3.89775e-06
2.22626e-07
3.90145e-06
1.98991e-07
3.89899e-06
1.84323e-07
3.87475e-06
1.75631e-07
1.45117e-07
3.8706e-06
4.0006e-06
-1.0385e-07
4.00081e-06
-1.99303e-08
3.99822e-06
3.20597e-07
4.03227e-06
7.33764e-07
4.01717e-06
-8.72403e-08
3.99398e-06
-4.96015e-08
4.00594e-06
1.29449e-07
4.00654e-06
2.55317e-07
3.99797e-06
2.13011e-07
3.99899e-06
1.87143e-07
4.01409e-06
3.7184e-07
4.01233e-06
3.33554e-07
4.02451e-06
2.97015e-07
4.01679e-06
3.13273e-07
4.01275e-06
2.7433e-07
4.00735e-06
2.28025e-07
4.00642e-06
1.99921e-07
4.0087e-06
1.8204e-07
4.01863e-06
1.65704e-07
1.45233e-07
4.01851e-06
4.15299e-06
-9.75584e-08
4.15266e-06
-1.95983e-08
4.15138e-06
3.21879e-07
4.18297e-06
7.02171e-07
4.17013e-06
-7.43997e-08
4.14672e-06
-2.61969e-08
4.15689e-06
1.19283e-07
4.15967e-06
2.52542e-07
4.15091e-06
2.21766e-07
4.15006e-06
1.87991e-07
4.16793e-06
3.53978e-07
4.15408e-06
3.47401e-07
4.16014e-06
2.90955e-07
4.16603e-06
3.07379e-07
4.16467e-06
2.75694e-07
4.15908e-06
2.33616e-07
4.1576e-06
2.01401e-07
4.15944e-06
1.80197e-07
4.17151e-06
1.53632e-07
1.45455e-07
4.17129e-06
4.31113e-06
-9.15002e-08
4.31025e-06
-1.87228e-08
4.31034e-06
3.21792e-07
4.33979e-06
6.72723e-07
4.32831e-06
-6.29241e-08
4.30606e-06
-3.94531e-09
4.31253e-06
1.12814e-07
4.31971e-06
2.45365e-07
4.30755e-06
2.33919e-07
4.31006e-06
1.85482e-07
4.31807e-06
3.45969e-07
4.33068e-06
3.3479e-07
4.3376e-06
2.84041e-07
4.35243e-06
2.92545e-07
4.35652e-06
2.71608e-07
4.36332e-06
2.26817e-07
4.36662e-06
1.98091e-07
4.36139e-06
1.85437e-07
4.3348e-06
1.80213e-07
1.51516e-07
4.32874e-06
4.47536e-06
-8.57701e-08
4.47359e-06
-1.69585e-08
4.4756e-06
3.19781e-07
4.50223e-06
6.46096e-07
4.49298e-06
-5.36761e-08
4.47063e-06
1.84118e-08
4.47619e-06
1.07249e-07
4.4824e-06
2.3916e-07
4.47501e-06
2.41308e-07
4.46886e-06
1.9163e-07
4.49238e-06
3.22451e-07
4.47883e-06
3.48333e-07
4.48095e-06
2.81921e-07
4.4839e-06
2.89595e-07
4.48558e-06
2.69928e-07
4.48037e-06
2.32028e-07
4.47899e-06
1.99469e-07
4.48131e-06
1.83118e-07
4.49416e-06
1.67365e-07
1.51245e-07
4.49443e-06
4.64575e-06
-8.03175e-08
4.64326e-06
-1.4463e-08
4.64688e-06
3.16156e-07
4.67158e-06
6.214e-07
4.66306e-06
-4.51569e-08
4.64254e-06
3.89275e-08
4.6443e-06
1.05491e-07
4.65344e-06
2.30022e-07
4.64557e-06
2.49177e-07
4.63583e-06
2.01376e-07
4.65185e-06
3.06425e-07
4.64955e-06
3.50631e-07
4.65231e-06
2.79162e-07
4.65142e-06
2.90485e-07
4.65565e-06
2.65698e-07
4.65089e-06
2.36789e-07
4.64889e-06
2.01475e-07
4.65034e-06
1.81662e-07
4.66483e-06
1.52882e-07
1.51027e-07
4.66504e-06
4.82259e-06
-7.51204e-08
4.81947e-06
-1.13437e-08
4.82442e-06
3.11209e-07
4.8481e-06
5.97724e-07
4.83869e-06
-3.57517e-08
4.82232e-06
5.53024e-08
4.81711e-06
1.10695e-07
4.83341e-06
2.13725e-07
4.81783e-06
2.64753e-07
4.82288e-06
1.96323e-07
4.82358e-06
3.05734e-07
4.83157e-06
3.42639e-07
4.83126e-06
2.79469e-07
4.86343e-06
2.58312e-07
4.87583e-06
2.533e-07
4.88558e-06
2.27038e-07
4.88736e-06
1.997e-07
4.8786e-06
1.90418e-07
4.84837e-06
1.83112e-07
1.58947e-07
4.84045e-06
5.00627e-06
-7.03208e-08
5.00216e-06
-7.22885e-09
5.00899e-06
3.04371e-07
5.03046e-06
5.76261e-07
5.02239e-06
-2.76883e-08
5.00599e-06
7.17039e-08
5.00175e-06
1.14938e-07
5.01366e-06
2.01813e-07
5.0044e-06
2.74012e-07
4.99596e-06
2.04764e-07
5.0078e-06
2.93896e-07
5.01123e-06
3.39209e-07
5.00865e-06
2.82048e-07
5.00999e-06
2.56972e-07
5.01383e-06
2.49462e-07
5.01373e-06
2.27138e-07
5.00835e-06
2.05074e-07
5.01004e-06
1.88727e-07
5.02534e-06
1.67814e-07
1.58691e-07
5.0256e-06
5.1968e-06
-6.58032e-08
5.19217e-06
-2.59919e-09
5.20001e-06
2.96528e-07
5.22074e-06
5.5553e-07
5.21228e-06
-1.92238e-08
5.19726e-06
8.67193e-08
5.19293e-06
1.19268e-07
5.20061e-06
1.94133e-07
5.1993e-06
2.75322e-07
5.18394e-06
2.2013e-07
5.19898e-06
2.78856e-07
5.19953e-06
3.38652e-07
5.19956e-06
2.82025e-07
5.19916e-06
2.57364e-07
5.20455e-06
2.44072e-07
5.20318e-06
2.28518e-07
5.20582e-06
2.02425e-07
5.20958e-06
1.84976e-07
5.21333e-06
1.64057e-07
1.54928e-07
5.2171e-06
5.39459e-06
-6.16159e-08
5.38949e-06
2.49955e-09
5.39798e-06
2.88044e-07
5.41886e-06
5.34643e-07
5.4086e-06
-8.95861e-09
5.39673e-06
9.85862e-08
5.38926e-06
1.26735e-07
5.39784e-06
1.85556e-07
5.39452e-06
2.78643e-07
5.38237e-06
2.32279e-07
5.3927e-06
2.6852e-07
5.39753e-06
3.33826e-07
5.39614e-06
2.8341e-07
5.39696e-06
2.56547e-07
5.40139e-06
2.39647e-07
5.40278e-06
2.2712e-07
5.40642e-06
1.98791e-07
5.40941e-06
1.81979e-07
5.41035e-06
1.63117e-07
1.50212e-07
5.41507e-06
5.5999e-06
-5.77788e-08
5.59434e-06
8.06128e-09
5.6034e-06
2.78979e-07
5.62439e-06
5.13654e-07
5.61292e-06
2.51065e-09
5.60283e-06
1.08678e-07
5.59392e-06
1.35652e-07
5.60176e-06
1.77715e-07
5.59923e-06
2.81167e-07
5.58779e-06
2.43719e-07
5.59526e-06
2.61053e-07
5.60278e-06
3.26307e-07
5.6011e-06
2.85089e-07
5.60243e-06
2.55215e-07
5.60619e-06
2.35891e-07
5.60945e-06
2.23858e-07
5.61104e-06
1.97198e-07
5.61224e-06
1.80783e-07
5.61551e-06
1.59853e-07
1.45616e-07
5.6201e-06
5.81291e-06
-5.42122e-08
5.80726e-06
1.37126e-08
5.81626e-06
2.69976e-07
5.83825e-06
4.91667e-07
5.8249e-06
1.58637e-08
5.81665e-06
1.16926e-07
5.80625e-06
1.46055e-07
5.81342e-06
1.70548e-07
5.8119e-06
2.82679e-07
5.8011e-06
2.54525e-07
5.80616e-06
2.55986e-07
5.8155e-06
3.16971e-07
5.81436e-06
2.86227e-07
5.81571e-06
2.5387e-07
5.81879e-06
2.32805e-07
5.82308e-06
2.19573e-07
5.82476e-06
1.95511e-07
5.8282e-06
1.77344e-07
5.82906e-06
1.58997e-07
1.41786e-07
5.83289e-06
6.03401e-06
-5.09212e-08
6.02836e-06
1.93632e-08
6.03706e-06
2.6127e-07
6.05999e-06
4.68742e-07
6.04525e-06
3.06064e-08
6.03815e-06
1.24018e-07
6.02688e-06
1.57326e-07
6.03285e-06
1.64577e-07
6.03283e-06
2.82701e-07
6.02268e-06
2.6468e-07
6.02568e-06
2.52978e-07
6.03602e-06
3.0664e-07
6.0359e-06
2.86344e-07
6.0371e-06
2.52669e-07
6.03978e-06
2.30129e-07
6.04424e-06
2.15112e-07
6.04545e-06
1.94303e-07
6.04628e-06
1.76506e-07
6.05069e-06
1.54594e-07
1.38688e-07
6.05378e-06
6.26344e-06
-4.78645e-08
6.25794e-06
2.48634e-08
6.26616e-06
2.5305e-07
6.28973e-06
4.45178e-07
6.27432e-06
4.60175e-08
6.26771e-06
1.30629e-07
6.25618e-06
1.68847e-07
6.26042e-06
1.60343e-07
6.26215e-06
2.80965e-07
6.25292e-06
2.73915e-07
6.25405e-06
2.51851e-07
6.26472e-06
2.95969e-07
6.26589e-06
2.85176e-07
6.26704e-06
2.51512e-07
6.26921e-06
2.27965e-07
6.27368e-06
2.10634e-07
6.27653e-06
1.91453e-07
6.28151e-06
1.71527e-07
6.28074e-06
1.55364e-07
1.36246e-07
6.28318e-06
6.50156e-06
-4.50153e-08
6.49634e-06
3.00815e-08
6.50392e-06
2.45469e-07
6.52778e-06
4.21313e-07
6.51247e-06
6.13293e-08
6.50579e-06
1.37313e-07
6.49443e-06
1.80205e-07
6.49671e-06
1.5806e-07
6.50014e-06
2.77541e-07
6.49201e-06
2.82042e-07
6.49151e-06
2.52352e-07
6.50196e-06
2.8552e-07
6.50452e-06
2.82611e-07
6.50578e-06
2.5025e-07
6.50765e-06
2.261e-07
6.51183e-06
2.06449e-07
6.51404e-06
1.89243e-07
6.51496e-06
1.70616e-07
6.51946e-06
1.50865e-07
1.34202e-07
6.5215e-06
6.74865e-06
-4.23278e-08
6.74379e-06
3.49464e-08
6.75073e-06
2.3853e-07
6.77464e-06
3.97396e-07
6.75997e-06
7.60025e-08
6.75299e-06
1.44294e-07
6.74181e-06
1.91379e-07
6.74217e-06
1.57705e-07
6.74699e-06
2.72718e-07
6.74027e-06
2.88761e-07
6.7384e-06
2.54224e-07
6.74826e-06
2.75663e-07
6.75214e-06
2.7873e-07
6.75372e-06
2.48673e-07
6.7553e-06
2.24519e-07
6.75908e-06
2.02662e-07
6.76281e-06
1.85512e-07
6.76732e-06
1.66107e-07
6.76729e-06
1.50902e-07
1.32564e-07
6.76892e-06
7.0051e-06
-3.97758e-08
7.00063e-06
3.94171e-08
7.00699e-06
2.32167e-07
7.03059e-06
3.73799e-07
7.0172e-06
8.93842e-08
7.00974e-06
1.5176e-07
6.9987e-06
2.02415e-07
6.99731e-06
1.59101e-07
7.00311e-06
2.66918e-07
6.99806e-06
2.93807e-07
6.99508e-06
2.57207e-07
7.00399e-06
2.66747e-07
7.00899e-06
2.73731e-07
7.01094e-06
2.46722e-07
7.01256e-06
2.22902e-07
7.01583e-06
1.99396e-07
7.01875e-06
1.82587e-07
7.01999e-06
1.64872e-07
7.02447e-06
1.46422e-07
1.31081e-07
7.02595e-06
7.27123e-06
-3.73128e-08
7.26711e-06
4.35356e-08
7.27305e-06
2.26221e-07
7.29612e-06
3.50738e-07
7.28565e-06
9.98514e-08
7.27657e-06
1.60835e-07
7.26545e-06
2.13543e-07
7.26251e-06
1.6204e-07
7.26868e-06
2.60745e-07
7.2655e-06
2.96988e-07
7.26181e-06
2.60891e-07
7.26957e-06
2.58996e-07
7.27552e-06
2.67772e-07
7.27794e-06
2.44303e-07
7.27975e-06
2.21093e-07
7.28244e-06
1.96709e-07
7.28647e-06
1.7856e-07
7.29049e-06
1.60849e-07
7.29139e-06
1.45519e-07
1.29605e-07
7.29287e-06
7.54742e-06
-3.48971e-08
7.54371e-06
4.72409e-08
7.5492e-06
2.20726e-07
7.57168e-06
3.28263e-07
7.56376e-06
1.07767e-07
7.5527e-06
1.71897e-07
7.54237e-06
2.23875e-07
7.53816e-06
1.66255e-07
7.54435e-06
2.54552e-07
7.54314e-06
2.98193e-07
7.53913e-06
2.64903e-07
7.54544e-06
2.5269e-07
7.552e-06
2.61208e-07
7.55493e-06
2.41374e-07
7.55712e-06
2.18903e-07
7.5593e-06
1.94533e-07
7.56253e-06
1.75323e-07
7.56393e-06
1.59456e-07
7.56826e-06
1.41185e-07
1.27845e-07
7.57002e-06
7.83399e-06
-3.24337e-08
7.83116e-06
5.00693e-08
7.83548e-06
2.16405e-07
7.85806e-06
3.05687e-07
7.84629e-06
1.19534e-07
7.83815e-06
1.80045e-07
7.83023e-06
2.31788e-07
7.82451e-06
1.71977e-07
7.83032e-06
2.48741e-07
7.83109e-06
2.97421e-07
7.82722e-06
2.68779e-07
7.83204e-06
2.47872e-07
7.83905e-06
2.54193e-07
7.84255e-06
2.37875e-07
7.84512e-06
2.16336e-07
7.84691e-06
1.92741e-07
7.8507e-06
1.71531e-07
7.85461e-06
1.55545e-07
7.85577e-06
1.40024e-07
1.25761e-07
7.85786e-06
8.13142e-06
-2.98891e-08
8.12938e-06
5.21094e-08
8.13247e-06
2.13312e-07
8.15588e-06
2.82274e-07
8.15193e-06
1.23488e-07
8.15074e-06
1.8123e-07
8.13155e-06
2.50982e-07
8.12165e-06
1.81879e-07
8.12721e-06
2.43176e-07
8.12983e-06
2.94804e-07
8.12642e-06
2.72183e-07
8.12977e-06
2.44531e-07
8.13688e-06
2.4708e-07
8.14081e-06
2.33942e-07
8.1438e-06
2.13345e-07
8.14554e-06
1.91008e-07
8.14843e-06
1.68637e-07
8.1502e-06
1.53778e-07
8.15421e-06
1.36014e-07
1.23437e-07
8.15653e-06
8.44017e-06
-2.72951e-08
8.43764e-06
5.46369e-08
8.442e-06
2.08948e-07
8.46306e-06
2.61213e-07
8.45846e-06
1.28089e-07
8.44626e-06
1.93434e-07
8.43777e-06
2.59472e-07
8.43081e-06
1.88836e-07
8.43567e-06
2.38318e-07
8.43976e-06
2.90716e-07
8.43716e-06
2.74784e-07
8.43922e-06
2.42472e-07
8.44611e-06
2.40188e-07
8.45048e-06
2.29567e-07
8.45393e-06
2.09895e-07
8.4558e-06
1.89146e-07
8.45864e-06
1.65795e-07
8.46183e-06
1.50583e-07
8.464e-06
1.3385e-07
1.20934e-07
8.4665e-06
8.76052e-06
-2.45344e-08
8.75833e-06
5.68336e-08
8.76234e-06
2.04939e-07
8.77979e-06
2.43759e-07
8.77413e-06
1.33744e-07
8.76625e-06
2.01323e-07
8.7586e-06
2.67113e-07
8.75167e-06
1.95773e-07
8.75609e-06
2.33897e-07
8.76135e-06
2.85452e-07
8.75982e-06
2.76318e-07
8.76077e-06
2.41524e-07
8.76712e-06
2.33833e-07
8.77187e-06
2.24814e-07
8.77566e-06
2.06113e-07
8.77776e-06
1.87041e-07
8.78005e-06