/*--------------------------------*- C++ -*----------------------------------*\
| =========                 |                                                 |
| \\      /  F ield         | OpenFOAM: The Open Source CFD Toolbox           |
|  \\    /   O peration     | Version:  v2012                                 |
|   \\  /    A nd           | Website:  www.openfoam.com                      |
|    \\/     M anipulation  |                                                 |
\*---------------------------------------------------------------------------*/
FoamFile
{
    version     2.0;
    format      ascii;
    class       volVectorField;
    location    "7";
    object      U;
}
// * * * * * * * * * * * * * * * * * * * * * * * * * * * * * * * * * * * * * //

dimensions      [0 1 -1 0 0 0 0];


internalField   nonuniform List<vector> 
7000
(
(0.956176 -0.00144539 0)
(1.06428 -0.00433323 0)
(0.786986 0.0133217 0)
(1.38525 0.013395 0)
(0.45507 -0.0160574 0)
(1.37171 0.00695523 0)
(0.742737 -0.00126859 0)
(1.09773 0.00734368 0)
(0.898753 -0.000302128 0)
(1.12432 0.00314265 0)
(0.890746 0.0142924 0)
(1.11598 0.00842539 0)
(0.868469 0.0197397 0)
(1.10712 0.0118601 0)
(0.86196 0.0158738 0)
(1.10416 0.0065081 0)
(0.858072 0.00943769 0)
(1.10098 0.00268465 0)
(0.855167 0.00454988 0)
(1.09324 -0.00109641 0)
(0.958185 -0.0015606 0)
(1.06264 -0.00344358 0)
(0.790746 0.0116731 0)
(1.37633 0.0156645 0)
(0.504675 -0.0166105 0)
(1.36016 0.00542142 0)
(0.780113 0.000786214 0)
(1.09349 0.00641282 0)
(0.916769 -0.000953249 0)
(1.1187 0.00348283 0)
(0.906702 0.0142145 0)
(1.10058 0.00898932 0)
(0.891455 0.0196635 0)
(1.07681 0.0121909 0)
(0.901371 0.0157223 0)
(1.05729 0.00673904 0)
(0.916411 0.00948979 0)
(1.03663 0.00270862 0)
(0.933641 0.00530048 0)
(1.00995 -0.00144383 0)
(0.962065 -0.00166334 0)
(1.0591 -0.00257369 0)
(0.801355 0.00961503 0)
(1.35759 0.0178477 0)
(0.581936 -0.017137 0)
(1.33224 0.00392187 0)
(0.844668 0.00247061 0)
(1.08136 0.00528731 0)
(0.948241 -0.00144895 0)
(1.10212 0.00385477 0)
(0.942555 0.0142809 0)
(1.07239 0.00952003 0)
(0.935334 0.0198211 0)
(1.03623 0.0122239 0)
(0.95254 0.015934 0)
(1.01386 0.00649902 0)
(0.968122 0.00991815 0)
(0.99762 0.00215325 0)
(0.977967 0.00607189 0)
(0.98268 -0.00133452 0)
(0.967554 -0.0017592 0)
(1.05339 -0.00180245 0)
(0.819852 0.00783742 0)
(1.32774 0.0193241 0)
(0.6759 -0.0174296 0)
(1.28561 0.00253747 0)
(0.919858 0.00413262 0)
(1.0629 0.00461306 0)
(0.981967 -0.00173502 0)
(1.07661 0.00396861 0)
(0.984135 0.0145876 0)
(1.04556 0.0097564 0)
(0.978083 0.0203214 0)
(1.01132 0.0119961 0)
(0.987855 0.0163852 0)
(0.996867 0.00610459 0)
(0.993423 0.0104449 0)
(0.989037 0.00173235 0)
(0.993479 0.00685339 0)
(0.981353 -0.00106569 0)
(0.974165 -0.00185514 0)
(1.04571 -0.001094 0)
(0.845675 0.00628086 0)
(1.28655 0.0203108 0)
(0.772068 -0.0174209 0)
(1.2241 0.00108551 0)
(0.98703 0.00565955 0)
(1.04515 0.00436891 0)
(1.00663 -0.00186961 0)
(1.05057 0.00386543 0)
(1.01463 0.0149658 0)
(1.03012 0.00988824 0)
(1.0056 0.0208779 0)
(1.00555 0.0118576 0)
(1.00436 0.0167904 0)
(0.996715 0.00588879 0)
(1.00131 0.0109055 0)
(0.991519 0.00153465 0)
(0.996066 0.00746767 0)
(0.985073 -0.000680187 0)
(0.9812 -0.00194407 0)
(1.0368 -0.000475192 0)
(0.876419 0.00491401 0)
(1.23626 0.0208723 0)
(0.855978 -0.0171393 0)
(1.15734 -0.000329692 0)
(1.03274 0.00690029 0)
(1.03386 0.00445981 0)
(1.01796 -0.00188382 0)
(1.03064 0.00367851 0)
(1.02792 0.0152319 0)
(1.02469 0.0100433 0)
(1.01745 0.0213049 0)
(1.00849 0.0118912 0)
(1.00917 0.0171274 0)
(1.00049 0.00584525 0)
(1.00168 0.0113137 0)
(0.994529 0.00148546 0)
(0.994461 0.00802628 0)
(0.987536 -0.000237544 0)
(0.987889 -0.00202056 0)
(1.02783 1.73959e-05 0)
(0.90822 0.00379703 0)
(1.18184 0.0210598 0)
(0.919171 -0.0166541 0)
(1.0964 -0.00154802 0)
(1.05323 0.00772975 0)
(1.02918 0.00480312 0)
(1.01907 -0.0017716 0)
(1.01764 0.00348033 0)
(1.02777 0.0153247 0)
(1.0227 0.0101866 0)
(1.01911 0.0216104 0)
(1.01148 0.0120155 0)
(1.00876 0.0174662 0)
(1.00291 0.00589129 0)
(1.00004 0.0117294 0)
(0.99603 0.00154782 0)
(0.992702 0.00854554 0)
(0.988731 0.000249256 0)
(0.993598 -0.00208396 0)
(1.01999 0.000373532 0)
(0.937054 0.00296925 0)
(1.12958 0.0209957 0)
(0.960741 -0.0160605 0)
(1.04891 -0.00249515 0)
(1.0531 0.00812407 0)
(1.02747 0.00526341 0)
(1.01582 -0.00153968 0)
(1.00905 0.00329878 0)
(1.02092 0.0152838 0)
(1.01954 0.0102686 0)
(1.01563 0.0218447 0)
(1.01172 0.0121495 0)
(1.00669 0.0178245 0)
(1.0036 0.0059653 0)
(0.998743 0.0121498 0)
(0.996801 0.00166669 0)
(0.992178 0.00899788 0)
(0.9898 0.000764973 0)
(0.997992 -0.00213681 0)
(1.01409 0.000607856 0)
(0.960174 0.00242162 0)
(1.0849 0.0208053 0)
(0.984746 -0.0154514 0)
(1.01705 -0.003167 0)
(1.04103 0.00816084 0)
(1.02529 0.00569208 0)
(1.01252 -0.00122192 0)
(1.00272 0.00315687 0)
(1.01241 0.0151837 0)
(1.01433 0.0102874 0)
(1.01005 0.0220215 0)
(1.00966 0.0122371 0)
(1.00448 0.0181594 0)
(1.0034 0.00602364 0)
(0.998366 0.0125329 0)
(0.997566 0.00181128 0)
(0.992891 0.00936488 0)
(0.991263 0.00129098 0)
(1.00107 -0.00218311 0)
(1.01022 0.000745117 0)
(0.976762 0.00211364 0)
(1.05073 0.0205725 0)
(0.9968 -0.0148882 0)
(0.998585 -0.00360546 0)
(1.02552 0.00796789 0)
(1.02147 0.00598819 0)
(1.01066 -0.000859623 0)
(0.997955 0.00308167 0)
(1.00473 0.0150868 0)
(1.00825 0.0102638 0)
(1.00407 0.022135 0)
(1.00649 0.0122382 0)
(1.00261 0.0184231 0)
(1.00292 0.00604669 0)
(0.998714 0.0128379 0)
(0.998482 0.00198612 0)
(0.99433 0.00964297 0)
(0.993025 0.00181253 0)
(1.00307 -0.0022268 0)
(1.00793 0.000812117 0)
(0.987584 0.00199183 0)
(1.02718 0.020339 0)
(1.00189 -0.0143975 0)
(0.989447 -0.00385934 0)
(1.01223 0.0076672 0)
(1.01677 0.0061215 0)
(1.00991 -0.000488199 0)
(0.994787 0.00308738 0)
(0.998756 0.0150272 0)
(1.00281 0.0102179 0)
(0.998759 0.0221865 0)
(1.00321 0.0121393 0)
(1.00124 0.0185908 0)
(1.00244 0.00603547 0)
(0.999441 0.0130398 0)
(0.999449 0.00220485 0)
(0.995989 0.00983721 0)
(0.994811 0.00233355 0)
(1.00431 -0.00226997 0)
(1.00649 0.000832544 0)
(0.994157 0.00200232 0)
(1.01237 0.0201184 0)
(1.00354 -0.0139773 0)
(0.985803 -0.00398653 0)
(1.0033 0.00734025 0)
(1.01243 0.00611839 0)
(1.0095 -0.000130384 0)
(0.99313 0.00316557 0)
(0.994593 0.0150151 0)
(0.99889 0.0101616 0)
(0.994876 0.0221895 0)
(1.00049 0.0119538 0)
(1.00046 0.0186585 0)
(1.00214 0.00600431 0)
(1.00031 0.0131321 0)
(1.00039 0.00246837 0)
(0.997554 0.00994988 0)
(0.996426 0.0028553 0)
(1.00503 -0.0023122 0)
(1.0053 0.000823237 0)
(0.997968 0.00209923 0)
(1.00378 0.0199091 0)
(1.00386 -0.0136103 0)
(0.984956 -0.00405013 0)
(0.998366 0.00702571 0)
(1.00916 0.00602769 0)
(1.009 0.000204387 0)
(0.992606 0.00329422 0)
(0.99206 0.0150446 0)
(0.996649 0.0100974 0)
(0.992759 0.0221627 0)
(0.99869 0.0117087 0)
(1.00031 0.0186273 0)
(1.00217 0.00598083 0)
(1.00123 0.0131203 0)
(1.00128 0.00277686 0)
(0.998899 0.00999578 0)
(0.997797 0.00337461 0)
(1.00537 -0.00235107 0)
(1.00402 0.00079466 0)
(1.00006 0.00224776 0)
(0.999215 0.0197041 0)
(1.0039 -0.0132774 0)
(0.985319 -0.00408635 0)
(0.996016 0.0067358 0)
(1.00697 0.00589124 0)
(1.00833 0.000515336 0)
(0.992748 0.00344735 0)
(0.990854 0.0151041 0)
(0.99578 0.0100206 0)
(0.992337 0.0221181 0)
(0.997942 0.0114381 0)
(1.00072 0.0184991 0)
(1.00257 0.00599472 0)
(1.00213 0.0130221 0)
(1.00213 0.00312931 0)
(1.00001 0.00999581 0)
(0.998923 0.00388686 0)
(1.00539 -0.0023832 0)
(1.00258 0.000753197 0)
(1.00101 0.0024228 0)
(0.997243 0.019495 0)
(1.00408 -0.0129601 0)
(0.98605 -0.00411119 0)
(0.99491 0.00647063 0)
(1.00549 0.0057331 0)
(1.0075 0.000807638 0)
(0.993178 0.00360129 0)
(0.99064 0.0151813 0)
(0.995831 0.00992277 0)
(0.993242 0.0220535 0)
(0.998166 0.0111816 0)
(1.00157 0.018286 0)
(1.00327 0.0060693 0)
(1.003 0.0128555 0)
(1.00293 0.00353066 0)
(1.00091 0.00996954 0)
(0.999823 0.00439312 0)
(1.00511 -0.00240529 0)
(1.00107 0.000703297 0)
(1.00108 0.00260569 0)
(0.997093 0.019273 0)
(1.00452 -0.0126404 0)
(0.986731 -0.004128 0)
(0.994211 0.00622747 0)
(1.00435 0.00556471 0)
(1.00657 0.00108503 0)
(0.99364 0.00373793 0)
(0.991096 0.0152651 0)
(0.996391 0.00979854 0)
(0.994974 0.0219546 0)
(0.999158 0.0109751 0)
(1.00265 0.0180045 0)
(1.00416 0.0062149 0)
(1.00381 0.0126392 0)
(1.00362 0.00397448 0)
(1.00164 0.00993366 0)
(1.00051 0.00489137 0)
(1.00458 -0.00241475 0)
(0.999597 0.000648793 0)
(1.00048 0.00278127 0)
(0.998332 0.0190296 0)
(1.00519 -0.0123015 0)
(0.987202 -0.00413425 0)
(0.993577 0.00600384 0)
(1.00333 0.00538957 0)
(1.00557 0.00135027 0)
(0.993975 0.00384413 0)
(0.991939 0.0153445 0)
(0.99715 0.0096498 0)
(0.997027 0.0218047 0)
(1.00063 0.0108424 0)
(1.0038 0.0176675 0)
(1.00509 0.00643188 0)
(1.00451 0.0123963 0)
(1.00418 0.00444568 0)
(1.00223 0.00989912 0)
(1.00102 0.00537927 0)
(1.00392 -0.00240997 0)
(0.998213 0.000592912 0)
(0.999443 0.00293682 0)
(1.00057 0.0187578 0)
(1.00601 -0.0119282 0)
(0.987465 -0.0041272 0)
(0.992977 0.00579714 0)
(1.0024 0.00520837 0)
(1.00454 0.00160674 0)
(0.994097 0.00391238 0)
(0.992922 0.0154097 0)
(0.997905 0.00948527 0)
(0.998965 0.0215858 0)
(1.00223 0.0107899 0)
(1.00485 0.0172933 0)
(1.00593 0.00671919 0)
(1.00512 0.0121437 0)
(1.00459 0.0049343 0)
(1.0027 0.00988122 0)
(1.00137 0.00585832 0)
(1.00327 -0.00239013 0)
(0.996905 0.00053755 0)
(0.998304 0.00306283 0)
(1.00335 0.0184531 0)
(1.0069 -0.0115098 0)
(0.987617 -0.00410533 0)
(0.992494 0.00560331 0)
(1.0016 0.00502429 0)
(1.00358 0.00185648 0)
(0.994002 0.00394194 0)
(0.993848 0.0154525 0)
(0.998551 0.00932128 0)
(1.00049 0.021283 0)
(1.00367 0.0108147 0)
(1.00574 0.0168926 0)
(1.00658 0.00706682 0)
(1.00561 0.0118989 0)
(1.00486 0.00542649 0)
(1.00307 0.00988446 0)
(1.00162 0.00632753 0)
(1.00276 -0.00235516 0)
(0.995642 0.000483079 0)
(0.997339 0.00315404 0)
(1.00616 0.0181146 0)
(1.00779 -0.0110412 0)
(0.987777 -0.00406904 0)
(0.992193 0.00541921 0)
(1.00094 0.00483835 0)
(1.00278 0.00210462 0)
(0.993768 0.00393884 0)
(0.994589 0.015461 0)
(0.999054 0.00917732 0)
(1.00148 0.0208977 0)
(1.00472 0.0109037 0)
(1.00641 0.0164687 0)
(1.00702 0.00746254 0)
(1.00601 0.0116795 0)
(1.00504 0.00590918 0)
(1.00336 0.00990247 0)
(1.00181 0.00678159 0)
(1.00247 -0.00230575 0)
(0.994435 0.000428953 0)
(0.996694 0.00320983 0)
(1.00859 0.0177442 0)
(1.00863 -0.0105236 0)
(0.988034 -0.00401923 0)
(0.992076 0.00524407 0)
(1.00039 0.00465095 0)
(1.00216 0.00235276 0)
(0.993517 0.00391498 0)
(0.995101 0.0154273 0)
(0.99942 0.00906578 0)
(1.00199 0.0204412 0)
(1.00529 0.011044 0)
(1.00685 0.0160235 0)
(1.00725 0.00788411 0)
(1.00631 0.0114927 0)
(1.00516 0.00638217 0)
(1.00361 0.00994303 0)
(1.00198 0.00722228 0)
(1.00239 -0.00224334 0)
(0.993351 0.000374299 0)
(0.996351 0.00323383 0)
(1.01043 0.0173455 0)
(1.00935 -0.00996379 0)
(0.988434 -0.00395559 0)
(0.99211 0.00507864 0)
(0.999891 0.00446501 0)
(1.00171 0.0025982 0)
(0.993358 0.00388099 0)
(0.995413 0.0153487 0)
(0.999672 0.00899642 0)
(1.00216 0.0199209 0)
(1.00545 0.0112314 0)
(1.00709 0.0155619 0)
(1.00731 0.00829909 0)
(1.00652 0.0113333 0)
(1.00525 0.00683693 0)
(1.00381 0.0100065 0)
(1.00216 0.00765573 0)
(1.00245 -0.00217001 0)
(0.992474 0.000318755 0)
(0.996185 0.00323239 0)
(1.01165 0.0169217 0)
(1.0099 -0.0093696 0)
(0.988987 -0.00388104 0)
(0.992266 0.00492212 0)
(0.999386 0.00428473 0)
(1.00132 0.00283552 0)
(0.993337 0.00384825 0)
(0.995596 0.0152224 0)
(0.999842 0.0089797 0)
(1.00216 0.0193395 0)
(1.00533 0.0114357 0)
(1.00716 0.0151155 0)
(1.00726 0.00869956 0)
(1.00664 0.0111949 0)
(1.00533 0.00725813 0)
(1.00397 0.0100665 0)
(1.00234 0.00807127 0)
(1.0026 -0.00208831 0)
(0.991861 0.000262983 0)
(0.996063 0.00321268 0)
(1.01237 0.0164751 0)
(1.01025 -0.00875117 0)
(0.989687 -0.00379629 0)
(0.992545 0.00477792 0)
(0.99886 0.00411061 0)
(1.00092 0.0030548 0)
(0.993432 0.00383622 0)
(0.995719 0.0150362 0)
(0.999967 0.00902175 0)
(1.00212 0.0187263 0)
(1.00507 0.0116212 0)
(1.00711 0.014672 0)
(1.00713 0.00909285 0)
(1.00667 0.0110963 0)
(1.00538 0.00765881 0)
(1.0041 0.0101136 0)
(1.00251 0.00845479 0)
(1.00276 -0.00200076 0)
(0.991517 0.000208373 0)
(0.99591 0.00318068 0)
(1.0127 0.0160088 0)
(1.01038 -0.00811949 0)
(0.990521 -0.00370054 0)
(0.992967 0.00464897 0)
(0.998341 0.00395827 0)
(1.00046 0.00323479 0)
(0.993586 0.0038536 0)
(0.995821 0.0148071 0)
(1.00008 0.00908236 0)
(1.00209 0.0181114 0)
(1.00477 0.0118305 0)
(1.00699 0.0142088 0)
(1.00698 0.00943629 0)
(1.00663 0.0110383 0)
(1.00541 0.00806767 0)
(1.00419 0.0101846 0)
(1.00265 0.00881044 0)
(1.00289 -0.00190973 0)
(0.991404 0.000156583 0)
(0.995714 0.00314131 0)
(1.01275 0.0155247 0)
(1.0103 -0.00748094 0)
(0.991468 -0.00360114 0)
(0.993538 0.00453153 0)
(0.997883 0.00383487 0)
(0.999955 0.00339198 0)
(0.993749 0.00386516 0)
(0.995908 0.0145625 0)
(1.0002 0.00918075 0)
(1.0021 0.0174445 0)
(1.0045 0.012061 0)
(1.00684 0.0137954 0)
(1.00681 0.00972693 0)
(1.00655 0.0109662 0)
(1.0054 0.0084421 0)
(1.00423 0.010297 0)
(1.00275 0.00918681 0)
(1.00298 -0.00181677 0)
(0.991484 0.000108242 0)
(0.99549 0.00309908 0)
(1.01256 0.0150267 0)
(1.01004 -0.00684825 0)
(0.99249 -0.00349718 0)
(0.994232 0.00442523 0)
(0.997543 0.00374643 0)
(0.999441 0.00349895 0)
(0.9939 0.00393645 0)
(0.995973 0.0142151 0)
(1.00032 0.00935607 0)
(1.00213 0.0167803 0)
(1.00427 0.0122435 0)
(1.00667 0.0133881 0)
(1.00664 0.0100128 0)
(1.00642 0.0109363 0)
(1.00537 0.00874262 0)
(1.00425 0.0103591 0)
(1.00281 0.0095349 0)
(1.00301 -0.00172287 0)
(0.99173 6.34386e-05 0)
(0.995253 0.00305753 0)
(1.01216 0.0145172 0)
(1.00962 -0.0062237 0)
(0.993533 -0.0033928 0)
(0.994997 0.0043267 0)
(0.997354 0.00372001 0)
(0.998977 0.00355382 0)
(0.994043 0.00402094 0)
(0.996005 0.0138738 0)
(1.00043 0.00945722 0)
(1.00217 0.0161731 0)
(1.00405 0.0123849 0)
(1.00649 0.0130682 0)
(1.00648 0.0102225 0)
(1.00626 0.0110095 0)
(1.00529 0.00899904 0)
(1.00423 0.0103694 0)
(1.00285 0.00982226 0)
(1.00298 -0.00163006 0)
(0.992127 2.17825e-05 0)
(0.995013 0.00302555 0)
(1.01159 0.0139907 0)
(1.0091 -0.00561049 0)
(0.994528 -0.00329276 0)
(0.995763 0.00423908 0)
(0.997328 0.00369935 0)
(0.998606 0.00367187 0)
(0.994203 0.00400921 0)
(0.996004 0.0135907 0)
(1.0005 0.00956932 0)
(1.0022 0.0155459 0)
(1.00385 0.0125049 0)
(1.00627 0.0127681 0)
(1.00631 0.0104466 0)
(1.00606 0.0110948 0)
(1.00518 0.00933677 0)
(1.00419 0.010359 0)
(1.00285 0.0100734 0)
(1.00288 -0.0015409 0)
(0.992658 -1.03278e-05 0)
(0.99478 0.00299205 0)
(1.0109 0.013477 0)
(1.00852 -0.00504422 0)
(0.995414 -0.00316647 0)
(0.996465 0.00411343 0)
(0.997453 0.00379215 0)
(0.998357 0.00360895 0)
(0.994394 0.00425845 0)
(0.995997 0.0130255 0)
(1.00051 0.00981399 0)
(1.0022 0.0148859 0)
(1.00363 0.0127081 0)
(1.00603 0.0123604 0)
(1.00613 0.0106556 0)
(1.00585 0.0110719 0)
(1.00503 0.00977348 0)
(1.00411 0.0103868 0)
(1.00285 0.0102823 0)
(1.00272 -0.00144965 0)
(0.993293 -4.79296e-05 0)
(0.994574 0.00298192 0)
(1.01011 0.0129421 0)
(1.00793 -0.00447859 0)
(0.99614 -0.00306243 0)
(0.99706 0.00401549 0)
(0.997688 0.00385937 0)
(0.998245 0.00367792 0)
(0.99463 0.00424673 0)
(0.995991 0.0127893 0)
(1.00048 0.00980641 0)
(1.00218 0.0143711 0)
(1.00337 0.0126936 0)
(1.00574 0.0122234 0)
(1.00594 0.010727 0)
(1.00564 0.0111289 0)
(1.0049 0.0100664 0)
(1.00404 0.0105073 0)
(1.00287 0.0105444 0)
(1.00251 -0.00137113 0)
(0.993987 -6.90121e-05 0)
(0.994419 0.00297414 0)
(1.00928 0.0124165 0)
(1.00737 -0.00396964 0)
(0.996689 -0.00291203 0)
(0.99752 0.00384878 0)
(0.998001 0.00401465 0)
(0.998231 0.00366041 0)
(0.994934 0.00436561 0)
(0.996025 0.0123936 0)
(1.0004 0.0099014 0)
(1.00213 0.0138566 0)
(1.00312 0.0127453 0)
(1.00545 0.0120229 0)
(1.00576 0.0107617 0)
(1.00543 0.0111921 0)
(1.00473 0.0102925 0)
(1.00396 0.0106444 0)
(1.00285 0.0107642 0)
(1.00227 -0.00129339 0)
(0.994689 -8.56542e-05 0)
(0.994337 0.00297513 0)
(1.00845 0.0119132 0)
(1.00688 -0.00351331 0)
(0.997057 -0.00274591 0)
(0.997866 0.00370559 0)
(0.99832 0.00413864 0)
(0.998322 0.0036654 0)
(0.995267 0.00451701 0)
(0.996099 0.0119905 0)
(1.00034 0.00988101 0)
(1.00209 0.0134345 0)
(1.00286 0.0126764 0)
(1.00513 0.012003 0)
(1.0056 0.0106411 0)
(1.00528 0.0112702 0)
(1.00464 0.0103757 0)
(1.00394 0.0108122 0)
(1.00289 0.0109986 0)
(1.00202 -0.00120792 0)
(0.995354 -0.000127434 0)
(0.994342 0.00303134 0)
(1.00766 0.011352 0)
(1.00646 -0.00301292 0)
(0.997272 -0.0026166 0)
(0.998104 0.00359538 0)
(0.998632 0.00420518 0)
(0.998447 0.00381339 0)
(0.995647 0.00441796 0)
(0.996229 0.0119355 0)
(1.00028 0.00974156 0)
(1.00206 0.0130533 0)
(1.00266 0.0124734 0)
(1.00486 0.0119931 0)
(1.00546 0.0106968 0)
(1.00516 0.0113653 0)
(1.00453 0.0106913 0)
(1.00397 0.0109089 0)
(1.00293 0.0110721 0)
(1.00178 -0.00115656 0)
(0.995944 -0.000121252 0)
(0.994438 0.00302905 0)
(1.00694 0.0108853 0)
(1.00613 -0.00266166 0)
(0.997367 -0.00234585 0)
(0.99829 0.00326404 0)
(0.998877 0.00453036 0)
(0.9986 0.00360668 0)
(0.996043 0.00475604 0)
(0.996405 0.0112881 0)
(1.00025 0.0101416 0)
(1.00209 0.0122067 0)
(1.00249 0.012925 0)
(1.00464 0.0114455 0)
(1.00538 0.0110283 0)
(1.00512 0.0111482 0)
(1.00448 0.011379 0)
(1.00394 0.0109718 0)
(1.00297 0.0110392 0)
(1.00155 -0.00108501 0)
(0.996446 -0.00013707 0)
(0.994609 0.00307372 0)
(1.00631 0.0104066 0)
(1.00586 -0.00232679 0)
(0.997394 -0.00207877 0)
(0.998437 0.00308254 0)
(0.999074 0.0045612 0)
(0.998737 0.00379837 0)
(0.996418 0.00466768 0)
(0.996649 0.0111534 0)
(1.00023 0.00994335 0)
(1.00217 0.0118736 0)
(1.00237 0.012672 0)
(1.00443 0.0116809 0)
(1.00533 0.0108277 0)
(1.00516 0.0112672 0)
(1.00449 0.0112878 0)
(1.00392 0.0111313 0)
(1.00308 0.0111995 0)
(1.00135 -0.00100894 0)
(0.996856 -0.000176814 0)
(0.99483 0.00317838 0)
(1.00578 0.00984898 0)
(1.00565 -0.00189368 0)
(0.997392 -0.00192109 0)
(0.998563 0.00300992 0)
(0.999224 0.00454875 0)
(0.998833 0.00405817 0)
(0.996804 0.00443568 0)
(0.996877 0.0112273 0)
(1.00026 0.00970259 0)
(1.00228 0.0117146 0)
(1.00235 0.0122125 0)
(1.00427 0.0120419 0)
(1.0053 0.0107161 0)
(1.0052 0.0114108 0)
(1.00449 0.0111636 0)
(1.00398 0.0112462 0)
(1.00314 0.0112524 0)
(1.00119 -0.000976659 0)
(0.997174 -0.00015659 0)
(0.995088 0.00315557 0)
(1.00534 0.00947543 0)
(1.00548 -0.00171487 0)
(0.997379 -0.00151244 0)
(0.9987 0.00253906 0)
(0.99932 0.00490236 0)
(0.998889 0.00384796 0)
(0.997164 0.00480604 0)
(0.997155 0.0104726 0)
(1.00027 0.0103034 0)
(1.0024 0.0107308 0)
(1.00237 0.0127201 0)
(1.00415 0.0115684 0)
(1.00527 0.0113087 0)
(1.00526 0.0110164 0)
(1.00452 0.0116941 0)
(1.00399 0.0112969 0)
(1.0032 0.0112206 0)
(1.00104 -0.000909167 0)
(0.997421 -0.000166531 0)
(0.995359 0.0032007 0)
(1.00499 0.00905346 0)
(1.00533 -0.00148303 0)
(0.997373 -0.00118121 0)
(0.99885 0.0023998 0)
(0.999394 0.00482445 0)
(0.998926 0.0041372 0)
(0.997474 0.00455777 0)
(0.997439 0.0104206 0)
(1.0003 0.0101475 0)
(1.00257 0.010575 0)
(1.00245 0.0122471 0)
(1.00403 0.0117965 0)
(1.00522 0.011105 0)
(1.00533 0.0111192 0)
(1.00462 0.0114787 0)
(1.00396 0.0115819 0)
(1.00328 0.0114717 0)
(1.00093 -0.000837908 0)
(0.997617 -0.000205202 0)
(0.99562 0.00331696 0)
(1.00471 0.00853794 0)
(1.00518 -0.00111751 0)
(0.997404 -0.000987792 0)
(0.998984 0.00240521 0)
(0.999479 0.00454583 0)
(0.998898 0.00470225 0)
(0.997806 0.00413531 0)
(0.997725 0.0105259 0)
(1.00032 0.00978214 0)
(1.00267 0.010675 0)
(1.00257 0.0116659 0)
(1.00396 0.0122401 0)
(1.00519 0.0108217 0)
(1.00539 0.0112385 0)
(1.0047 0.0111307 0)
(1.00407 0.0116631 0)
(1.00328 0.0116056 0)
(1.00085 -0.000818091 0)
(0.997758 -0.000168455 0)
(0.995885 0.00323066 0)
(1.00448 0.00828427 0)
(1.00505 -0.00110155 0)
(0.99743 -0.000508873 0)
(0.999142 0.00189939 0)
(0.99956 0.00495316 0)
(0.998881 0.00436153 0)
(0.998088 0.00465881 0)
(0.998003 0.00952437 0)
(1.00035 0.0105743 0)
(1.00283 0.00974874 0)
(1.00272 0.0121911 0)
(1.00388 0.0116957 0)
(1.0051 0.0115209 0)
(1.00543 0.0109149 0)
(1.00478 0.0117386 0)
(1.00412 0.0116097 0)
(1.0033 0.0115928 0)
(1.00078 -0.000758039 0)
(0.997872 -0.000159508 0)
(0.996137 0.00325811 0)
(1.00429 0.00791465 0)
(1.0049 -0.000926422 0)
(0.997478 -0.000163628 0)
(0.999315 0.00188145 0)
(0.999637 0.00468694 0)
(0.998853 0.00476602 0)
(0.998341 0.00446 0)
(0.998354 0.00930621 0)
(1.00037 0.010401 0)
(1.00293 0.00972176 0)
(1.00289 0.0116247 0)
(1.00384 0.011886 0)
(1.00506 0.0114862 0)
(1.00548 0.0111454 0)
(1.00491 0.0114334 0)
(1.00409 0.0117845 0)
(1.00332 0.0118771 0)
(1.00073 -0.0006807 0)
(0.997974 -0.0002014 0)
(0.996364 0.00335079 0)
(1.00414 0.00748029 0)
(1.00474 -0.000621369 0)
(0.997542 2.27572e-05 0)
(0.999447 0.00200066 0)
(0.99978 0.00422349 0)
(0.998819 0.00535586 0)
(0.998586 0.00417815 0)
(0.998639 0.00926998 0)
(1.00043 0.0100355 0)
(1.00303 0.00999405 0)
(1.00311 0.0108586 0)
(1.00385 0.0122026 0)
(1.00498 0.0111679 0)
(1.00545 0.0113058 0)
(1.005 0.0110904 0)
(1.0043 0.0118277 0)
(1.00332 0.0121453 0)
(1.0007 -0.000695436 0)
(0.998043 -0.000108718 0)
(0.996592 0.00315042 0)
(1.004 0.00736737 0)
(1.00459 -0.000759655 0)
(0.997597 0.000587394 0)
(0.999608 0.00155228 0)
(0.999895 0.00468868 0)
(0.998803 0.00484172 0)
(0.998805 0.00495954 0)
(0.999 0.00817722 0)
(1.00048 0.010911 0)
(1.00306 0.00918478 0)
(1.00332 0.0112542 0)
(1.0039 0.0114737 0)
(1.00492 0.011838 0)
(1.00549 0.011037 0)
(1.0051 0.0119351 0)
(1.00442 0.0116177 0)
(1.00335 0.0119691 0)
(1.00066 -0.000606055 0)
(0.998114 -0.000123862 0)
(0.996806 0.00321469 0)
(1.00386 0.00697816 0)
(1.00444 -0.000517312 0)
(0.997644 0.000686474 0)
(0.999768 0.00177284 0)
(1.00004 0.00414529 0)
(0.998825 0.00541944 0)
(0.998967 0.00478532 0)
(0.999348 0.00809097 0)
(1.00056 0.0105401 0)
(1.00311 0.00948357 0)
(1.00354 0.010655 0)
(1.00398 0.0112351 0)
(1.00489 0.0115345 0)
(1.0055 0.0111549 0)
(1.00517 0.011738 0)
(1.00436 0.0118451 0)
(1.00339 0.0123191 0)
(1.00063 -0.000566453 0)
(0.998201 -0.000108496 0)
(0.996995 0.00318125 0)
(1.00376 0.0066894 0)
(1.00426 -0.000319771 0)
(0.997723 0.000796293 0)
(0.999875 0.00204262 0)
(1.00023 0.00359626 0)
(0.998832 0.00595664 0)
(0.99915 0.00449281 0)
(0.999712 0.00819114 0)
(1.00069 0.0101301 0)
(1.0031 0.00998425 0)
(1.00368 0.00977196 0)
(1.00409 0.0111097 0)
(1.00493 0.0109086 0)
(1.00558 0.0112309 0)
(1.00534 0.0113261 0)
(1.00466 0.0121743 0)
(1.0034 0.0128482 0)
(1.00061 -0.000577497 0)
(0.998264 -1.9149e-06 0)
(0.997199 0.00296996 0)
(1.00364 0.0065882 0)
(1.00411 -0.000404145 0)
(0.997777 0.00128723 0)
(0.999994 0.00182548 0)
(1.00042 0.00380378 0)
(0.998884 0.00569859 0)
(0.999285 0.00513086 0)
(1.00008 0.00749116 0)
(1.00084 0.0104506 0)
(1.00306 0.0096042 0)
(1.00382 0.00990771 0)
(1.00424 0.0106194 0)
(1.00497 0.0111335 0)
(1.00565 0.0110833 0)
(1.00552 0.0116712 0)
(1.00491 0.0120387 0)
(1.00345 0.0126397 0)
(1.00059 -0.000468714 0)
(0.998339 -4.76791e-05 0)
(0.997398 0.003027 0)
(1.00351 0.00621752 0)
(1.00396 -0.000157377 0)
(0.99784 0.00134202 0)
(1.0001 0.00204973 0)
(1.00062 0.00352531 0)
(0.998967 0.00585378 0)
(0.999405 0.00533397 0)
(1.00046 0.00733189 0)
(1.001 0.0102627 0)
(1.00302 0.00962838 0)
(1.00392 0.00988376 0)
(1.00439 0.0103802 0)
(1.00508 0.0112281 0)
(1.00578 0.0111853 0)
(1.00569 0.0117595 0)
(1.00507 0.011786 0)
(1.00348 0.0122184 0)
(1.00056 -0.000500637 0)
(0.998419 8.03135e-05 0)
(0.997588 0.00285317 0)
(1.00339 0.00603257 0)
(1.00381 -3.61248e-05 0)
(0.997906 0.00151217 0)
(1.00019 0.00215616 0)
(1.00083 0.00340866 0)
(0.99908 0.00588286 0)
(0.999512 0.00567374 0)
(1.00079 0.00707608 0)
(1.00121 0.00995276 0)
(1.00301 0.00975672 0)
(1.00402 0.00983144 0)
(1.00458 0.0103102 0)
(1.00522 0.0112086 0)
(1.00586 0.0111649 0)
(1.00577 0.0115348 0)
(1.00514 0.0114093 0)
(1.00352 0.0117238 0)
(1.00054 -0.000437166 0)
(0.998497 9.06939e-05 0)
(0.997775 0.00278759 0)
(1.00327 0.00579678 0)
(1.00365 0.000105978 0)
(0.997979 0.00163817 0)
(1.00027 0.00234195 0)
(1.00105 0.00322914 0)
(0.999226 0.00593821 0)
(0.999598 0.0059575 0)
(1.00111 0.00686006 0)
(1.00145 0.00971759 0)
(1.00301 0.00982599 0)
(1.00409 0.00980053 0)
(1.00476 0.0101791 0)
(1.00535 0.010964 0)
(1.00593 0.0109982 0)
(1.00582 0.0112947 0)
(1.0052 0.0111976 0)
(1.00359 0.0114213 0)
(1.00051 -0.000419863 0)
(0.998577 0.000149093 0)
(0.997956 0.0026856 0)
(1.00315 0.00550736 0)
(1.00351 0.000298873 0)
(0.998061 0.00178933 0)
(1.00034 0.00251846 0)
(1.00126 0.00308886 0)
(0.999406 0.00597211 0)
(0.999671 0.00619084 0)
(1.0014 0.00675568 0)
(1.00173 0.00943598 0)
(1.00304 0.00984304 0)
(1.00414 0.00979711 0)
(1.00492 0.0100623 0)
(1.00549 0.0107038 0)
(1.00602 0.0108961 0)
(1.00589 0.0111312 0)
(1.00526 0.0111014 0)
(1.00365 0.0111765 0)
(1.00048 -0.000396278 0)
(0.998652 0.000205533 0)
(0.998128 0.00260343 0)
(1.00305 0.00525958 0)
(1.00337 0.000510494 0)
(0.998142 0.00184911 0)
(1.00039 0.00267313 0)
(1.00148 0.0030017 0)
(0.999611 0.00595939 0)
(0.999743 0.00642302 0)
(1.00166 0.00673117 0)
(1.00203 0.00909831 0)
(1.00311 0.00981584 0)
(1.00419 0.00976423 0)
(1.00505 0.00994002 0)
(1.00565 0.0104473 0)
(1.00613 0.0107709 0)
(1.00596 0.0109509 0)
(1.00529 0.0109951 0)
(1.0037 0.0109768 0)
(1.00046 -0.000370299 0)
(0.998727 0.000254258 0)
(0.998297 0.00252885 0)
(1.00294 0.00497553 0)
(1.00324 0.000694527 0)
(0.998229 0.00194736 0)
(1.00043 0.00289129 0)
(1.00169 0.0029549 0)
(0.999848 0.00590075 0)
(0.999819 0.00663807 0)
(1.00188 0.00673013 0)
(1.00233 0.00874797 0)
(1.0032 0.00974272 0)
(1.00422 0.00971393 0)
(1.00516 0.00985718 0)
(1.00581 0.0102439 0)
(1.00626 0.0106189 0)
(1.00605 0.0107685 0)
(1.00534 0.0108829 0)
(1.00373 0.0108128 0)
(1.00044 -0.000350761 0)
(0.998796 0.000300038 0)
(0.998455 0.00244753 0)
(1.00284 0.00469935 0)
(1.00313 0.000898029 0)
(0.998324 0.00208085 0)
(1.00047 0.00307917 0)
(1.00188 0.00290636 0)
(1.0001 0.00577645 0)
(0.999901 0.0068113 0)
(1.00206 0.00676324 0)
(1.00265 0.00845046 0)
(1.00334 0.00963992 0)
(1.00428 0.00968858 0)
(1.00526 0.00983166 0)
(1.00596 0.0100605 0)
(1.00639 0.0104285 0)
(1.00615 0.0105853 0)
(1.00539 0.0107334 0)
(1.00374 0.0106539 0)
(1.00041 -0.000325443 0)
(0.998865 0.000332925 0)
(0.998609 0.00240032 0)
(1.00275 0.00442431 0)
(1.00302 0.00108201 0)
(0.998418 0.00216583 0)
(1.00049 0.00323296 0)
(1.00207 0.00293129 0)
(1.00039 0.00570819 0)
(1 0.0069821 0)
(1.00221 0.00683885 0)
(1.00296 0.00814787 0)
(1.00351 0.00944008 0)
(1.00434 0.00960023 0)
(1.00533 0.00976966 0)
(1.00609 0.00985035 0)
(1.00653 0.0102104 0)
(1.00627 0.0103969 0)
(1.00546 0.0105532 0)
(1.00376 0.0105346 0)
(1.00039 -0.000313821 0)
(0.998929 0.000386096 0)
(0.99875 0.00231554 0)
(1.00266 0.00414173 0)
(1.00293 0.00125844 0)
(0.998524 0.00231199 0)
(1.00052 0.00341897 0)
(1.00224 0.00296401 0)
(1.00069 0.0055509 0)
(1.00011 0.00706825 0)
(1.00231 0.00694945 0)
(1.00325 0.00791158 0)
(1.00371 0.00926206 0)
(1.00443 0.00953494 0)
(1.00539 0.00971762 0)
(1.0062 0.00972195 0)
(1.00668 0.0100325 0)
(1.0064 0.0102238 0)
(1.00555 0.0103615 0)
(1.0038 0.0104159 0)
(1.00037 -0.000274933 0)
(0.998993 0.000389066 0)
(0.998885 0.00228846 0)
(1.00258 0.0038985 0)
(1.00285 0.00134792 0)
(0.998631 0.00244736 0)
(1.00053 0.00362255 0)
(1.00239 0.00302962 0)
(1.00101 0.00538057 0)
(1.00027 0.00709547 0)
(1.00241 0.00706302 0)
(1.00352 0.00770662 0)
(1.00394 0.00905849 0)
(1.00453 0.0094204 0)
(1.00545 0.009638 0)
(1.00629 0.0096558 0)
(1.00681 0.00985105 0)
(1.00652 0.0100459 0)
(1.00566 0.0101629 0)
(1.00384 0.0102922 0)
(1.00035 -0.000289223 0)
(0.999049 0.00048324 0)
(0.999008 0.00218895 0)
(1.0025 0.00365095 0)
(1.00279 0.00146609 0)
(0.998754 0.002595 0)
(1.00055 0.00379607 0)
(1.00252 0.00313831 0)
(1.00133 0.00525839 0)
(1.00043 0.00709972 0)
(1.00247 0.00715397 0)
(1.00377 0.00751858 0)
(1.00419 0.00877903 0)
(1.00467 0.00926038 0)
(1.00554 0.0095321 0)
(1.00637 0.00955531 0)
(1.00694 0.00961611 0)
(1.00665 0.00985531 0)
(1.00579 0.00993761 0)
(1.00391 0.010126 0)
(1.00033 -0.000238045 0)
(0.999106 0.000443029 0)
(0.999127 0.00218872 0)
(1.00243 0.00337106 0)
(1.00274 0.00158993 0)
(0.99888 0.00266171 0)
(1.00055 0.00398844 0)
(1.00262 0.00327835 0)
(1.00165 0.00515389 0)
(1.00063 0.00705707 0)
(1.00252 0.00727178 0)
(1.00397 0.00740439 0)
(1.00445 0.00853968 0)
(1.00483 0.00913482 0)
(1.00562 0.00940891 0)
(1.00642 0.00946798 0)
(1.00704 0.00946252 0)
(1.00678 0.00971539 0)
(1.00592 0.00975688 0)
(1.00399 0.00995319 0)
(1.00031 -0.000224557 0)
(0.999164 0.00046822 0)
(0.99923 0.00217006 0)
(1.00235 0.00309427 0)
(1.0027 0.00165152 0)
(0.999027 0.0027334 0)
(1.00059 0.00419773 0)
(1.00272 0.00345479 0)
(1.00196 0.00507909 0)
(1.00085 0.00700375 0)
(1.00256 0.00738626 0)
(1.00414 0.00734935 0)
(1.00471 0.00832081 0)
(1.00501 0.00897886 0)
(1.00573 0.00927472 0)
(1.00649 0.00943265 0)
(1.00715 0.00934158 0)
(1.0069 0.00956765 0)
(1.00604 0.00958082 0)
(1.00407 0.00976033 0)
(1.00029 -0.000221977 0)
(0.999215 0.000540086 0)
(0.999319 0.00209137 0)
(1.00229 0.00290443 0)
(1.00268 0.00170218 0)
(0.999167 0.00285928 0)
(1.0006 0.0043375 0)
(1.00279 0.00358579 0)
(1.00228 0.00498097 0)
(1.00111 0.00689428 0)
(1.00262 0.00745302 0)
(1.00429 0.00731706 0)
(1.00497 0.00806723 0)
(1.00521 0.0087728 0)
(1.00587 0.00910721 0)
(1.00654 0.00930375 0)
(1.00721 0.00915856 0)
(1.00701 0.00937664 0)
(1.00615 0.00936402 0)
(1.00416 0.00953198 0)
(1.00028 -0.000169517 0)
(0.999263 0.000505626 0)
(0.999409 0.00209034 0)
(1.00223 0.00270857 0)
(1.00267 0.00171748 0)
(0.999325 0.00298241 0)
(1.00063 0.00452559 0)
(1.00284 0.00375749 0)
(1.00257 0.00487349 0)
(1.00138 0.0067113 0)
(1.00268 0.00743586 0)
(1.00438 0.00727199 0)
(1.00521 0.0078248 0)
(1.00544 0.00858071 0)
(1.00602 0.00892061 0)
(1.0066 0.00917217 0)
(1.0073 0.00907646 0)
(1.00712 0.00923168 0)
(1.00626 0.00921091 0)
(1.00426 0.0093612 0)
(1.00026 -0.00016866 0)
(0.999313 0.000550306 0)
(0.999487 0.002073 0)
(1.00216 0.00255619 0)
(1.00268 0.00177353 0)
(0.999495 0.00308781 0)
(1.00065 0.00462799 0)
(1.00286 0.00383555 0)
(1.00284 0.00475651 0)
(1.00168 0.00653682 0)
(1.00277 0.0074418 0)
(1.00446 0.00731992 0)
(1.00544 0.00769887 0)
(1.00567 0.00840143 0)
(1.00618 0.00873945 0)
(1.00669 0.00907292 0)
(1.00735 0.0089801 0)
(1.00719 0.0090467 0)
(1.00635 0.00904674 0)
(1.00435 0.00914447 0)
(1.00024 -0.000128308 0)
(0.999362 0.000547776 0)
(0.99956 0.00207342 0)
(1.0021 0.00244429 0)