/*--------------------------------*- C++ -*----------------------------------*\
| =========                 |                                                 |
| \\      /  F ield         | OpenFOAM: The Open Source CFD Toolbox           |
|  \\    /   O peration     | Version:  v2012                                 |
|   \\  /    A nd           | Website:  www.openfoam.com                      |
|    \\/     M anipulation  |                                                 |
\*---------------------------------------------------------------------------*/
FoamFile
{
    version     2.0;
    format      ascii;
    class       volVectorField;
    location    "8.7";
    object      U;
}
// * * * * * * * * * * * * * * * * * * * * * * * * * * * * * * * * * * * * * //

dimensions      [0 1 -1 0 0 0 0];


internalField   nonuniform List<vector> 
7000
(
(0.98309 -0.000355295 0)
(1.01133 -0.00257947 0)
(0.949043 0.00514806 0)
(1.08638 -0.0141367 0)
(0.781647 -0.00217143 0)
(1.28656 0.0105642 0)
(0.796007 0.00529061 0)
(1.10147 0.0122372 0)
(0.954251 0.00589935 0)
(1.00896 0.00851381 0)
(0.943424 0.00689073 0)
(1.01504 -0.00744713 0)
(0.935457 0.0055574 0)
(1.05447 -0.0135987 0)
(0.889574 -0.00141009 0)
(1.07149 -0.010692 0)
(0.853156 -0.000504521 0)
(1.06847 -0.00659937 0)
(0.833246 -0.00149708 0)
(1.05875 -0.00645423 0)
(0.985249 -0.000344185 0)
(1.00947 -0.00239425 0)
(0.951965 0.00470603 0)
(1.07905 -0.0129306 0)
(0.791668 -0.00410517 0)
(1.27575 0.010554 0)
(0.81776 0.00649568 0)
(1.08788 0.0111909 0)
(0.969078 0.00669505 0)
(1.0002 0.00880258 0)
(0.961552 0.00681071 0)
(0.999173 -0.00727366 0)
(0.961126 0.00469511 0)
(1.02223 -0.0125556 0)
(0.929253 -0.00206359 0)
(1.02537 -0.00977708 0)
(0.908805 -0.000560251 0)
(1.00715 -0.00635895 0)
(0.908538 -0.000685607 0)
(0.979814 -0.00677374 0)
(0.989283 -0.000325594 0)
(1.00608 -0.00221587 0)
(0.95758 0.00428843 0)
(1.06717 -0.0119285 0)
(0.815752 -0.00566102 0)
(1.24962 0.0107538 0)
(0.862536 0.00787844 0)
(1.06007 0.00990852 0)
(0.989603 0.00755613 0)
(0.989341 0.00890541 0)
(0.981959 0.00682538 0)
(0.98713 -0.00735404 0)
(0.986223 0.00435561 0)
(0.998801 -0.012052 0)
(0.965831 -0.00203202 0)
(0.99408 -0.00932686 0)
(0.952065 -1.14628e-05 0)
(0.976233 -0.00622928 0)
(0.949832 0.00021878 0)
(0.956792 -0.0061477 0)
(0.994601 -0.000309168 0)
(1.00173 -0.00206199 0)
(0.965099 0.00396363 0)
(1.05188 -0.0111139 0)
(0.852371 -0.00696964 0)
(1.2084 0.0107134 0)
(0.917679 0.00920283 0)
(1.02921 0.00896185 0)
(1.00379 0.00813931 0)
(0.984408 0.00894961 0)
(0.994336 0.00689158 0)
(0.986491 -0.00749366 0)
(0.998611 0.00431898 0)
(0.991602 -0.0117974 0)
(0.982886 -0.00171423 0)
(0.984122 -0.00920255 0)
(0.970257 0.000696433 0)
(0.970232 -0.0063312 0)
(0.96436 0.0011331 0)
(0.9564 -0.00563834 0)
(1.00046 -0.000295763 0)
(0.997116 -0.00192008 0)
(0.973353 0.0037056 0)
(1.03539 -0.0104964 0)
(0.894493 -0.00803599 0)
(1.15854 0.0103601 0)
(0.966989 0.0104843 0)
(1.00741 0.00842598 0)
(1.00811 0.00845986 0)
(0.986201 0.00903295 0)
(1.00032 0.00691043 0)
(0.993205 -0.00760659 0)
(1.00229 0.00435017 0)
(0.994124 -0.0115678 0)
(0.98705 -0.00135449 0)
(0.984331 -0.0090937 0)
(0.97479 0.00135211 0)
(0.972004 -0.00642272 0)
(0.967776 0.00191427 0)
(0.960266 -0.00519342 0)
(1.00612 -0.000284971 0)
(0.992899 -0.0017901 0)
(0.981199 0.00351425 0)
(1.02031 -0.0100938 0)
(0.933617 -0.0088389 0)
(1.1093 0.00986891 0)
(1.00075 0.011597 0)
(0.998371 0.00826888 0)
(1.00635 0.00859721 0)
(0.990879 0.00907124 0)
(1.00448 0.00686289 0)
(1.0013 -0.00767787 0)
(1.00374 0.00442722 0)
(0.999572 -0.0113029 0)
(0.987303 -0.000956325 0)
(0.987018 -0.00895811 0)
(0.975509 0.00193382 0)
(0.974691 -0.00642454 0)
(0.968645 0.00262863 0)
(0.963777 -0.00475171 0)
(1.01106 -0.000277863 0)
(0.989473 -0.00167199 0)
(0.987938 0.00338568 0)
(1.00846 -0.00988808 0)
(0.964127 -0.00937854 0)
(1.06805 0.00938548 0)
(1.01781 0.0124152 0)
(0.998038 0.00838568 0)
(1.00348 0.00863529 0)
(0.995196 0.00900545 0)
(1.0087 0.00676867 0)
(1.00779 -0.00770636 0)
(1.00564 0.00453741 0)
(1.00475 -0.0109929 0)
(0.987808 -0.00048828 0)
(0.989588 -0.00881555 0)
(0.976525 0.00250473 0)
(0.977098 -0.00633932 0)
(0.970062 0.00325548 0)
(0.966788 -0.00427044 0)
(1.01497 -0.000275311 0)
(0.986914 -0.00156369 0)
(0.993431 0.00330451 0)
(1.00031 -0.00982827 0)
(0.984701 -0.00969506 0)
(1.03769 0.00897429 0)
(1.0222 0.0129235 0)
(1.00047 0.00862875 0)
(1.002 0.00864596 0)
(0.998164 0.00884135 0)
(1.01255 0.00664428 0)
(1.01214 -0.00770124 0)
(1.00769 0.00465839 0)
(1.00875 -0.0106345 0)
(0.989086 4.65144e-05 0)
(0.991568 -0.00866419 0)
(0.97842 0.00307019 0)
(0.979285 -0.00619293 0)
(0.972355 0.00379169 0)
(0.969653 -0.00374433 0)
(1.0178 -0.000276999 0)
(0.985107 -0.00146417 0)
(0.997911 0.00325389 0)
(0.995181 -0.00985869 0)
(0.99708 -0.00984411 0)
(1.01706 0.00865945 0)
(1.01918 0.0131861 0)
(1.00196 0.00887779 0)
(1.00186 0.00865743 0)
(1.00004 0.00860853 0)
(1.01518 0.00650278 0)
(1.01467 -0.00767172 0)
(1.00899 0.00477924 0)
(1.01138 -0.010241 0)
(0.990502 0.000624519 0)
(0.992884 -0.00849579 0)
(0.980665 0.00359979 0)
(0.981241 -0.00598993 0)
(0.975048 0.00424572 0)
(0.972435 -0.00318493 0)
(1.0196 -0.000281707 0)
(0.983931 -0.00137442 0)
(1.00169 0.00322194 0)
(0.99199 -0.00993687 0)
(1.00405 -0.009873 0)
(1.00314 0.00844493 0)
(1.01289 0.0132827 0)
(1.00157 0.00906596 0)
(1.00213 0.0086608 0)
(1.00121 0.0083355 0)
(1.01634 0.00635792 0)
(1.01572 -0.00762223 0)
(1.00911 0.00489611 0)
(1.01257 -0.00983406 0)
(0.991568 0.00122327 0)
(0.993483 -0.00830857 0)
(0.982783 0.00406316 0)
(0.982881 -0.00572706 0)
(0.977734 0.00461619 0)
(0.975071 -0.00260655 0)
(1.02043 -0.000287989 0)
(0.983364 -0.00129694 0)
(1.00496 0.00320318 0)
(0.989834 -0.010037 0)
(1.00796 -0.00981102 0)
(0.993085 0.00832464 0)
(1.00582 0.0132722 0)
(0.999933 0.00916821 0)
(1.00217 0.00864074 0)
(1.00186 0.0080425 0)
(1.01623 0.00622289 0)
(1.01555 -0.00755433 0)
(1.00819 0.00500907 0)
(1.01239 -0.00943069 0)
(0.992164 0.00182138 0)
(0.99342 -0.00810347 0)
(0.984577 0.0044367 0)
(0.984195 -0.00540578 0)
(0.980219 0.00489711 0)
(0.97753 -0.00202192 0)
(1.02032 -0.000294695 0)
(0.983459 -0.0012349 0)
(1.00775 0.00319711 0)
(0.988268 -0.0101453 0)
(1.01017 -0.00967345 0)
(0.985145 0.00828833 0)
(0.999275 0.0131853 0)
(0.997991 0.00918259 0)
(1.0019 0.00859273 0)
(1.00209 0.00774145 0)
(1.01527 0.0061099 0)
(1.01439 -0.00747117 0)
(1.00658 0.00512133 0)
(1.01109 -0.00903783 0)
(0.992395 0.00239112 0)
(0.992906 -0.00787424 0)
(0.986034 0.00470106 0)
(0.985271 -0.0050356 0)
(0.982444 0.00508681 0)
(0.979811 -0.00144143 0)
(1.01934 -0.000301143 0)
(0.984253 -0.00119117 0)
(1.00995 0.00320545 0)
(0.987267 -0.0102535 0)
(1.01119 -0.00946819 0)
(0.978687 0.00832177 0)
(0.99389 0.0130342 0)
(0.996399 0.0091176 0)
(1.0015 0.00852287 0)
(1.002 0.00743908 0)
(1.01381 0.00602885 0)
(1.01258 -0.00737474 0)
(1.00465 0.00523311 0)
(1.00907 -0.00865857 0)
(0.992436 0.00290387 0)
(0.992242 -0.00761288 0)
(0.987219 0.0048461 0)
(0.98623 -0.00462993 0)
(0.984397 0.00518776 0)
(0.981919 -0.000873825 0)
(1.0176 -0.000306996 0)
(0.985691 -0.00116741 0)
(1.01144 0.0032288 0)
(0.987031 -0.0103546 0)
(1.01097 -0.00920142 0)
(0.973749 0.00840525 0)
(0.989976 0.0128251 0)
(0.995406 0.00898663 0)
(1.00113 0.00844193 0)
(1.00175 0.00714127 0)
(1.01217 0.0059857 0)
(1.01044 -0.00726283 0)
(1.00273 0.00533879 0)
(1.00675 -0.00829215 0)
(0.992461 0.00333157 0)
(0.991711 -0.00731292 0)
(0.988214 0.00487136 0)
(0.987176 -0.00420007 0)
(0.986084 0.00520953 0)
(0.983846 -0.000326317 0)
(1.01528 -0.000312016 0)
(0.987606 -0.00116337 0)
(1.01208 0.00326458 0)
(0.987749 -0.0104401 0)
(1.00938 -0.00888049 0)
(0.97058 0.00851313 0)
(0.987603 0.0125666 0)
(0.994982 0.00880612 0)
(1.00087 0.00836036 0)
(1.00144 0.00685256 0)
(1.01057 0.00598283 0)
(1.00827 -0.00713928 0)
(1.00103 0.00543295 0)
(1.00449 -0.0079264 0)
(0.992596 0.00365184 0)
(0.991498 -0.00696603 0)
(0.989091 0.00478621 0)
(0.988165 -0.00375288 0)
(0.987511 0.0051691 0)
(0.985574 0.000196043 0)
(1.01265 -0.000315891 0)
(0.989755 -0.0011766 0)
(1.01187 0.00330689 0)
(0.989421 -0.0105003 0)
(1.00642 -0.0085151 0)
(0.969315 0.0086158 0)
(0.986653 0.0122737 0)
(0.994976 0.0085934 0)
(1.00072 0.00828531 0)
(1.00113 0.00657602 0)
(1.00916 0.00601464 0)
(1.00632 -0.00700668 0)
(0.999707 0.0055079 0)
(1.00254 -0.00754944 0)
(0.992893 0.00384853 0)
(0.991659 -0.00657085 0)
(0.989893 0.00461108 0)
(0.989191 -0.0032924 0)
(0.988689 0.00508451 0)
(0.987082 0.000688754 0)
(1.01 -0.00031818 0)
(0.991878 -0.00120302 0)
(1.01095 0.00334808 0)
(0.991786 -0.0105262 0)
(1.00235 -0.00811699 0)
(0.969828 0.00868389 0)
(0.98689 0.011966 0)
(0.995252 0.00836453 0)
(1.00072 0.00822199 0)
(1.00087 0.00630907 0)
(1.00805 0.0060786 0)
(1.00474 -0.00685765 0)
(0.998782 0.00554963 0)
(1.00105 -0.00715143 0)
(0.993344 0.00391885 0)
(0.992134 -0.00613131 0)
(0.990641 0.00436965 0)
(0.9902 -0.0028219 0)
(0.989632 0.00497911 0)
(0.988345 0.00115043 0)
(1.00758 -0.000318376 0)
(0.993757 -0.00123798 0)
(1.0096 0.00338127 0)
(0.994392 -0.0105111 0)
(0.997692 -0.00770007 0)
(0.971724 0.00869294 0)
(0.988036 0.0116619 0)
(0.995741 0.00813349 0)
(1.00089 0.00817349 0)
(1.00068 0.00605185 0)
(1.0073 0.00616302 0)
(1.00362 -0.00668491 0)
(0.998213 0.00554327 0)
(1.00006 -0.00672544 0)
(0.993899 0.0038765 0)
(0.992799 -0.00564442 0)
(0.991343 0.00408044 0)
(0.991121 -0.00235451 0)
(0.990368 0.00487993 0)
(0.989347 0.00158832 0)
(1.00556 -0.000315983 0)
(0.995255 -0.00127768 0)
(1.00816 0.00340262 0)
(0.996758 -0.0104519 0)
(0.993097 -0.00727899 0)
(0.974456 0.00862668 0)
(0.989812 0.0113743 0)
(0.99643 0.00791106 0)
(1.0013 0.00814105 0)
(1.00058 0.00580839 0)
(1.00689 0.00624986 0)
(1.00298 -0.00647946 0)
(0.997921 0.00548237 0)
(0.999524 -0.00627164 0)
(0.994507 0.00373913 0)
(0.99352 -0.00511157 0)
(0.992001 0.00377362 0)
(0.991893 -0.00190336 0)
(0.990936 0.00479317 0)
(0.990092 0.00200633 0)
(1.004 -0.000310573 0)
(0.996326 -0.00132015 0)
(1.00691 0.00341214 0)
(0.998548 -0.0103498 0)
(0.989143 -0.00686588 0)
(0.97747 0.00847909 0)
(0.991939 0.0111087 0)
(0.997298 0.00770492 0)
(1.00194 0.00812313 0)
(1.00061 0.00558019 0)
(1.00677 0.00633271 0)
(1.00278 -0.00622316 0)
(0.997827 0.00536929 0)
(0.999362 -0.00578144 0)
(0.995133 0.00351731 0)
(0.994194 -0.00455238 0)
(0.992617 0.00348901 0)
(0.992488 -0.00145266 0)
(0.991381 0.0047122 0)
(0.99061 0.002393 0)
(1.0029 -0.000301876 0)
(0.997005 -0.00136514 0)
(1.00602 0.00341263 0)
(0.999659 -0.010209 0)
(0.986185 -0.0064698 0)
(0.98033 0.00825409 0)
(0.994128 0.0108633 0)
(0.998268 0.00751707 0)
(1.00275 0.00812055 0)
(1.0008 0.00537047 0)
(1.00683 0.00639253 0)
(1.00289 -0.00590979 0)
(0.997878 0.00520209 0)
(0.999449 -0.00525087 0)
(0.995757 0.00324242 0)
(0.994767 -0.00399313 0)
(0.993188 0.00323119 0)
(0.992913 -0.000987271 0)
(0.991738 0.00466265 0)
(0.990951 0.00275444 0)
(1.0022 -0.000289889 0)
(0.997381 -0.00141331 0)
(1.00549 0.00340782 0)
(1.0002 -0.0100359 0)
(0.984301 -0.00609605 0)
(0.982776 0.00796393 0)
(0.996102 0.0106322 0)
(0.999198 0.00734706 0)
(1.0036 0.00812818 0)
(1.00111 0.00518778 0)
(1.00697 0.00641437 0)
(1.00319 -0.00553459 0)
(0.998044 0.00498121 0)
(0.999661 -0.00470078 0)
(0.996367 0.00295744 0)
(0.995226 -0.00343334 0)
(0.99371 0.00298936 0)
(0.993212 -0.000538701 0)
(0.992035 0.00465574 0)
(0.991176 0.00311293 0)
(1.00179 -0.000274899 0)
(0.99756 -0.00146543 0)
(1.00521 0.00340114 0)
(1.00038 -0.00983805 0)
(0.983356 -0.00574383 0)
(0.98471 0.00762344 0)
(0.997635 0.0104088 0)
(0.999928 0.0071961 0)
(1.00436 0.0081331 0)
(1.00151 0.00504085 0)
(1.00709 0.0063909 0)
(1.00353 -0.00509421 0)
(0.998304 0.00472176 0)
(0.999892 -0.00414289 0)
(0.996951 0.00267154 0)
(0.995584 -0.0028656 0)
(0.994174 0.00279038 0)
(0.993439 -0.000104217 0)
(0.992299 0.00466323 0)
(0.991347 0.0034527 0)
(1.00157 -0.000257226 0)
(0.997641 -0.00152196 0)
(1.00504 0.00339452 0)
(1.00042 -0.00962282 0)
(0.983121 -0.00541022 0)
(0.986161 0.00725216 0)
(0.998603 0.0101857 0)
(1.00034 0.00706154 0)
(1.0049 0.00812712 0)
(1.00191 0.00493867 0)
(1.00714 0.00631961 0)
(1.00381 -0.00461632 0)
(0.998635 0.00443849 0)
(1.00007 -0.00356562 0)
(0.997494 0.00238528 0)
(0.995863 -0.00230899 0)
(0.994585 0.00265473 0)
(0.99364 0.000315123 0)
(0.992547 0.00468772 0)
(0.991516 0.00377988 0)
(1.00148 -0.000237431 0)
(0.997699 -0.00158183 0)
(1.00484 0.00338708 0)
(1.00044 -0.00939522 0)
(0.983373 -0.00509458 0)
(0.987227 0.00686963 0)
(0.999002 0.00996172 0)
(1.00039 0.00693986 0)
(1.00515 0.00809405 0)
(1.00224 0.00488376 0)
(1.00709 0.00621835 0)
(1.00398 -0.00409803 0)
(0.999002 0.00412784 0)
(1.00017 -0.00298582 0)
(0.997981 0.00212288 0)
(0.996089 -0.00177277 0)
(0.994948 0.00259942 0)
(0.993848 0.000706599 0)
(0.992803 0.00468078 0)
(0.991715 0.00408927 0)
(1.00144 -0.000216485 0)
(0.997781 -0.00164297 0)
(1.00452 0.00337823 0)
(1.00052 -0.00916253 0)
(0.983942 -0.00478769 0)
(0.988028 0.0064903 0)
(0.998931 0.00973205 0)
(1.00014 0.00683766 0)
(1.0051 0.00802435 0)
(1.00246 0.00486433 0)
(1.00692 0.00607353 0)
(1.00402 -0.00353546 0)
(0.999366 0.0038225 0)
(1.00018 -0.0024413 0)
(0.998403 0.00191042 0)
(0.996278 -0.00127251 0)
(0.995277 0.00259539 0)
(0.994067 0.00115317 0)
(0.99308 0.00468957 0)
(0.991969 0.00432376 0)
(1.00142 -0.000194747 0)
(0.997915 -0.00170452 0)
(1.00406 0.00336874 0)
(1.00063 -0.0089304 0)
(0.984714 -0.00449078 0)
(0.988675 0.00613753 0)
(0.998549 0.00948945 0)
(0.999673 0.00675104 0)
(1.00478 0.00790583 0)
(1.00253 0.00489408 0)
(1.00666 0.00589336 0)
(1.00394 -0.00300185 0)
(0.999687 0.0035337 0)
(1.00012 -0.00190902 0)
(0.998756 0.00171719 0)
(0.996433 -0.000771477 0)
(0.995593 0.00254455 0)
(0.994306 0.00154371 0)
(0.993365 0.00482437 0)
(0.992255 0.00464932 0)
(1.00139 -0.000172235 0)
(0.99811 -0.00176508 0)
(1.00345 0.00335893 0)
(1.00075 -0.00870463 0)
(0.985608 -0.00420208 0)
(0.989246 0.00580732 0)
(0.998028 0.00925598 0)
(0.999123 0.00667022 0)
(1.00429 0.00774973 0)
(1.00248 0.00491442 0)
(1.0063 0.00573871 0)
(1.00377 -0.00247378 0)
(0.999944 0.00321866 0)
(1 -0.00140887 0)
(0.999044 0.00158071 0)
(0.996555 -0.00032165 0)
(0.995876 0.00260532 0)
(0.99458 0.00173902 0)
(0.993702 0.00483188 0)
(0.992572 0.00494891 0)
(1.00134 -0.000151457 0)
(0.998364 -0.00181943 0)
(1.00274 0.00334726 0)
(1.00085 -0.00848716 0)
(0.986557 -0.0039181 0)
(0.989785 0.00551212 0)
(0.997515 0.00900837 0)
(0.998589 0.00662039 0)
(1.00369 0.00756435 0)
(1.00234 0.00495082 0)
(1.00588 0.00552618 0)
(1.00353 -0.0019291 0)
(1.00012 0.00301104 0)
(0.999855 -0.00102143 0)
(0.999263 0.00154543 0)
(0.996662 0.000105246 0)
(0.996122 0.00266215 0)
(0.994817 0.00204322 0)
(0.99405 0.00481757 0)
(0.992911 0.00510473 0)
(1.00127 -0.000131398 0)
(0.998666 -0.0018694 0)
(1.00197 0.00333183 0)
(1.00091 -0.00826808 0)
(0.987501 -0.00367021 0)
(0.990302 0.00528871 0)
(0.997117 0.00871786 0)
(0.998142 0.00661662 0)
(1.00308 0.00729197 0)
(1.00213 0.00506865 0)
(1.00542 0.00528554 0)
(1.00327 -0.00144093 0)
(1.00021 0.00275797 0)
(0.999687 -0.000446498 0)
(0.999436 0.0012676 0)
(0.996732 0.000729802 0)
(0.996348 0.00279676 0)
(0.995066 0.00253791 0)
(0.994377 0.00484274 0)
(0.993235 0.00539883 0)
(1.00117 -0.000108424 0)
(0.998997 -0.00191961 0)
(1.0012 0.00332581 0)
(1.00092 -0.00807632 0)
(0.988388 -0.00340338 0)
(0.990791 0.00505663 0)
(0.996884 0.00845985 0)
(0.997819 0.00658906 0)
(1.00252 0.00707118 0)
(1.00191 0.00505356 0)
(1.00493 0.00517359 0)
(1.00301 -0.00103758 0)
(1.00027 0.00258405 0)
(0.999503 -0.000150872 0)
(0.999563 0.00138612 0)
(0.996851 0.000907411 0)
(0.996524 0.00295972 0)
(0.995268 0.00277832 0)
(0.994704 0.00480283 0)
(0.993584 0.00547221 0)
(1.00106 -9.75054e-05 0)
(0.999327 -0.0019433 0)
(1.00048 0.00330126 0)
(1.0009 -0.00786793 0)
(0.989177 -0.00319194 0)
(0.991236 0.00491829 0)
(0.996827 0.00813282 0)
(0.99763 0.00663544 0)
(1.00205 0.00676231 0)
(1.00173 0.00514743 0)
(1.00446 0.00493744 0)
(1.00279 -0.000634793 0)
(1.00025 0.00251854 0)
(0.999384 0.000189343 0)
(0.999626 0.00134418 0)
(0.996907 0.00121511 0)
(0.996701 0.00304379 0)
(0.995457 0.00313112 0)
(0.99497 0.00500414 0)
(0.993871 0.00576794 0)
(1.00093 -7.80805e-05 0)
(0.999624 -0.00198341 0)
(0.999859 0.00329727 0)
(1.00084 -0.00769138 0)
(0.989853 -0.00299425 0)
(0.991615 0.00479399 0)
(0.996929 0.00783964 0)
(0.997548 0.00664523 0)
(1.0017 0.00651184 0)
(1.0016 0.00515075 0)
(1.00402 0.00484184 0)
(1.00262 -0.000428986 0)
(1.00024 0.00254586 0)
(0.999237 0.000493272 0)
(0.999689 0.00139442 0)
(0.99706 0.00144899 0)
(0.996843 0.00318012 0)
(0.995672 0.00320869 0)
(0.995272 0.00516271 0)
(0.994164 0.00611859 0)
(1.00081 -5.35336e-05 0)
(0.999861 -0.00202581 0)
(0.999365 0.00330682 0)
(1.00077 -0.00752834 0)
(0.990413 -0.00276096 0)
(0.99192 0.00463936 0)
(0.997145 0.00755778 0)
(0.99756 0.00667066 0)
(1.00147 0.00631419 0)
(1.00155 0.00506771 0)
(1.00362 0.00485429 0)
(1.00252 -0.000202674 0)
(1.00022 0.00245873 0)
(0.999193 0.000669855 0)
(0.999711 0.00148977 0)
(0.997162 0.00144748 0)
(0.996971 0.00342385 0)
(0.995878 0.00348184 0)
(0.995587 0.00510749 0)
(0.994424 0.00605078 0)
(1.00069 -5.68114e-05 0)
(1.00003 -0.00201209 0)
(0.999005 0.0032533 0)
(1.00069 -0.00725634 0)
(0.990871 -0.00268986 0)
(0.992153 0.0046939 0)
(0.997426 0.00707078 0)
(0.997623 0.00683661 0)
(1.00134 0.00590611 0)
(1.00158 0.00526298 0)
(1.00328 0.00456101 0)
(1.00246 0.000207082 0)
(1.00023 0.00212378 0)
(0.999147 0.0013755 0)
(0.999743 0.00122245 0)
(0.997382 0.00242846 0)
(0.99715 0.00359825 0)
(0.99603 0.00437279 0)
(0.995805 0.00498183 0)
(0.994699 0.00597551 0)
(1.0006 -2.83905e-05 0)
(1.00012 -0.00205977 0)
(0.998765 0.00326472 0)
(1.00063 -0.00711667 0)
(0.99124 -0.00253337 0)
(0.992334 0.00461145 0)
(0.997711 0.00676767 0)
(0.997728 0.00681169 0)
(1.00129 0.00579848 0)
(1.00167 0.00501507 0)
(1.00301 0.00466997 0)
(1.00245 0.000300261 0)
(1.0003 0.00228016 0)
(0.999166 0.00146776 0)
(0.999855 0.00154647 0)
(0.997613 0.00240271 0)
(0.997309 0.00372967 0)
(0.996219 0.00421698 0)
(0.995965 0.00517715 0)
(0.994967 0.00620525 0)
(1.00053 -3.5172e-06 0)
(1.00014 -0.00209589 0)
(0.99862 0.00327266 0)
(1.00059 -0.00694381 0)
(0.991549 -0.00235813 0)
(0.992474 0.00450717 0)
(0.997963 0.00649651 0)
(0.997848 0.00681969 0)
(1.00126 0.00568347 0)
(1.00182 0.0047716 0)
(1.00279 0.00488038 0)
(1.00248 0.000381395 0)
(1.00036 0.00245154 0)
(0.999235 0.00165841 0)
(0.999891 0.00168575 0)
(0.997869 0.00201583 0)
(0.997493 0.00383107 0)
(0.996421 0.0041647 0)
(0.996296 0.00531951 0)
(0.995243 0.0062968 0)
(1.00048 -3.86765e-06 0)
(1.0001 -0.00206583 0)
(0.998552 0.00317796 0)
(1.00055 -0.00656075 0)
(0.991833 -0.00240749 0)
(0.992578 0.00469543 0)
(0.998173 0.00586941 0)
(0.997951 0.00701534 0)
(1.00127 0.00534413 0)
(1.00199 0.0049708 0)
(1.00261 0.00447707 0)
(1.00253 0.000933674 0)
(1.00049 0.00178628 0)
(0.999303 0.00248747 0)
(0.999953 0.00187878 0)
(0.998143 0.0032099 0)
(0.997744 0.00382489 0)
(0.996643 0.00515081 0)
(0.996509 0.00517296 0)
(0.995524 0.005938 0)
(1.00045 3.03062e-05 0)
(1.00005 -0.00211907 0)
(0.998523 0.00317734 0)
(1.00054 -0.00641187 0)
(0.992095 -0.00229116 0)
(0.992681 0.00462675 0)
(0.998322 0.00559328 0)
(0.99805 0.0068691 0)
(1.00126 0.00539599 0)
(1.00215 0.00447122 0)
(1.00248 0.00481784 0)
(1.00255 0.000985332 0)
(1.00066 0.00214195 0)
(0.999486 0.00247492 0)
(1.00011 0.0020617 0)
(0.998414 0.00293275 0)
(0.997986 0.00394415 0)
(0.996871 0.00493417 0)
(0.996596 0.00549644 0)
(0.995786 0.00622479 0)
(1.00044 5.71318e-05 0)
(0.999983 -0.00215905 0)
(0.998508 0.00316377 0)
(1.00052 -0.00618765 0)
(0.992354 -0.00219135 0)
(0.992797 0.00455444 0)
(0.998412 0.0053803 0)
(0.998134 0.00670651 0)
(1.00121 0.00550859 0)
(1.00234 0.00402726 0)
(1.00236 0.00508084 0)
(1.0026 0.000952941 0)
(1.00081 0.00232792 0)
(0.999571 0.00243796 0)
(1.00016 0.00231385 0)
(0.998715 0.00260172 0)
(0.998279 0.00413465 0)
(0.99717 0.00468609 0)
(0.996959 0.00578721 0)
(0.996057 0.00642579 0)
(1.00044 6.54193e-05 0)
(0.999921 -0.002109 0)
(0.998513 0.00299927 0)
(1.00048 -0.00567085 0)
(0.992638 -0.00232266 0)
(0.992913 0.00481233 0)
(0.998474 0.00466729 0)
(0.998195 0.00691291 0)
(1.00117 0.00516333 0)
(1.00246 0.00437772 0)
(1.00226 0.00437418 0)
(1.00258 0.00177923 0)
(1.001 0.00177062 0)
(0.999771 0.00345035 0)
(1.00028 0.00255366 0)
(0.998983 0.0039387 0)
(0.998537 0.00411889 0)
(0.997428 0.00567311 0)
(0.99716 0.00557299 0)
(0.996305 0.00597662 0)
(1.00042 0.000101241 0)
(0.99989 -0.00216367 0)
(0.99851 0.00296287 0)
(1.00044 -0.00548004 0)
(0.992923 -0.00225124 0)
(0.993047 0.00472543 0)
(0.998521 0.00450664 0)
(0.998252 0.00656882 0)
(1.00108 0.00533834 0)
(1.00256 0.00382432 0)
(1.0022 0.00474335 0)
(1.00259 0.0018173 0)
(1.00122 0.0020294 0)
(0.999914 0.00333424 0)
(1.00041 0.00282274 0)
(0.999242 0.00356596 0)
(0.99885 0.00412424 0)
(0.997728 0.0053934 0)
(0.997214 0.00599073 0)
(0.996547 0.00638063 0)
(1.00041 0.000139654 0)
(0.99988 -0.00220304 0)
(0.998501 0.00290231 0)
(1.00039 -0.00518109 0)
(0.993215 -0.00220517 0)
(0.993225 0.00463263 0)
(0.998536 0.00439775 0)
(0.998319 0.00620612 0)
(1.00097 0.00556121 0)
(1.00265 0.00343687 0)
(1.00213 0.00486071 0)
(1.0025 0.00191246 0)
(1.00138 0.00205968 0)
(1.00013 0.00303807 0)
(1.00048 0.00313373 0)
(0.999462 0.00330791 0)
(0.999133 0.00446918 0)
(0.998105 0.00506803 0)
(0.997608 0.00633835 0)
(0.996756 0.00683104 0)
(1.00041 0.000129068 0)
(0.999876 -0.00210225 0)
(0.998504 0.00264171 0)
(1.0003 -0.00452429 0)
(0.993533 -0.00239222 0)
(0.993392 0.00493078 0)
(0.998579 0.00368324 0)
(0.998368 0.00646278 0)
(1.00088 0.00502312 0)
(1.00268 0.00412419 0)
(1.00209 0.00396204 0)
(1.00244 0.0028641 0)
(1.00153 0.00195229 0)
(1.0003 0.00393133 0)
(1.0006 0.00304933 0)
(0.999719 0.00448879 0)
(0.999401 0.00447003 0)
(0.998396 0.00604585 0)
(0.997868 0.00596804 0)
(0.996993 0.00637137 0)
(1.00037 0.000194511 0)
(0.999914 -0.00219885 0)
(0.998495 0.00259667 0)
(1.00022 -0.00434052 0)
(0.993855 -0.00228342 0)
(0.99357 0.00471502 0)
(0.998634 0.00378495 0)
(0.998428 0.00585021 0)
(1.00076 0.00543235 0)
(1.00268 0.00347119 0)
(1.00206 0.00437884 0)
(1.00239 0.0028266 0)
(1.00171 0.00206871 0)
(1.00047 0.00353544 0)
(1.00077 0.00335146 0)
(0.999954 0.00421835 0)
(0.999726 0.00450388 0)
(0.998716 0.00583506 0)
(0.997912 0.00643775 0)
(0.997208 0.00683837 0)
(1.00034 0.000203603 0)
(0.999971 -0.00216157 0)
(0.998479 0.00243669 0)
(1.00013 -0.00392321 0)
(0.994162 -0.00225921 0)
(0.993804 0.00451406 0)
(0.998656 0.00390024 0)
(0.998536 0.0052391 0)
(1.00064 0.0057135 0)
(1.00268 0.00318063 0)
(1.00206 0.00458012 0)
(1.00224 0.00274102 0)
(1.00177 0.00213538 0)
(1.00069 0.00317319 0)
(1.00089 0.00358239 0)
(1.00016 0.00380034 0)
(1.00001 0.00490029 0)
(0.99915 0.00556723 0)
(0.998381 0.00711763 0)
(0.997366 0.00771665 0)
(1.00031 0.000205213 0)
(1.00001 -0.00208774 0)
(0.998494 0.00217064 0)
(1.00002 -0.00330797 0)
(0.994482 -0.00240101 0)
(0.994017 0.00464172 0)
(0.998708 0.00348144 0)
(0.998621 0.00525105 0)
(1.00057 0.00544719 0)
(1.00264 0.00359122 0)
(1.00202 0.00407702 0)
(1.00214 0.00332315 0)
(1.00189 0.0021711 0)
(1.00089 0.00365975 0)
(1.00102 0.00359311 0)
(1.00044 0.00449924 0)
(1.00034 0.00502825 0)
(0.999569 0.0059419 0)
(0.998783 0.00695953 0)
(0.997536 0.00753569 0)
(1.00028 0.000281847 0)
(1.00007 -0.00217126 0)
(0.998508 0.00209235 0)
(0.999911 -0.00309978 0)
(0.994812 -0.00224851 0)
(0.994239 0.00443582 0)
(0.998757 0.00347771 0)
(0.998742 0.00494432 0)
(1.00047 0.00553473 0)
(1.00259 0.00340619 0)
(1.00207 0.00415165 0)
(1.00204 0.00360098 0)
(1.00196 0.0024369 0)
(1.00109 0.00367296 0)
(1.00123 0.00379097 0)
(1.00068 0.00472644 0)
(1.00058 0.00497199 0)
(0.999954 0.00594744 0)
(0.999125 0.00666104 0)
(0.997674 0.00707941 0)
(1.00025 0.000230105 0)
(1.00014 -0.00204173 0)
(0.998524 0.00185075 0)
(0.999806 -0.00259022 0)
(0.995128 -0.00222749 0)
(0.994477 0.00427522 0)
(0.998813 0.00344941 0)
(0.998861 0.00469566 0)
(1.0004 0.00541191 0)
(1.00254 0.00368136 0)
(1.0021 0.00398758 0)
(1.00195 0.00380865 0)
(1.00202 0.00265599 0)
(1.00129 0.00375099 0)
(1.0014 0.00389463 0)
(1.00091 0.00476422 0)
(1.00088 0.0051551 0)
(1.00031 0.00595536 0)
(0.999387 0.00630049 0)
(0.997855 0.00679183 0)
(1.00021 0.000305984 0)
(1.0002 -0.00205366 0)
(0.998552 0.00167318 0)
(0.999703 -0.00224796 0)
(0.995435 -0.00210822 0)
(0.994726 0.0041135 0)
(0.998862 0.00341614 0)
(0.998991 0.00439275 0)
(1.00036 0.00550952 0)
(1.00247 0.00362994 0)
(1.00215 0.00390061 0)
(1.0019 0.00401323 0)
(1.00207 0.00290864 0)
(1.00148 0.0037603 0)
(1.00162 0.00409152 0)
(1.00118 0.00494007 0)
(1.00112 0.00524834 0)
(1.00053 0.00568028 0)
(0.99965 0.00609159 0)
(0.998122 0.00671222 0)
(1.00018 0.000281171 0)
(1.00026 -0.00199994 0)
(0.998587 0.00149923 0)
(0.99961 -0.00192095 0)
(0.995738 -0.00193088 0)
(0.994977 0.00389264 0)
(0.99891 0.00339714 0)
(0.999144 0.00418737 0)
(1.00031 0.00544516 0)
(1.0024 0.00373275 0)
(1.00222 0.00391519 0)
(1.00186 0.0041149 0)
(1.00209 0.00313096 0)
(1.00169 0.00385983 0)
(1.00185 0.00418958 0)
(1.0014 0.00485842 0)
(1.00129 0.00518834 0)
(1.00082 0.00571211 0)
(1.00002 0.00620577 0)
(0.998374 0.00661308 0)
(1.00015 0.000309071 0)
(1.00032 -0.00193991 0)
(0.998633 0.00130711 0)
(0.999524 -0.00163327 0)
(0.996025 -0.00172321 0)
(0.995236 0.00369487 0)
(0.998965 0.00344472 0)
(0.999287 0.003942 0)
(1.00031 0.00537912 0)
(1.00233 0.00381718 0)
(1.00227 0.00383912 0)
(1.00185 0.00415572 0)
(1.00214 0.00342547 0)
(1.00186 0.00394622 0)
(1.00203 0.00422964 0)
(1.00165 0.00492619 0)
(1.00159 0.00539472 0)
(1.00112 0.00582201 0)
(1.00024 0.00604693 0)
(0.998557 0.00634202 0)
(1.00012 0.000315753 0)
(1.00037 -0.00189936 0)
(0.998685 0.00113447 0)
(0.999454 -0.00136844 0)
(0.99631 -0.00149363 0)
(0.995496 0.00349058 0)
(0.999008 0.0034531 0)
(0.999445 0.00371818 0)
(1.00032 0.00532687 0)
(1.00225 0.00389259 0)
(1.00235 0.00383481 0)
(1.00188 0.00423957 0)
(1.00217 0.00365637 0)
(1.00202 0.00399679 0)
(1.00228 0.00430214 0)
(1.00193 0.00496337 0)
(1.00179 0.00537428 0)
(1.00127 0.005664 0)
(1.00046 0.00590424 0)
(0.998804 0.00620926 0)
(1.00009 0.000310794 0)
(1.00042 -0.00182523 0)
(0.998752 0.000966764 0)
(0.999392 -0.00113347 0)
(0.996574 -0.00126944 0)
(0.995757 0.00332575 0)
(0.999063 0.00346089 0)
(0.999597 0.00356058 0)
(1.00036 0.00522042 0)
(1.00219 0.00399822 0)
(1.00241 0.00382217 0)
(1.00192 0.00426039 0)
(1.00221 0.00381872 0)
(1.00218 0.00410649 0)
(1.00246 0.0043514 0)
(1.00217 0.00493953 0)
(1.00204 0.00537355 0)
(1.00155 0.00570449 0)
(1.00071 0.00595675 0)
(0.999018 0.00612768 0)
(1.00007 0.000327145 0)
(1.00046 -0.00175676 0)
(0.998821 0.000781778 0)
(0.999348 -0.000948356 0)
(0.996843 -0.00101051 0)
(0.996019 0.00319908 0)
(0.999106 0.00348449 0)
(0.999754 0.00340306 0)
(1.00041 0.00509423 0)
(1.00212 0.0040457 0)
(1.00248 0.00382801 0)
(1.00199 0.00427676 0)
(1.00227 0.00402119 0)
(1.00232 0.00423497 0)
(1.00269 0.00441986 0)
(1.00246 0.00496805 0)
(1.00227 0.00541625 0)
(1.00173 0.00568248 0)
(1.00088 0.00588811 0)
(0.999205 0.00595967 0)
(1.00004 0.000307591 0)
(1.0005 -0.00167609 0)
(0.998904 0.000626671 0)
(0.999318 -0.000740707 0)
(0.997093 -0.000811174 0)
(0.996277 0.00304995 0)
(0.999159 0.00349763 0)
(0.9999 0.00332124 0)
(1.0005 0.00496708 0)
(1.00207 0.00414009 0)
(1.00255 0.00384951 0)
(1.00207 0.00427027 0)
(1.00234 0.00411522 0)
(1.00244 0.00434112 0)
(1.00286 0.00445911 0)
(1.00271 0.00490224 0)
(1.00251 0.00535147 0)
(1.00198 0.00561098 0)
(1.00107 0.00584873 0)
(0.999387 0.00587881 0)
(1.00002 0.000322077 0)
(1.00053 -0.00157037 0)
(0.998989 0.00044264 0)
(0.9993 -0.000612729 0)
(0.997346 -0.000605092 0)
(0.996542 0.00297596 0)
(0.999211 0.0035036 0)
(1.00005 0.00321526 0)
(1.00058 0.00483434 0)
(1.00202 0.00418171 0)
(1.00261 0.00387517 0)
(1.00217 0.00427339 0)
(1.00243 0.00424777 0)
(1.00258 0.00445996 0)
(1.00305 0.00455555 0)
(1.00298 0.0049028 0)
(1.00276 0.00537152 0)
(1.00218 0.00560389 0)
(1.00124 0.00585601 0)
(0.999563 0.00584107 0)
(1 0.000285581 0)
(1.00055 -0.00143559 0)
(0.999084 0.000268291 0)
(0.999302 -0.000409596 0)
(0.997588 -0.000426473 0)
(0.996798 0.00293934 0)
(0.999263 0.00356094 0)
(1.00019 0.00315052 0)
(1.00071 0.00465806 0)
(1.002 0.00419756 0)
(1.00267 0.00390146 0)
(1.00229 0.00427244 0)
(1.00253 0.00429727 0)
(1.0027 0.0045304 0)
(1.00319 0.00462931 0)
(1.00321 0.00485616 0)
(1.00301 0.00531698 0)
(1.00244 0.00554096 0)
(1.00142 0.00580992 0)
(0.999698 0.00576527 0)
(0.99998 0.000298797 0)
(1.00057 -0.00134767 0)
(0.99918 0.000126173 0)
(0.999309 -0.000373272 0)
(0.99783 -0.000221219 0)
(0.997064 0.00277505 0)
(0.999308 0.00363795 0)
(1.00031 0.00316772 0)
(1.00082 0.00455387 0)
(1.00199 0.00421218 0)
(1.00273 0.00393923 0)
(1.0024 0.00426298 0)
(1.00265 0.00434777 0)
(1.00285 0.00458907 0)
(1.00335 0.00473552 0)
(1.00346 0.00487523 0)
(1.00326 0.00530911 0)
(1.00265 0.00549121 0)
(1.0016 0.00575002 0)
(0.999849 0.00574471 0)
(0.999963 0.000272205 0)
(1.00058 -0.00121851 0)
(0.999272 -2.33952e-05 0)
(0.999341 -0.000289415 0)
(0.998065 -7.43745e-05 0)
(0.997328 0.00257918 0)
(0.99939 0.00370583 0)
(1.00042 0.00322472 0)
(1.00095 0.00446503 0)
(1.00199 0.00426701 0)
(1.00279 0.00399382 0)
(1.00252 0.0042943 0)
(1.00277 0.00440484 0)
(1.00299 0.00463406 0)
(1.00347 0.00481597 0)
(1.00365 0.00486663 0)
(1.0035 0.0052523 0)
(1.0029 0.00542836 0)
(1.0018 0.00570442 0)
(0.999993 0.00573202 0)
(0.999946 0.000253771 0)
(1.00058 -0.00105667 0)
(0.999368 -0.000162006 0)
(0.999373 -0.000201851 0)
(0.998286 2.4677e-05 0)
(0.997612 0.00258901 0)
(0.999479 0.00380741 0)
(1.00053 0.00323526 0)
(1.00107 0.00433188 0)
(1.002 0.00419898 0)
(1.00285 0.0039899 0)
(1.00264 0.00425862 0)
(1.00289 0.0044227 0)
(1.00316 0.00462994 0)
(1.00361 0.00488082 0)
(1.00385 0.00489802 0)
(1.00373 0.00522994 0)
(1.00313 0.00539973 0)
(1.00201 0.00564385 0)
(1.00013 0.00570255 0)
(0.999931 0.000245116 0)
(1.00058 -0.000942485 0)
(0.999457 -0.000253265 0)
(0.999421 -0.000182558 0)
(0.99852 0.000214523 0)
(0.99789 0.00258691 0)
(0.99956 0.00378383 0)
(1.00061 0.00320215 0)
(1.0012 0.00418926 0)
(1.00203 0.0042026 0)