/*--------------------------------*- C++ -*----------------------------------*\
| =========                 |                                                 |
| \\      /  F ield         | OpenFOAM: The Open Source CFD Toolbox           |
|  \\    /   O peration     | Version:  v2012                                 |
|   \\  /    A nd           | Website:  www.openfoam.com                      |
|    \\/     M anipulation  |                                                 |
\*---------------------------------------------------------------------------*/
FoamFile
{
    version     2.0;
    format      ascii;
    class       volScalarField;
    location    "0.5";
    object      p;
}
// * * * * * * * * * * * * * * * * * * * * * * * * * * * * * * * * * * * * * //

dimensions      [0 2 -2 0 0 0 0];


internalField   nonuniform List<scalar> 
7000
(
-5.46611e-10
0.00369356
0.0011077
0.00121752
0.00387187
0.00173063
0.000507474
0.00054282
-0.000705387
0.00152505
-8.52824e-05
0.00192146
-4.40551e-05
0.000679504
-0.000815606
6.27349e-05
-0.000101384
0.00075056
0.00135144
0.00268572
4.39976e-06
0.00367964
0.00111111
0.00122822
0.00385257
0.00172292
0.00052189
0.000542743
-0.000665567
0.00150645
-7.97262e-05
0.00188803
-3.59962e-05
0.000666503
-0.00080895
6.07247e-05
-9.67882e-05
0.000746789
0.00135408
0.00259823
9.32465e-06
0.00366316
0.00111759
0.00124101
0.00382553
0.00171817
0.000535597
0.000540967
-0.000622968
0.00147859
-6.86131e-05
0.00184414
-1.55629e-05
0.000639471
-0.000786021
4.5579e-05
-8.03108e-05
0.000727292
0.00135557
0.00246217
1.40578e-05
0.00364762
0.00112572
0.00125119
0.00379886
0.00171667
0.000545611
0.000535979
-0.000577599
0.00144363
-5.75358e-05
0.00179425
5.92887e-06
0.000605533
-0.000758554
2.50453e-05
-6.13537e-05
0.000701774
0.00134831
0.00231539
1.92923e-05
0.00363294
0.00113567
0.00125947
0.00377218
0.00171775
0.000553285
0.000527512
-0.000527501
0.00139983
-4.71778e-05
0.00173772
2.5963e-05
0.000566653
-0.000729993
2.93187e-06
-4.08664e-05
0.000675205
0.00133225
0.00217961
2.54478e-05
0.00361894
0.00114751
0.00126616
0.00374556
0.00172115
0.000559622
0.000516501
-0.000472412
0.00134744
-3.58201e-05
0.00167528
4.71104e-05
0.000524096
-0.000697485
-2.03518e-05
-1.63668e-05
0.000647251
0.00130858
0.00205944
3.2667e-05
0.00360555
0.00116088
0.0012715
0.00371979
0.00172607
0.000565403
0.000504692
-0.000412808
0.00128884
-2.21286e-05
0.00160892
7.09813e-05
0.000479485
-0.000660256
-4.55246e-05
1.13266e-05
0.000616436
0.00127737
0.00195005
4.09517e-05
0.00359253
0.00117529
0.00127611
0.00369509
0.00173163
0.000571324
0.000493788
-0.000349323
0.0012267
-5.56841e-06
0.00154006
9.72895e-05
0.000433429
-0.000620149
-7.31349e-05
3.93325e-05
0.000582902
0.00123777
0.00184693
5.02163e-05
0.0035796
0.00119038
0.00128053
0.0036711
0.00173723
0.000577902
0.000484816
-0.000282635
0.00116307
1.41068e-05
0.00146914
0.000125336
0.000385613
-0.000578653
-0.000103089
6.53582e-05
0.000548188
0.00118912
0.0017483
6.03395e-05
0.00356649
0.00120592
0.00128503
0.00364734
0.00174263
0.000585432
0.000477963
-0.000213403
0.0010993
3.71409e-05
0.00139618
0.000154989
0.000335715
-0.000536217
-0.000134718
8.79652e-05
0.000513937
0.00113159
0.00165334
7.12094e-05
0.00355305
0.0012218
0.00128973
0.00362342
0.00174778
0.00059403
0.000472787
-0.000142223
0.00103626
6.37275e-05
0.00132125
0.000186553
0.000283808
-0.000493131
-0.000166896
0.000105944
0.000481093
0.00106583
0.00156097
8.27399e-05
0.00353916
0.00123801
0.00129466
0.00359912
0.00175266
0.00060369
0.000468535
-6.95868e-05
0.000974485
9.38424e-05
0.0012446
0.000220328
0.00023034
-0.00045012
-0.000198159
0.000117994
0.000449828
0.000992774
0.00146988
9.48642e-05
0.00352476
0.00125457
0.00129986
0.00357433
0.00175721
0.000614355
0.000464405
4.15476e-06
0.000914255
0.000127124
0.00116661
0.000256328
0.000176082
-0.000408327
-0.000227067
0.000122844
0.000420009
0.000913722
0.00137879
0.000107524
0.00350978
0.00127155
0.00130536
0.00354899
0.00176142
0.000625965
0.000459708
7.88221e-05
0.000855651
0.00016286
0.00108782
0.000294184
0.000122104
-0.000369118
-0.000252492
0.000119509
0.000391243
0.000830191
0.00128666
0.000120663
0.00349414
0.00128901
0.00131122
0.0035231
0.00176525
0.00063849
0.000453931
0.000154393
0.000798542
0.000200101
0.00100889
0.000333119
6.97702e-05
-0.000334015
-0.000273612
0.000107462
0.000362535
0.000743718
0.00119297
0.000134236
0.0034778
0.00130705
0.00131746
0.00349669
0.0017687
0.000651929
0.000446736
0.000230947
0.000742658
0.000237808
0.000930558
0.000371981
2.06041e-05
-0.000304555
-0.00028992
8.6683e-05
0.000332332
0.000655611
0.00109769
0.000148213
0.00346068
0.00132575
0.00132411
0.00346983
0.00177179
0.000666319
0.000437939
0.000308582
0.000687705
0.000274951
0.000853724
0.000409375
-2.40437e-05
-0.000282135
-0.000301276
5.75847e-05
0.000298882
0.000566874
0.00100113
0.00016259
0.00344275
0.00134515
0.00133117
0.00344257
0.00177448
0.00068173
0.000427485
0.000387328
0.000633494
0.000310528
0.000779537
0.00044377
-6.31758e-05
-0.000267876
-0.000308191
2.09925e-05
0.000260823
0.000478397
0.000903751
0.00017739
0.00342397
0.00136531
0.00133859
0.00341499
0.0017767
0.000698257
0.000415453
0.000467074
0.000580063
0.000343578
0.000709348
0.000473603
-9.6064e-05
-0.000262529
-0.000311826
-2.17274e-05
0.000217212
0.000390646
0.000806046
0.000192663
0.00340431
0.00138627
0.0013463
0.00338718
0.00177834
0.000715992
0.000402042
0.000547536
0.000527741
0.000373195
0.0006445
0.000497436
-0.000122148
-0.000266422
-0.000313755
-6.89014e-05
0.000167184
0.000303469
0.000708636
0.000208473
0.00338375
0.00140803
0.00135419
0.00335921
0.00177928
0.000735014
0.000387531
0.000628281
0.000477166
0.000398449
0.000586145
0.00051406
-0.00014117
-0.000279375
-0.000315999
-0.000119111
0.00011007
0.000216617
0.000612434
0.000224891
0.00336226
0.00143061
0.00136215
0.00333115
0.0017794
0.000755387
0.00037219
0.000708752
0.000429424
0.000418269
0.000535149
0.000522635
-0.000153596
-0.000300643
-0.000320644
-0.000171342
4.56258e-05
0.000129832
0.000518498
0.000241984
0.0033398
0.00145404
0.0013701
0.00330311
0.0017786
0.000777158
0.000356298
0.00078827
0.000385873
0.000431612
0.000492131
0.000522626
-0.000160453
-0.000328977
-0.000329631
-0.000224876
-2.57549e-05
4.27564e-05
0.000427569
0.000259815
0.0033163
0.00147834
0.00137795
0.00327515
0.00177684
0.000800323
0.000340276
0.000865941
0.000347867
0.000437577
0.000457337
0.000513887
-0.000163054
-0.000362832
-0.000344745
-0.000279287
-0.00010292
-4.4907e-05
0.000339694
0.000278436
0.00329172
0.00150353
0.00138564
0.00324735
0.00177414
0.000824783
0.00032471
0.000940612
0.000316753
0.000435356
0.000430699
0.000496859
-0.000163249
-0.00040062
-0.000367451
-0.000334762
-0.000184405
-0.000133224
0.000254707
0.000297894
0.00326597
0.00152966
0.00139312
0.00321975
0.00177061
0.000850266
0.000310288
0.001011
0.000293646
0.000424318
0.000411875
0.000472639
-0.000163293
-0.000441019
-0.000398957
-0.000392395
-0.000268855
-0.000221704
0.000172955
0.000318236
0.00323899
0.00155677
0.00140038
0.00319239
0.0017664
0.00087638
0.000297721
0.00107602
0.000279395
0.000404038
0.000400054
0.00044295
-0.000165405
-0.000483189
-0.000439726
-0.000453478
-0.000355168
-0.000309325
9.49144e-05
0.000339509
0.0032107
0.00158489
0.00140739
0.00316526
0.00176174
0.000902631
0.000287841
0.00113475
0.000274542
0.000374483
0.000393833
0.000409848
-0.00017126
-0.000526736
-0.000489354
-0.000518843
-0.0004429
-0.00039545
2.08112e-05
0.000361763
0.00318102
0.00161405
0.00141417
0.00313832
0.00175706
0.000928335
0.00028141
0.0011865
0.000279236
0.000336195
0.000391388
0.000375483
-0.000182076
-0.000571705
-0.000547147
-0.000589282
-0.000532605
-0.000480199
-4.86352e-05
0.000385046
0.00314988
0.00164425
0.00142075
0.00311136
0.00175301
0.000952835
0.000278815
0.00123067
0.000293425
0.000290171
0.000390558
0.000341873
-0.000198737
-0.000618594
-0.000612765
-0.000665866
-0.000624898
-0.000563245
-0.000112046
0.000409414
0.00311721
0.00167549
0.00142718
0.00308415
0.00175017
0.000975575
0.000280408
0.00126673
0.0003167
0.00023803
0.000388891
0.000310573
-0.000221226
-0.000668266
-0.000686404
-0.000749643
-0.000719839
-0.000643468
-0.000167957
0.000434924
0.00308293
0.00170775
0.00143359
0.00305646
0.00174911
0.000995923
0.00028646
0.00129456
0.000348195
0.000182155
0.000384054
0.000282109
-0.000248858
-0.000721191
-0.000768015
-0.000841329
-0.000817964
-0.000720198
-0.000215019
0.000461631
0.003047
0.00174094
0.00144016
0.00302793
0.00175055
0.00101342
0.000296828
0.00131442
0.000386545
0.000125369
0.000374573
0.000255823
-0.000281179
-0.000777426
-0.000857037
-0.000940848
-0.000920431
-0.000793909
-0.000252002
0.000489586
0.00300939
0.00177496
0.00144714
0.00299808
0.00175508
0.00102795
0.000311246
0.00132673
0.000429806
7.02761e-05
0.000359751
0.000230491
-0.000318537
-0.000837511
-0.000952621
-0.0010468
-0.00102754
-0.000865872
-0.000278199
0.000518839
0.00297009
0.00180964
0.00145485
0.00296641
0.00176314
0.00103959
0.000329292
0.00133223
0.000476024
1.87607e-05
0.000338992
0.000204486
-0.000361726
-0.000902091
-0.00105256
-0.00115611
-0.00113769
-0.000937065
-0.000294503
0.000549442
0.00292908
0.00184477
0.00146372
0.00293249
0.00177496
0.00104849
0.00035025
0.00133236
0.000523387
-2.79101e-05
0.000312278
0.000176658
-0.000411847
-0.000971716
-0.00115409
-0.00126482
-0.00124798
-0.00100908
-0.000303953
0.000581438
0.00288641
0.00188008
0.00147424
0.00289592
0.00179056
0.00105495
0.000373186
0.00132891
0.00057027
-6.97278e-05
0.000280192
0.000147376
-0.000469393
-0.00104718
-0.00125528
-0.00136951
-0.00135484
-0.00108338
-0.000310872
0.000614855
0.0028422
0.00191518
0.0014869
0.00285638
0.0018099
0.00105977
0.000396618
0.00132323
0.000615854
-0.000107674
0.000242239
0.000116763
-0.00053371
-0.00112844
-0.00135489
-0.00146837
-0.00145509
-0.00115954
-0.000318664
0.000649716
0.00279658
0.00194955
0.00150218
0.00281381
0.00183261
0.00106429
0.000418719
0.00131621
0.00066004
-0.000142947
0.000197344
8.44222e-05
-0.000602672
-0.00121479
-0.00145226
-0.00156129
-0.00154624
-0.00123512
-0.00032875
0.000686045
0.00274974
0.00198264
0.00152049
0.00276839
0.00185813
0.00107
0.000437897
0.00130837
0.000702985
-0.000176877
0.000143822
5.0396e-05
-0.000672937
-0.00130541
-0.00154779
-0.00164957
-0.00162671
-0.00130508
-0.000340785
0.000723828
0.00270201
0.00201381
0.00154205
0.00272045
0.00188563
0.0010785
0.000453201
0.00129931
0.000736057
-0.000209444
8.00983e-05
1.46978e-05
-0.000740742
-0.00139936
-0.00164257
-0.00173475
-0.00169666
-0.00136442
-0.000352863
0.000763036
0.00265378
0.00204235
0.00156711
0.00267056
0.00191365
0.00109168
0.000464505
0.0012873
0.000780574
-0.000239696
6.56361e-06
-2.33132e-05
-0.000803063
-0.0014963
-0.00173812
-0.00181766
-0.00175703
-0.00140876
-0.000361883
0.00080365
0.00260537
0.00206797
0.00159586
0.00261961
0.00194038
0.00111083
0.000472515
0.00127002
0.00082472
-0.000265751
-7.60308e-05
-6.50027e-05
-0.000857086
-0.00159491
-0.0018361
-0.00189831
-0.00180947
-0.00143624
-0.00036413
0.000845629
0.00255721
0.00208951
0.00162813
0.0025687
0.00196421
0.00113659
0.000478818
0.00124538
0.000867134
-0.000285974
-0.000166313
-0.000111858
-0.000900898
-0.00169247
-0.00193803
-0.00197641
-0.00185584
-0.00144827
-0.00035645
0.0008889
0.00250978
0.0021066
0.00166356
0.00251913
0.00198384
0.0011692
0.000485327
0.00121226
0.000904887
-0.000299166
-0.000261527
-0.000165661
-0.000934699
-0.00178549
-0.0020455
-0.002053
-0.00189797
-0.00144742
-0.000336455
0.000933389
0.00246348
0.00211879
0.00170166
0.00247244
0.00199828
0.00120751
0.000494036
0.00117099
0.000935529
-0.000305178
-0.000359304
-0.000228448
-0.000959511
-0.00186914
-0.00215907
-0.00213081
-0.00193676
-0.00143587
-0.000303682
0.000979004
0.00241868
0.00212594
0.00174166
0.00243017
0.00200725
0.00124939
0.000506529
0.00112246
0.000957725
-0.000304171
-0.00045732
-0.000301065
-0.000977618
-0.00193881
-0.00227721
-0.00221254
-0.00197288
-0.00141693
-0.000259713
0.00102566
0.00237575
0.00212788
0.00178242
0.00239365
0.00201112
0.00129257
0.000523556
0.00106781
0.000970509
-0.000295977
-0.000552954
-0.000383868
-0.00099359
-0.00199118
-0.00239529
-0.00230012
-0.00200887
-0.00139507
-0.000206522
0.00107325
0.00233501
0.00212469
0.00182254
0.00236361
0.00201134
0.00133495
0.000545435
0.00100872
0.000973248
-0.00028091
-0.000644033
-0.000476856
-0.00101192
-0.00202417
-0.00250707
-0.00239535
-0.00204866
-0.001374
-0.00014653
0.00112169
0.00229674
0.00211697
0.00186047
0.00234034
0.00200976
0.00137504
0.000571747
0.000946838
0.000965518
-0.000260032
-0.000728522
-0.000578589
-0.00103594
-0.00203864
-0.0026078
-0.00249895
-0.00209475
-0.00135529
-8.21682e-05
0.00117092
0.00226114
0.00210565
0.00189487
0.00232324
0.00200834
0.00141245
0.000601081
0.00088307
0.000947646
-0.000234381
-0.000804395
-0.00068671
-0.00106908
-0.00203843
-0.00269247
-0.00260813
-0.00214866
-0.00134155
-1.65686e-05
0.00122081
0.00222846
0.00209127
0.00192452
0.00231123
0.00200896
0.00144708
0.000632505
0.000818221
0.000919552
-0.000204708
-0.000870064
-0.000798534
-0.00111402
-0.00202827
-0.00275535
-0.00271773
-0.00221376
-0.00133742
4.73382e-05
0.0012712
0.00219898
0.00207439
0.00194845
0.00230289
0.00201278
0.00147931
0.000665593
0.000753473
0.000881006
-0.000172541
-0.000924
-0.000910852
-0.00117178
-0.00201361
-0.00279355
-0.00282215
-0.00229169
-0.00134686
0.000107654
0.00132184
0.00217307
0.00205518
0.0019659
0.00229649
0.00202044
0.00151066
0.000699656
0.000690104
0.000832311
-0.00014063
-0.000965229
-0.0010202
-0.0012419
-0.00200096
-0.00280807
-0.00291451
-0.0023793
-0.0013714
0.000161516
0.00137237
0.00215109
0.00203567
0.00197644
0.00229051
0.00203178
0.00154242
0.000734774
0.000629428
0.00077386
-0.000111823
-0.000993889
-0.00112313
-0.00132165
-0.00199608
-0.00280312
-0.0029884
-0.00246993
-0.00141188
0.000205125
0.00142239
0.00213349
0.00201787
0.00198005
0.00228339
0.00204543
0.00157528
0.000772121
0.00057263
0.000706182
-8.80387e-05
-0.00101067
-0.00121716
-0.0014072
-0.00200282
-0.00278516
-0.00303996
-0.00255551
-0.00146461
0.000235923
0.00147162
0.0021206
0.00200105
0.0019768
0.00227389
0.00205996
0.00160963
0.000812664
0.0005211
0.000630544
-7.1214e-05
-0.00101701
-0.00130119
-0.00149466
-0.00202227
-0.00276088
-0.00306942
-0.00262889
-0.00152187
0.000254857
0.00151984
0.00211235
0.00198609
0.00196707
0.00226068
0.00207418
0.0016457
0.000856937
0.00047691
0.000548758
-6.38049e-05
-0.00101491
-0.00137465
-0.00158039
-0.00205314
-0.00273645
-0.00308073
-0.00268581
-0.00157401
0.00026654
0.0015669
0.0021088
0.00197382
0.00195173
0.00224237
0.00208667
0.00168295
0.000905226
0.000442303
0.000462946
-6.7251e-05
-0.00100609
-0.00143746
-0.00166209
-0.00209294
-0.00271617
-0.00307789
-0.00272411
-0.00161418
0.000275931
0.00161279
0.00210909
0.00196502
0.00193234
0.00221818
0.00209557
0.00172002
0.000957703
0.000418579
0.000376048
-8.12641e-05
-0.00099181
-0.00148993
-0.00173879
-0.00213855
-0.00270194
-0.00306398
-0.0027453
-0.00164053
0.000287815
0.00165754
0.00211238
0.00196048
0.00191076
0.00218739
0.00209929
0.00175568
0.00101414
0.000406469
0.000292014
-0.000104931
-0.000974766
-0.00153276
-0.00180964
-0.00218647
-0.0026945
-0.00304257
-0.00275279
-0.00165465
0.000305982
0.00170124
0.00211772
0.00196086
0.00188871
0.00214982
0.00209652
0.00178806
0.00107359
0.000407075
0.000214648
-0.000137906
-0.000958148
-0.00156573
-0.00187357
-0.00223361
-0.00269353
-0.00301757
-0.00274859
-0.00165727
0.000331144
0.00174402
0.00212424
0.00196618
0.00186776
0.00210618
0.00208511
0.00181495
0.00113507
0.00042107
0.000146761
-0.00017847
-0.000942924
-0.00158833
-0.00193064
-0.00227857
-0.00269753
-0.00299128
-0.002733
-0.00164921
0.000361341
0.00178592
0.00213169
0.00197599
0.00184968
0.00205794
0.00206424
0.00183435
0.00120055
0.000448828
9.1156e-05
-0.000223222
-0.000929582
-0.00160161
-0.00198188
-0.00232092
-0.00270339
-0.00296388
-0.00270739
-0.00163212
0.000394646
0.00182696
0.00213984
0.00198952
0.00183656
0.00200748
0.00203331
0.00184427
0.00126106
0.0004891
5.00388e-05
-0.000268685
-0.000918695
-0.0016065
-0.00202717
-0.0023608
-0.00270838
-0.00293519
-0.00267508
-0.00160783
0.000431004
0.00186704
0.00214886
0.00200334
0.00182973
0.00195762
0.00199219
0.00184422
0.00131463
0.000538344
2.42142e-05
-0.000311875
-0.000909971
-0.0016025
-0.00206476
-0.00239891
-0.00271243
-0.00290523
-0.00263742
-0.00157667
0.000469739
0.00190596
0.00215903
0.00201656
0.00182952
0.00191086
0.00194159
0.00183403
0.00136035
0.000592856
1.38937e-05
-0.00035073
-0.000903044
-0.00158891
-0.00209189
-0.00243553
-0.00271758
-0.0028743
-0.00259438
-0.00153865
0.000510613
0.00194371
0.00217045
0.00202929
0.00183434
0.00186954
0.00188406
0.00181283
0.00139748
0.000650377
1.84007e-05
-0.000383401
-0.000898403
-0.00156605
-0.00210539
-0.00246951
-0.0027265
-0.0028444
-0.00254669
-0.00149315
0.000555127
0.00198043
0.00218232
0.00204181
0.00184149
0.00183504
0.0018252
0.00177937
0.00142402
0.000709648
3.64878e-05
-0.000408707
-0.000896589
-0.00153652
-0.0021032
-0.00249681
-0.00273896
-0.00281697
-0.00249608
-0.00144065
0.000603941
0.00201625
0.00219407
0.00205501
0.00184917
0.0018074
0.00177059
0.00173414
0.00143793
0.00076889
6.7377e-05
-0.000425617
-0.000897718
-0.00150471
-0.00208584
-0.00251255
-0.00275245
-0.00279342
-0.00244418
-0.00138191
0.00065696
0.00205151
0.00220385
0.00206906
0.0018571
0.00178538
0.00172324
0.00167971
0.00143716
0.000824739
0.00010999
-0.000431827
-0.00090127
-0.00147462
-0.00205626
-0.00251279
-0.00276287
-0.00277468
-0.00239412
-0.00131959
0.000713841
0.00208634
0.00221091
0.00208386
0.00186578
0.00176595
0.00168443
0.00162313
0.00142129
0.0008726
0.000162491
-0.000424598
-0.000905247
-0.00144961
-0.0020193
-0.00249562
-0.00276488
-0.0027594
-0.00234894
-0.00125797
0.000772899
0.00212058
0.00220979
0.00209826
0.00187679
0.00174712
0.00165336
0.00157161
0.00139252
0.000906547
0.000219876
-0.000401659
-0.000903836
-0.00143024
-0.00198117
-0.00246409
-0.00275434
-0.00274434
-0.00230991
-0.00120074
0.000831316
0.00215399
0.00220864
0.00211038
0.00189141
0.00172973
0.00162629
0.00152842
0.00135561
0.000923624
0.000275859
-0.000364514
-0.000891726
-0.00141311
-0.00194627
-0.00242404
-0.00273073
-0.00272631
-0.00227612
-0.00114995
0.000886392
0.00218606
0.0022123
0.00211908
0.00190935
0.0017151
0.00159931
0.00149271
0.00131936
0.000926942
0.000323684
-0.000318862
-0.00086786
-0.00139303
-0.00191446
-0.00238058
-0.00269589
-0.00270188
-0.00224534
-0.00110705
0.000935256
0.00221596
0.00221853
0.00212381
0.00192912
0.00170588
0.00157062
0.001463
0.00128869
0.000920003
0.000359395
-0.000270416
-0.000833868
-0.00136624
-0.00188353
-0.00233751
-0.00265357
-0.00266991
-0.00221483
-0.00107031
0.000977373
0.00224281
0.00222812
0.0021247
0.00194807
0.00170459
0.00154144
0.00143566
0.00126412
0.000909593
0.000384632
-0.000225536
-0.000793758
-0.00133197
-0.00185128
-0.00229602
-0.00260703
-0.00263073
-0.00218181
-0.00103757
0.00101275
0.00226572
0.0022414
0.0021233
0.00196264
0.00171157
0.00151457
0.00140668
0.00124352
0.000901774
0.000403193
-0.000187711
-0.000752902
-0.00129138
-0.00181621
-0.00225645
-0.00255897
-0.0025851
-0.00214426
-0.00100632
0.00104227
0.00228422
0.00225798
0.00212229
0.00197028
0.00172547
0.00149421
0.00137585
0.00122454
0.000897483
0.00042011
-0.000155045
-0.000716044
-0.0012486
-0.00177895
-0.00222018
-0.00251297
-0.00253515
-0.00210034
-0.000972207
0.00106951
0.00229815
0.00227709
0.00212472
0.00196981
0.00174325
0.0014839
0.00134506
0.0012035
0.000894006
0.000438536
-0.000123816
-0.000684281
-0.0012084
-0.00174083
-0.00218758
-0.00247217
-0.00248406
-0.00204912
-0.000930725
0.00109833
0.00230791
0.00229689
0.00213307
0.00196205
0.00175965
0.00148463
0.00131701
0.00117992
0.000888327
0.000456921
-8.98945e-05
-0.000656168
-0.00117335
-0.00170289
-0.00215709
-0.00243785
-0.00243699
-0.00199308
-0.000880025
0.00113182
0.00231447
0.00231486
0.00214798
0.0019499
0.00176905
0.00149498
0.00129623
0.0011559
0.00087803
0.000471531
-5.18931e-05
-0.000627096
-0.00114428
-0.00166591
-0.00212695
-0.00240933
-0.00239777
-0.0019393
-0.000824814
0.00116977
0.00231899
0.0023289
0.00216878
0.00193763
0.00176809
0.00151261
0.00128611
0.00113287
0.000864175
0.000478117
-1.40273e-05
-0.000592076
-0.00111828
-0.00163069
-0.00209528
-0.00238424
-0.00236852
-0.00189598
-0.000773748
0.00120863
0.00232283
0.00233718
0.0021933
0.0019309
0.00175638
0.00153074
0.00128766
0.00111426
0.000849388
0.000474952
1.83117e-05
-0.000550063
-0.00109029
-0.00159707
-0.00206073
-0.00235937
-0.00234847
-0.00186747
-0.000735341
0.00124203
0.00232736
0.002339
0.00221689
0.00193449
0.00173631
0.00154075
0.0012989
0.0011037
0.00083621
0.000464513
3.8949e-05
-0.000504733
-0.00105624
-0.00156299
-0.00202346
-0.00233074
-0.00233253
-0.00185276
-0.000713846
0.00126407
0.00233424
0.00233457
0.0022341
0.001949
0.00171369
0.00153734
0.00131633
0.00110343
0.000827009
0.000451607
4.46137e-05
-0.000461939
-0.00101446
-0.00152505
-0.00198253
-0.00229575
-0.00231301
-0.0018458
-0.000708277
0.00126939
0.00234359
0.00232496
0.002241
0.00197268
0.00169756
0.00151999
0.00133095
0.00111439
0.000823533
0.000440826
3.95919e-05
-0.000430174
-0.000967931
-0.00148242
-0.00193583
-0.00225121
-0.0022829
-0.00183592
-0.000712775
0.00125587
0.00235506
0.00231303
0.00223602
0.00200053
0.00169532
0.00149328
0.00133004
0.00113231
0.000828653
0.000435561
3.26093e-05
-0.000411576
-0.000922648
-0.00143515
-0.00188484
-0.00219753
-0.00223932
-0.00181516
-0.000717129
0.00122821
0.00236785
0.00230176
0.00222016
0.00202466
0.00170714
0.00146548
0.00131018
0.00114907
0.000843101
0.000434097
2.80708e-05
-0.000401361
-0.000881995
-0.00138201
-0.00182846
-0.0021365
-0.00218243
-0.00177895
-0.000713893
0.00119191
0.00238052
0.0022931
0.00219565
0.00203901
0.0017302
0.00144666
0.00127267
0.00115368
0.000868309
0.000437851
2.59507e-05
-0.000394783
-0.0008498
-0.00132673
-0.0017652
-0.00206859
-0.00211586
-0.00172844
-0.000698651
0.001154
0.00239219
0.0022868
0.00216682
0.00203983
0.00175863
0.00144715
0.001225
0.00113035
0.000898578
0.000455211
2.72279e-05
-0.000384367
-0.000819277
-0.0012718
-0.00169693
-0.00199403
-0.00204308
-0.00167373
-0.000683098
0.00110699
0.00240068
0.00228671
0.00213788
0.00202844
0.0017811
0.00146361
0.0011828
0.00107451
0.000912005
0.00048477
3.52824e-05
-0.000368082
-0.000779759
-0.00120289
-0.00160782
-0.00189835
-0.00195325
-0.00160946
-0.000672175
0.00103029
0.00240356
0.00228906
0.00211602
0.00200624
0.00179444
0.00148881
0.00116048
0.000998672
0.000890115
0.000510596
4.7993e-05
-0.000351145
-0.000737188
-0.00111729
-0.00148481
-0.0017586
-0.00182131
-0.00151338
-0.000652092
0.000917287
0.00241311
0.00227932
0.00209752
0.00198186
0.00179324
0.00151688
0.00115979
0.000917502
0.000833695
0.000514929
5.01168e-05
-0.000337043
-0.000698415
-0.00102408
-0.00133083
-0.00155909
-0.00160125
-0.00131352
-0.000538887
0.000849668
0.00240503
0.00229987
0.00207645
0.00196407
0.00177946
0.00153987
0.0011753
0.000857853
0.000742699
0.000494198
1.25001e-05
-0.000394297
-0.000734765
-0.00101664
-0.00125853
-0.00142879
-0.00141986
-0.00109699
-0.000304683
0.00110743
0.00240828
0.00227574
0.00208363
0.00193401
0.00177741
0.00153467
0.00119661
0.000826482
0.000696764
0.000610736
0.000258147
-0.000136706
-0.000478557
-0.000843754
-0.00125431
-0.00163404
-0.00186018
-0.00178986
-0.00127397
-0.000214016
0.00242569
0.00225028
0.00208245
0.00191758
0.00178916
0.00155148
0.00121856
0.000642918
0.000149487
-0.00014594
-0.000488371
-0.000727572
-0.000638739
-0.000249071
0.000369304
0.0011109
0.00182933
0.00232246
0.00235316
0.00172007
0.00240225
0.00227716
0.00206733
0.00191193
0.0017652
0.00157418
0.00138365
0.00112856
0.000902926
0.000751393
0.00044546
-4.35806e-05
-0.000645974
-0.00132063
-0.00202893
-0.00271906
-0.00324874
-0.00341257
-0.00296992
-0.0017268
0.00243001
0.00221622
0.00207737
0.00192222
0.00180337
0.00159696
0.00129026
0.000788494
0.000164437
-0.000240958
-0.000435526
-0.000614926
-0.000660036
-0.000448964
4.66031e-06
0.000583671
0.00115224
0.00150619
0.00140159
0.000623323
0.00242713
0.00218993
0.00206609
0.00189617
0.00179505
0.00170698
0.00165225
0.00146999
0.00112814
0.000757836
0.000324542
-0.000334248
-0.00117747
-0.00208607
-0.00292582
-0.0036015
-0.0040432
-0.00415982
-0.00385995
-0.00308814
0.00415803
-0.00448505
-0.00783917
-0.00622293
-0.00385305
-0.00185897
-0.000322667
0.00080333
0.00178695
0.00292998
0.00418779
0.00521254
0.00599155
0.00689023
0.00793447
0.00898869
0.0100622
0.0111681
0.0123078
0.0133746
0.0144069
0.0155984
0.0168947
0.0181583
0.0194559
0.0208422
0.022294
0.0238211
0.0254315
0.0271049
0.0288248
0.0306143
0.0324952
0.0344731
0.0365339
0.038679
0.0408838
0.0431654
0.0455152
0.04796
0.0504965
0.0531219
0.0558682
0.0586888
0.0616594
0.0647059
0.0679006
0.0712056
0.0745992
0.0782751
0.00403152
-0.00442744
-0.00780004
-0.00620769
-0.00384481
-0.00185331
-0.000318102
0.000807174
0.00179005
0.00293242
0.0041898
0.00521428
0.00599301
0.00689145
0.00793558
0.00898971
0.0100631
0.0111689
0.0123085
0.0133753
0.0144075
0.0155988
0.0168951
0.0181586
0.0194562
0.0208425
0.0222943
0.0238213
0.0254317
0.027105
0.0288249
0.0306144
0.0324952
0.0344731
0.0365339
0.038679
0.0408838
0.0431655
0.0455152
0.04796
0.0504965
0.0531219
0.0558682
0.0586888
0.0616594
0.0647059
0.0679006
0.0712056
0.0745992
0.0782751
0.00384796
-0.00433153
-0.00773373
-0.00618706
-0.00383515
-0.00184725
-0.000313695
0.000810738
0.00179295
0.00293475
0.00419177
0.00521595
0.00599432
0.00689253
0.00793657
0.00899063
0.0100639
0.0111697
0.0123092
0.0133759
0.014408
0.0155993
0.0168955
0.018159
0.0194565
0.0208427
0.0222945
0.0238215
0.0254318
0.0271051
0.0288249
0.0306144
0.0324953
0.0344731
0.036534
0.0386791
0.0408839
0.0431655
0.0455153
0.04796
0.0504965
0.0531219
0.0558682
0.0586888
0.0616594
0.0647059
0.0679006
0.0712057
0.0745992
0.0782752
0.00368483
-0.00419445
-0.00763255
-0.00615526
-0.00382124
-0.00183931
-0.000308674
0.00081457
0.00179619
0.00293747
0.00419406
0.00521784
0.00599574
0.00689364
0.00793756
0.00899154
0.0100648
0.0111704
0.0123099
0.0133765
0.0144085
0.0155997
0.0168959
0.0181593
0.0194568
0.020843
0.0222947
0.0238216
0.0254319
0.0271053
0.028825
0.0306145
0.0324953
0.0344732
0.036534
0.0386791
0.0408839
0.0431655
0.0455153
0.04796
0.0504965
0.0531219
0.0558682
0.0586888
0.0616594
0.0647059
0.0679006
0.0712057
0.0745992
0.0782753
0.00354441
-0.00403092
-0.00750348
-0.00611216
-0.00380198
-0.0018284
-0.000302376
0.000819083
0.00180016
0.00294095
0.00419696
0.00522017
0.00599748
0.00689497
0.00793868
0.00899253
0.0100657
0.0111713
0.0123107
0.0133772
0.0144091
0.0156002
0.0168964
0.0181598
0.0194571
0.0208433
0.0222949
0.0238218
0.0254321
0.0271054
0.0288251
0.0306146
0.0324954
0.0344732
0.036534
0.0386791
0.0408839
0.0431655
0.0455153
0.04796
0.0504965
0.0531219
0.0558682
0.0586888
0.0616594
0.0647059
0.0679006
0.0712057
0.0745993
0.0782755
0.00340607
-0.00385562
-0.00735824
-0.00606187
-0.00377857
-0.0018146
-0.00029452
0.000824511
0.00180504
0.0029453
0.00420053
0.00522305
0.0059997
0.00689668
0.00794002
0.00899364
0.0100667
0.0111722
0.0123116
0.0133781
0.0144098
0.0156009
0.016897
0.0181603
0.0194576
0.0208437
0.0222952
0.0238221
0.0254323
0.0271056
0.0288253
0.0306147
0.0324955
0.0344733
0.0365341
0.0386792
0.040884
0.0431655
0.0455153
0.04796
0.0504966
0.053122
0.0558682
0.0586888
0.0616594
0.0647059
0.0679005
0.0712057
0.0745994
0.0782757
0.00326206
-0.00367437
-0.00720311
-0.00600769
-0.00375283
-0.00179861
-0.000285154
0.000830969
0.00181086
0.00295047
0.00420469
0.0052264
0.00600244
0.00689889
0.00794171
0.00899495
0.0100679
0.0111733
0.0123127
0.0133791
0.0144107
0.0156017
0.0168977
0.0181609
0.0194582
0.0208442
0.0222957
0.0238225
0.0254326
0.0271058
0.0288255
0.0306148
0.0324956
0.0344734
0.0365342
0.0386793
0.040884
0.0431656
0.0455153
0.04796
0.0504966
0.053122
0.0558682
0.0586888
0.0616594
0.0647059
0.0679005
0.0712057
0.0745994
0.078276
0.00311429
-0.00348855
-0.0070404
-0.00595116
-0.00372596
-0.00178118
-0.000274515
0.000838416
0.00181753
0.0029563
0.00420922
0.00523004
0.00600561
0.00690163
0.00794388
0.00899661
0.0100693
0.0111745
0.0123138
0.0133802
0.0144119
0.0156027
0.0168986
0.0181617
0.0194589
0.0208449
0.0222963
0.023823
0.025433
0.0271062
0.0288257
0.030615
0.0324957
0.0344735
0.0365343
0.0386793
0.0408841
0.0431656
0.0455154
0.0479601
0.0504966
0.053122
0.0558682
0.0586888
0.0616594
0.0647059
0.0679005
0.0712056
0.0745995
0.0782763
0.00296583
-0.003299
-0.00687076
-0.00589267
-0.00369853
-0.00176274
-0.000262849
0.000846696
0.00182487
0.00296257
0.0042139
0.00523374
0.00600899
0.00690481
0.00794658
0.00899876
0.010071
0.0111759
0.0123151
0.0133816
0.0144133
0.015604
0.0168996
0.0181626
0.0194599
0.0208458
0.022297
0.0238236
0.0254336
0.0271067
0.0288261
0.0306153
0.032496
0.0344736
0.0365344
0.0386794
0.0408842
0.0431657
0.0455154
0.0479601
0.0504966
0.053122
0.0558682
0.0586888
0.0616594
0.0647059
0.0679005
0.0712056
0.0745996
0.0782767
0.00281803
-0.00310662
-0.00669402
-0.00583208
-0.00367074
-0.00174351
-0.000250321
0.000855636
0.00183268
0.00296909
0.00421858
0.00523733
0.00601236
0.0069082
0.00794971
0.00900147
0.0100732
0.0111774
0.0123163
0.013383
0.014415
0.0156057
0.016901
0.0181638
0.0194612
0.020847
0.022298
0.0238245
0.0254344
0.0271073
0.0288267
0.0306157
0.0324963
0.0344739
0.0365346
0.0386796
0.0408843
0.0431658
0.0455155
0.0479602
0.0504967
0.053122
0.0558683
0.0586888
0.0616594
0.0647059
0.0679005
0.0712056
0.0745997
0.0782772
0.00267134
-0.00291205
-0.00650973
-0.00576903
-0.00364268
-0.00172357
-0.000236999
0.000865132
0.00184081
0.00297573
0.0042232
0.00524077
0.00601559
0.00691159
0.00795309
0.00900468
0.0100759
0.0111791
0.0123176
0.0133844
0.0144169
0.0156076
0.0169025
0.0181652
0.0194627
0.0208485
0.0222993
0.0238256
0.0254353
0.0271081
0.0288274
0.0306163
0.0324967
0.0344741
0.0365348
0.0386798
0.0408844
0.0431659
0.0455156
0.0479603
0.0504968
0.0531221
0.0558683
0.0586889
0.0616594
0.064706
0.0679005
0.0712056
0.0745999
0.0782777
0.00252617
-0.00271572
-0.00631752
-0.00570313
-0.00361445
-0.00170298