/*--------------------------------*- C++ -*----------------------------------*\
| =========                 |                                                 |
| \\      /  F ield         | OpenFOAM: The Open Source CFD Toolbox           |
|  \\    /   O peration     | Version:  v2012                                 |
|   \\  /    A nd           | Website:  www.openfoam.com                      |
|    \\/     M anipulation  |                                                 |
\*---------------------------------------------------------------------------*/
FoamFile
{
    version     2.0;
    format      ascii;
    class       surfaceScalarField;
    location    "0.5";
    object      phi;
}
// * * * * * * * * * * * * * * * * * * * * * * * * * * * * * * * * * * * * * //

dimensions      [0 3 -1 0 0 0 0];
oriented        oriented;


internalField   nonuniform List<scalar> 
13830
(
9.67782e-07
-2.91516e-07
9.03167e-07
2.60075e-07
9.3542e-07
-2.96301e-07
9.81084e-07
7.23279e-07
9.02339e-07
4.51536e-07
8.9777e-07
-4.86894e-07
9.61982e-07
-5.93762e-07
9.54271e-07
-1.27961e-06
9.74442e-07
-4.91434e-08
9.34397e-07
-3.16059e-07
9.51057e-07
4.45513e-07
9.21885e-07
6.76724e-08
9.3816e-07
4.67488e-07
9.22285e-07
1.81525e-07
9.30751e-07
3.95319e-07
9.24937e-07
2.67454e-07
9.23869e-07
2.9413e-07
9.22591e-07
2.42173e-07
9.16002e-07
2.0583e-07
1.86234e-07
9.07034e-07
1.0039e-06
-3.22879e-07
9.40792e-07
3.23179e-07
9.73162e-07
-3.2867e-07
1.02117e-06
6.75272e-07
9.42254e-07
5.3045e-07
9.36712e-07
-4.81352e-07
9.95521e-07
-6.52572e-07
9.86444e-07
-1.27054e-06
1.00833e-06
-7.10245e-08
9.68254e-07
-2.75988e-07
9.83788e-07
4.2998e-07
9.54592e-07
9.68685e-08
9.69493e-07
4.52587e-07
9.55744e-07
1.95274e-07
9.60292e-07
3.90771e-07
9.61839e-07
2.65908e-07
9.51662e-07
3.04307e-07
9.62394e-07
2.31442e-07
9.41466e-07
2.26758e-07
1.73073e-07
9.54627e-07
1.03913e-06
-3.52554e-07
9.84473e-07
3.77833e-07
1.01139e-06
-3.55584e-07
1.06067e-06
6.25988e-07
9.87989e-07
6.03133e-07
9.79293e-07
-4.72656e-07
1.02841e-06
-7.01687e-07
1.02111e-06
-1.26324e-06
1.04114e-06
-9.10579e-08
1.00768e-06
-2.42527e-07
1.01507e-06
4.22589e-07
9.95221e-07
1.16722e-07
9.98623e-07
4.49184e-07
9.97082e-07
1.96815e-07
9.8934e-07
3.98513e-07
1.00173e-06
2.53518e-07
9.84039e-07
3.21998e-07
9.97263e-07
2.18218e-07
9.79388e-07
2.44633e-07
1.68226e-07
9.84235e-07
1.074e-06
-3.78782e-07
1.03148e-06
4.20354e-07
1.05023e-06
-3.74327e-07
1.09721e-06
5.79e-07
1.03612e-06
6.64223e-07
1.0243e-06
-4.60837e-07
1.06077e-06
-7.38154e-07
1.05788e-06
-1.26035e-06
1.07455e-06
-1.07728e-07
1.05178e-06
-2.19751e-07
1.04993e-06
4.24438e-07
1.04021e-06
1.26438e-07
1.03385e-06
4.55548e-07
1.03987e-06
1.90795e-07
1.02735e-06
4.11028e-07
1.04025e-06
2.4062e-07
1.02606e-06
3.36193e-07
1.03353e-06
2.1074e-07
1.02371e-06
2.54455e-07
1.69056e-07
1.02288e-06
1.10894e-06
-4.00168e-07
1.0797e-06
4.49598e-07
1.08953e-06
-3.84164e-07
1.1303e-06
5.38231e-07
1.08471e-06
7.09814e-07
1.071e-06
-4.4713e-07
1.09407e-06
-7.61215e-07
1.09597e-06
-1.26225e-06
1.1095e-06
-1.21257e-07
1.09809e-06
-2.08342e-07
1.09039e-06
4.32133e-07
1.08707e-06
1.29763e-07
1.07668e-06
4.65941e-07
1.08385e-06
1.83625e-07
1.07326e-06
4.21612e-07
1.08203e-06
2.31851e-07
1.07344e-06
3.4478e-07
1.07624e-06
2.07948e-07
1.07098e-06
2.59714e-07
1.719e-07
1.06813e-06
1.1447e-06
-4.1602e-07
1.12757e-06
4.66728e-07
1.12963e-06
-3.86225e-07
1.16134e-06
5.06522e-07
1.13267e-06
7.38483e-07
1.119e-06
-4.33458e-07
1.13003e-06
-7.72247e-07
1.13452e-06
-1.26674e-06
1.14612e-06
-1.32862e-07
1.14419e-06
-2.06412e-07
1.13534e-06
4.4098e-07
1.13434e-06
1.30763e-07
1.12393e-06
4.76356e-07
1.12914e-06
1.78417e-07
1.12196e-06
4.28786e-07
1.12722e-06
2.26595e-07
1.12195e-06
3.50046e-07
1.12267e-06
2.07229e-07
1.11917e-06
2.63217e-07
1.75216e-07
1.11585e-06
1.1821e-06
-4.26424e-07
1.17457e-06
4.74262e-07
1.1711e-06
-3.82755e-07
1.19265e-06
4.84966e-07
1.17961e-06
7.5153e-07
1.1681e-06
-4.21947e-07
1.16974e-06
-7.73893e-07
1.17332e-06
-1.27032e-06
1.18383e-06
-1.43374e-07
1.18885e-06
-2.1143e-07
1.18202e-06
4.47804e-07
1.18131e-06
1.31477e-07
1.17177e-06
4.85897e-07
1.17475e-06
1.75429e-07
1.16973e-06
4.33813e-07
1.17335e-06
2.22976e-07
1.16954e-06
3.53851e-07
1.16963e-06
2.07145e-07
1.16694e-06
2.65901e-07
1.78549e-07
1.16361e-06
1.2218e-06
-4.3204e-07
1.22105e-06
4.75013e-07
1.2145e-06
-3.76211e-07
1.22655e-06
4.72922e-07
1.22591e-06
7.52164e-07
1.2182e-06
-4.14237e-07
1.21332e-06
-7.69008e-07
1.21289e-06
-1.26988e-06
1.22207e-06
-1.52562e-07
1.23187e-06
-2.21229e-07
1.22835e-06
4.51323e-07
1.22772e-06
1.32115e-07
1.21862e-06
4.94991e-07
1.22008e-06
1.73975e-07
1.21588e-06
4.38013e-07
1.219e-06
2.19851e-07
1.21607e-06
3.56778e-07
1.21595e-06
2.07271e-07
1.21409e-06
2.67763e-07
1.81758e-07
1.21088e-06
1.26407e-06
-4.33752e-07
1.26773e-06
4.71345e-07
1.26012e-06
-3.68599e-07
1.26447e-06
4.68573e-07
1.2725e-06
7.44132e-07
1.26921e-06
-4.10943e-07
1.26018e-06
-7.59978e-07
1.25411e-06
-1.26382e-06
1.26092e-06
-1.59369e-07
1.27372e-06
-2.34031e-07
1.27372e-06
4.51322e-07
1.27376e-06
1.32078e-07
1.26493e-06
5.03821e-07
1.2655e-06
1.73405e-07
1.26158e-06
4.41933e-07
1.26451e-06
2.16915e-07
1.26255e-06
3.58744e-07
1.26218e-06
2.07637e-07
1.26135e-06
2.6859e-07
1.8476e-07
1.25835e-06
1.3089e-06
-4.32373e-07
1.31535e-06
4.64899e-07
1.30797e-06
-3.61219e-07
1.30683e-06
4.69707e-07
1.32033e-06
7.30638e-07
1.321e-06
-4.1162e-07
1.30952e-06
-7.48493e-07
1.2978e-06
-1.25209e-06
1.30098e-06
-1.62556e-07
1.31517e-06
-2.48216e-07
1.31844e-06
4.48046e-07
1.31981e-06
1.30712e-07
1.31166e-06
5.11971e-07
1.31182e-06
1.73246e-07
1.30831e-06
4.45446e-07
1.31096e-06
2.14265e-07
1.31019e-06
3.59505e-07
1.30945e-06
2.08377e-07
1.30974e-06
2.68308e-07
1.87514e-07
1.30698e-06
1.35617e-06
-4.28522e-07
1.3644e-06
4.56672e-07
1.35789e-06
-3.54713e-07
1.35329e-06
4.74311e-07
1.37001e-06
7.13915e-07
1.37356e-06
-4.15169e-07
1.36068e-06
-7.35613e-07
1.34438e-06
-1.23579e-06
1.34308e-06
-1.61258e-07
1.35712e-06
-2.62256e-07
1.36315e-06
4.42011e-07
1.36623e-06
1.27635e-07
1.35946e-06
5.18745e-07
1.35955e-06
1.73157e-07
1.35692e-06
4.48076e-07
1.35907e-06
2.12109e-07
1.35973e-06
3.5885e-07
1.35852e-06
2.0958e-07
1.35983e-06
2.67002e-07
1.90011e-07
1.35733e-06
1.4058e-06
-4.22666e-07
1.4152e-06
4.47266e-07
1.40971e-06
-3.49224e-07
1.40325e-06
4.80779e-07
1.4218e-06
6.9536e-07
1.42695e-06
-4.20316e-07
1.41327e-06
-7.21934e-07
1.3939e-06
-1.21643e-06
1.38794e-06
-1.55299e-07
1.40052e-06
-2.74828e-07
1.40858e-06
4.33944e-07
1.41341e-06
1.22808e-07
1.40862e-06
5.23534e-07
1.40879e-06
1.72988e-07
1.40756e-06
4.49307e-07
1.40899e-06
2.1068e-07
1.4112e-06
3.56637e-07
1.40951e-06
2.11268e-07
1.41169e-06
2.64824e-07
1.92242e-07
1.40946e-06
1.45782e-06
-4.15238e-07
1.46797e-06
4.37113e-07
1.46331e-06
-3.44565e-07
1.45627e-06
4.87825e-07
1.47577e-06
6.75861e-07
1.48136e-06
-4.25911e-07
1.46718e-06
-7.07754e-07
1.4462e-06
-1.19545e-06
1.43614e-06
-1.45239e-07
1.44626e-06
-2.8494e-07
1.45552e-06
4.24677e-07
1.46184e-06
1.16487e-07
1.4594e-06
5.25974e-07
1.45956e-06
1.72833e-07
1.46008e-06
4.48786e-07
1.46056e-06
2.10197e-07
1.46436e-06
3.52835e-07
1.46226e-06
2.13374e-07
1.46515e-06
2.6193e-07
1.94151e-07
1.46324e-06
1.51235e-06
-4.0672e-07
1.52286e-06
4.2661e-07
1.51863e-06
-3.4034e-07
1.51215e-06
4.94308e-07
1.53195e-06
6.56065e-07
1.53707e-06
-4.31033e-07
1.52248e-06
-6.93172e-07
1.50105e-06
-1.17402e-06
1.48803e-06
-1.32212e-07
1.4951e-06
-2.92009e-07
1.50477e-06
4.15004e-07
1.51212e-06
1.09134e-07
1.51219e-06
5.25907e-07
1.51202e-06
1.73004e-07
1.51445e-06
4.46357e-07
1.51381e-06
2.1083e-07
1.51908e-06
3.47565e-07
1.51669e-06
2.15769e-07
1.52015e-06
2.5847e-07
1.95658e-07
1.51864e-06
1.56955e-06
-3.97658e-07
1.58002e-06
4.16145e-07
1.57572e-06
-3.36043e-07
1.57086e-06
4.99169e-07
1.59042e-06
6.36505e-07
1.59439e-06
-4.35002e-07
1.57937e-06
-6.78155e-07
1.55831e-06
-1.15296e-06
1.54375e-06
-1.17649e-07
1.54759e-06
-2.95855e-07
1.55703e-06
4.05564e-07
1.56482e-06
1.01344e-07
1.56744e-06
5.23293e-07
1.56656e-06
1.73876e-07
1.57089e-06
4.42026e-07
1.56903e-06
2.12697e-07
1.57553e-06
3.41061e-07
1.573e-06
2.18298e-07
1.57687e-06
2.54606e-07
1.96705e-07
1.57582e-06
1.62949e-06
-3.88603e-07
1.63957e-06
4.06058e-07
1.63469e-06
-3.31156e-07
1.63236e-06
5.01494e-07
1.65125e-06
6.17615e-07
1.65364e-06
-4.37383e-07
1.63808e-06
-6.62602e-07
1.6179e-06
-1.13278e-06
1.60322e-06
-1.0297e-07
1.60402e-06
-2.96656e-07
1.61282e-06
3.9677e-07
1.62037e-06
9.37934e-08
1.62552e-06
5.18141e-07
1.62362e-06
1.75776e-07
1.62977e-06
4.35871e-07
1.62666e-06
2.15806e-07
1.6341e-06
3.3363e-07
1.63156e-06
2.2083e-07
1.63566e-06
2.50514e-07
1.97294e-07
1.63507e-06
1.69216e-06
-3.80009e-07
1.70165e-06
3.96563e-07
1.69573e-06
-3.2524e-07
1.69657e-06
5.00659e-07
1.71449e-06
5.99697e-07
1.71509e-06
-4.3799e-07
1.69891e-06
-6.46416e-07
1.67981e-06
-1.11368e-06
1.66617e-06
-8.93364e-08
1.66437e-06
-2.94855e-07
1.67237e-06
3.88773e-07
1.67896e-06
8.72007e-08
1.68661e-06
5.10495e-07
1.68348e-06
1.7891e-07
1.69136e-06
4.27985e-07
1.68713e-06
2.20035e-07
1.69516e-06
3.25608e-07
1.69272e-06
2.23263e-07
1.69685e-06
2.46384e-07
1.97498e-07
1.69665e-06
1.75746e-06
-3.72148e-07
1.76632e-06
3.87699e-07
1.75908e-06
-3.18002e-07
1.76329e-06
4.9645e-07
1.7801e-06
5.82889e-07
1.77898e-06
-4.36866e-07
1.76212e-06
-6.29563e-07
1.74405e-06
-1.09561e-06
1.73221e-06
-7.74911e-08
1.72838e-06
-2.9103e-07
1.73571e-06
3.81446e-07
1.74063e-06
8.22818e-08
1.75065e-06
5.00468e-07
1.74623e-06
1.83331e-07
1.75574e-06
4.18477e-07
1.75065e-06
2.25127e-07
1.75894e-06
3.17317e-07
1.75668e-06
2.25523e-07
1.76068e-06
2.42384e-07
1.97431e-07
1.76074e-06
1.82526e-06
-3.65073e-07
1.83363e-06
3.7933e-07
1.82497e-06
-3.0934e-07
1.83235e-06
4.8907e-07
1.84806e-06
5.67175e-07
1.84544e-06
-4.34241e-07
1.82797e-06
-6.12099e-07
1.81066e-06
-1.07829e-06
1.8009e-06
-6.77387e-08
1.79563e-06
-2.85755e-07
1.80267e-06
3.74406e-07
1.80527e-06
7.96789e-08
1.81748e-06
4.88263e-07
1.81186e-06
1.8895e-07
1.82283e-06
4.07503e-07
1.81722e-06
2.3074e-07
1.8255e-06
3.09035e-07
1.82348e-06
2.27545e-07
1.82723e-06
2.38631e-07
1.97213e-07
1.82745e-06
1.89547e-06
-3.58641e-07
1.9036e-06
3.71198e-07
1.89359e-06
-2.99331e-07
1.90362e-06
4.79039e-07
1.91837e-06
5.52422e-07
1.91459e-06
-4.30452e-07
1.89664e-06
-5.94155e-07
1.87967e-06
-1.06132e-06
1.87197e-06
-6.00345e-08
1.86569e-06
-2.79475e-07
1.87303e-06
3.67067e-07
1.87285e-06
7.9853e-08
1.88696e-06
4.74154e-07
1.88033e-06
1.9558e-07
1.89253e-06
3.95303e-07
1.88677e-06
2.36501e-07
1.89482e-06
3.00986e-07
1.8931e-06
2.29267e-07
1.89655e-06
2.35177e-07
1.96935e-07
1.89683e-06
1.96806e-06
-3.52593e-07
1.97624e-06
3.63011e-07
1.96509e-06
-2.88175e-07
1.97711e-06
4.67016e-07
1.99109e-06
5.38437e-07
1.98651e-06
-4.25867e-07
1.96825e-06
-5.75898e-07
1.95117e-06
-1.04424e-06
1.94528e-06
-5.41432e-08
1.93824e-06
-2.7243e-07
1.94654e-06
3.58758e-07
1.94341e-06
8.2985e-08
1.95911e-06
4.58453e-07
1.95171e-06
2.02981e-07
1.9648e-06
3.82213e-07
1.95924e-06
2.42061e-07
1.96688e-06
2.93345e-07
1.9655e-06
2.30648e-07
1.96867e-06
2.3201e-07
1.96647e-07
1.96896e-06
2.04311e-06
-3.4665e-07
2.0516e-06
3.54513e-07
2.03954e-06
-2.76114e-07
2.05293e-06
4.53629e-07
2.06634e-06
5.25028e-07
2.06128e-06
-4.20813e-07
2.04289e-06
-5.57501e-07
2.02526e-06
-1.02661e-06
2.02092e-06
-4.98009e-08
2.01312e-06
-2.64634e-07
2.02302e-06
3.48858e-07
2.01708e-06
8.89318e-08
2.03407e-06
4.4146e-07
2.02615e-06
2.10901e-07
2.03973e-06
3.68628e-07
2.03464e-06
2.4716e-07
2.04174e-06
2.86239e-07
2.0407e-06
2.31686e-07
2.04363e-06
2.29083e-07
1.96362e-07
2.04392e-06
2.12077e-06
-3.4058e-07
2.12975e-06
3.45534e-07
2.117e-06
-2.63365e-07
2.13127e-06
4.39359e-07
2.14426e-06
5.12037e-07
2.13898e-06
-4.15531e-07
2.1206e-06
-5.39125e-07
2.10206e-06
-1.00807e-06
2.09909e-06
-4.6833e-08
2.09037e-06
-2.5591e-07
2.1023e-06
3.36925e-07
2.09396e-06
9.72735e-08
2.11197e-06
4.23452e-07
2.1038e-06
2.1907e-07
2.11746e-06
3.54972e-07
2.113e-06
2.51612e-07
2.11948e-06
2.7976e-07
2.11876e-06
2.32409e-07
2.12151e-06
2.26336e-07
1.96064e-07
2.12181e-06
2.20124e-06
-3.34239e-07
2.21079e-06
3.35983e-07
2.19751e-06
-2.50078e-07
2.21235e-06
4.24513e-07
2.22504e-06
4.99346e-07
2.21966e-06
-4.10152e-07
2.20147e-06
-5.20937e-07
2.1817e-06
-9.88299e-07
2.18008e-06
-4.52082e-08
2.17014e-06
-2.4597e-07
2.1843e-06
3.22765e-07
2.17414e-06
1.07434e-07
2.1929e-06
4.04694e-07
2.18477e-06
2.27202e-07
2.1981e-06
3.41633e-07
2.19441e-06
2.55306e-07
2.20021e-06
2.73959e-07
2.19975e-06
2.3287e-07
2.20237e-06
2.23715e-07
1.95728e-07
2.20271e-06
2.28471e-06
-3.27558e-07
2.29486e-06
3.25835e-07
2.28111e-06
-2.36331e-07
2.29637e-06
4.09257e-07
2.30885e-06
4.86871e-07
2.30339e-06
-4.04696e-07
2.28558e-06
-5.03128e-07
2.2643e-06
-9.67023e-07
2.26412e-06
-4.50267e-08
2.25269e-06
-2.34539e-07
2.26901e-06
3.06444e-07
2.25764e-06
1.18805e-07
2.27686e-06
3.8548e-07
2.26908e-06
2.34974e-07
2.28177e-06
3.28951e-07
2.2789e-06
2.58176e-07
2.28403e-06
2.6883e-07
2.28376e-06
2.33141e-07
2.28629e-06
2.21182e-07
1.95325e-07
2.28669e-06
2.37135e-06
-3.20524e-07
2.38209e-06
3.15096e-07
2.36792e-06
-2.22159e-07
2.38351e-06
3.93669e-07
2.39584e-06
4.74538e-07
2.39023e-06
-3.99086e-07
2.37303e-06
-4.85928e-07
2.34998e-06
-9.43978e-07
2.35141e-06
-4.64515e-08
2.33831e-06
-2.21443e-07
2.35651e-06
2.88243e-07
2.34449e-06
1.30823e-07
2.36383e-06
3.66143e-07
2.35675e-06
2.4206e-07
2.36853e-06
3.17164e-07
2.36651e-06
2.60202e-07
2.37103e-06
2.6431e-07
2.3709e-06
2.33267e-07
2.37334e-06
2.18743e-07
1.94828e-07
2.37384e-06
2.4613e-06
-3.13149e-07
2.47261e-06
3.03787e-07
2.45803e-06
-2.07576e-07
2.47391e-06
3.77792e-07
2.48617e-06
4.6227e-07
2.48026e-06
-3.93167e-07
2.46393e-06
-4.69603e-07
2.43886e-06
-9.18911e-07
2.44203e-06
-4.96182e-08
2.42726e-06
-2.06672e-07
2.44692e-06
2.68581e-07
2.43476e-06
1.42983e-07
2.45383e-06
3.47072e-07
2.44776e-06
2.48132e-07
2.4585e-06
3.06426e-07
2.4573e-06
2.61404e-07
2.46137e-06
2.60235e-07
2.46132e-06
2.33325e-07
2.46362e-06
2.1644e-07
1.94219e-07
2.46423e-06
2.5547e-06
-3.05451e-07
2.56655e-06
2.91936e-07
2.55158e-06
-1.92602e-07
2.5677e-06
3.61667e-07
2.58e-06
4.49975e-07
2.57356e-06
-3.86731e-07
2.55839e-06
-4.54428e-07
2.53115e-06
-8.91667e-07
2.53607e-06
-5.4538e-08
2.51976e-06
-1.90362e-07
2.54039e-06
2.47947e-07
2.52855e-06
1.54826e-07
2.54694e-06
3.28677e-07
2.54218e-06
2.52898e-07
2.5518e-06
2.96802e-07
2.5514e-06
2.61807e-07
2.55514e-06
2.56486e-07
2.5552e-06
2.33273e-07
2.55725e-06
2.14388e-07
1.93489e-07
2.55798e-06
2.65168e-06
-2.9745e-07
2.66404e-06
2.79571e-07
2.64871e-06
-1.77272e-07
2.66502e-06
3.45355e-07
2.67746e-06
4.3754e-07
2.67027e-06
-3.79541e-07
2.65646e-06
-4.40618e-07
2.62704e-06
-8.62251e-07
2.6336e-06
-6.10948e-08
2.61601e-06
-1.72768e-07
2.63709e-06
2.26857e-07
2.62601e-06
1.65912e-07
2.64332e-06
3.11367e-07
2.64008e-06
2.5614e-07
2.64861e-06
2.88265e-07
2.64892e-06
2.61504e-07
2.65244e-06
2.5296e-07
2.65261e-06
2.33102e-07
2.65437e-06
2.12636e-07
1.92632e-07
2.65522e-06
2.75236e-06
-2.89159e-07
2.76521e-06
2.66726e-07
2.74958e-06
-1.61644e-07
2.76599e-06
3.28942e-07
2.7787e-06
4.24835e-07
2.77051e-06
-3.71356e-07
2.7582e-06
-4.28304e-07
2.72675e-06
-8.30805e-07
2.73473e-06
-6.90751e-08
2.71619e-06
-1.54223e-07
2.73722e-06
2.05823e-07
2.72732e-06
1.75818e-07
2.74318e-06
2.95502e-07
2.74155e-06
2.57772e-07
2.74912e-06
2.8069e-07
2.74995e-06
2.60676e-07
2.75319e-06
2.49722e-07
2.75355e-06
2.32736e-07
2.75512e-06
2.11075e-07
1.9164e-07
2.75611e-06
2.8569e-06
-2.80596e-07
2.87018e-06
2.5344e-07
2.85433e-06
-1.45797e-07
2.87074e-06
3.12539e-07
2.88387e-06
4.11707e-07
2.87446e-06
-3.61954e-07
2.8637e-06
-4.17535e-07
2.83046e-06
-7.97574e-07
2.83957e-06
-7.81796e-08
2.82048e-06
-1.35132e-07
2.84096e-06
1.85341e-07
2.83263e-06
1.84152e-07
2.84678e-06
2.81352e-07
2.84666e-06
2.57894e-07
2.85347e-06
2.73872e-07
2.85462e-06
2.59532e-07
2.85741e-06
2.46929e-07
2.85816e-06
2.31989e-07
2.85965e-06
2.09586e-07
1.90502e-07
2.86078e-06
2.96543e-06
-2.71778e-07
2.9791e-06
2.39761e-07
2.96314e-06
-1.2983e-07
2.97939e-06
2.96288e-07
2.99311e-06
3.97984e-07
2.98233e-06
-3.51171e-07
2.97305e-06
-4.08259e-07
2.93836e-06
-7.6288e-07
2.94821e-06
-8.80376e-08
2.92904e-06
-1.15955e-07
2.9485e-06
1.65881e-07
2.94205e-06
1.90595e-07
2.95437e-06
2.69036e-07
2.9554e-06
2.56869e-07
2.96172e-06
2.67549e-07
2.96294e-06
2.58311e-07
2.96549e-06
2.4438e-07
2.96651e-06
2.30972e-07
2.96811e-06
2.07981e-07
1.89211e-07
2.9694e-06
3.07811e-06
-2.62725e-07
3.09212e-06
2.25748e-07
3.07615e-06
-1.13862e-07
3.09208e-06
2.80359e-07
3.10659e-06
3.83478e-07
3.09432e-06
-3.38905e-07
3.08639e-06
-4.00327e-07
3.05061e-06
-7.27102e-07
3.06079e-06
-9.82156e-08
3.04202e-06
-9.71781e-08
3.06002e-06
1.47876e-07
3.05567e-06
1.94947e-07
3.06616e-06
2.58545e-07
3.06784e-06
2.55188e-07
3.07356e-06
2.61824e-07
3.07501e-06
2.56867e-07
3.07734e-06
2.42048e-07
3.07885e-06
2.29458e-07
3.08067e-06
2.06165e-07
1.87762e-07
3.08212e-06
3.1951e-06
-2.53463e-07
3.20938e-06
2.11465e-07
3.19356e-06
-9.8035e-08
3.20896e-06
2.64958e-07
3.22444e-06
3.67995e-07
3.21066e-06
-3.25124e-07
3.20384e-06
-3.93512e-07
3.16742e-06
-6.90679e-07
3.17745e-06
-1.08242e-07
3.15955e-06
-7.92817e-08
3.17571e-06
1.31716e-07
3.17345e-06
1.97204e-07
3.18226e-06
2.49737e-07
3.18419e-06
2.53259e-07
3.18884e-06
2.57174e-07
3.1909e-06
2.5481e-07
3.19339e-06
2.39555e-07
3.19526e-06
2.27584e-07
3.19747e-06
2.03955e-07
1.86134e-07
3.1991e-06
3.31657e-06
-2.44022e-07
3.33105e-06
1.96989e-07
3.31553e-06
-8.25167e-08
3.33016e-06
2.50326e-07
3.3468e-06
3.51361e-07
3.33154e-06
-3.09865e-07
3.32554e-06
-3.87517e-07
3.28897e-06
-6.54107e-07
3.29833e-06
-1.17601e-07
3.28178e-06
-6.27294e-08
3.29577e-06
1.17726e-07
3.29537e-06
1.976e-07
3.30278e-06
2.42329e-07
3.3047e-06
2.51334e-07
3.30854e-06
2.53341e-07
3.31102e-06
2.52323e-07
3.31384e-06
2.36737e-07
3.31644e-06
2.24983e-07
3.31868e-06
2.01718e-07
1.84292e-07
3.32052e-06
3.4427e-06
-2.34434e-07
3.45728e-06
1.82402e-07
3.44227e-06
-6.75058e-08
3.45585e-06
2.36743e-07
3.47376e-06
3.33456e-07
3.45715e-06
-2.93261e-07
3.45164e-06
-3.82001e-07
3.41544e-06
-6.1791e-07
3.42362e-06
-1.25784e-07
3.40879e-06
-4.78921e-08
3.42043e-06
1.06086e-07
3.42146e-06
1.96565e-07
3.4277e-06
2.36086e-07
3.42974e-06
2.49295e-07
3.43311e-06
2.49969e-07
3.43584e-06
2.49597e-07
3.43889e-06
2.3369e-07
3.4419e-06
2.2197e-07
3.44444e-06
1.99173e-07
1.82183e-07
3.44655e-06
3.57365e-06
-2.24739e-07
3.58825e-06
1.678e-07
3.57398e-06
-5.3235e-08
3.5862e-06
2.24522e-07
3.60539e-06
3.14269e-07
3.58771e-06
-2.75583e-07
3.58227e-06
-3.76558e-07
3.54703e-06
-5.82666e-07
3.55351e-06
-1.32263e-07
3.54065e-06
-3.5035e-08
3.54999e-06
9.67482e-08
3.5519e-06
1.94652e-07
3.55699e-06
2.30996e-07
3.55953e-06
2.46758e-07
3.56267e-06
2.46824e-07
3.56558e-06
2.46689e-07
3.56876e-06
2.30509e-07
3.57168e-06
2.19053e-07
3.57493e-06
1.95918e-07
1.7974e-07
3.57737e-06
3.70962e-06
-2.14975e-07
3.72414e-06
1.53281e-07
3.71087e-06
-3.99682e-08
3.72141e-06
2.1399e-07
3.7418e-06
2.93878e-07
3.72342e-06
-2.57202e-07
3.71762e-06
-3.7076e-07
3.68389e-06
-5.48934e-07
3.6882e-06
-1.36573e-07
3.67732e-06
-2.41635e-08
3.68469e-06
8.93782e-08
3.687e-06
1.92345e-07
3.69085e-06
2.27144e-07
3.69415e-06
2.43466e-07
3.69731e-06
2.43662e-07
3.70043e-06
2.43564e-07
3.70375e-06
2.27195e-07
3.70725e-06
2.15551e-07
3.71033e-06
1.92837e-07
1.76909e-07
3.71316e-06
3.8508e-06
-2.05185e-07
3.86513e-06
1.38952e-07
3.85313e-06
-2.79664e-08
3.86169e-06
2.05422e-07
3.88313e-06
2.72441e-07
3.86446e-06
-2.38534e-07
3.85785e-06
-3.64149e-07
3.82613e-06
-5.17209e-07
3.82801e-06
-1.38455e-07
3.81879e-06
-1.49396e-08
3.82467e-06
8.34956e-08
3.82714e-06
1.89875e-07
3.83001e-06
2.24274e-07
3.83375e-06
2.39727e-07
3.83724e-06
2.40175e-07
3.84052e-06
2.40279e-07
3.84399e-06
2.23726e-07
3.84765e-06
2.11889e-07
3.85082e-06
1.89667e-07
1.73642e-07
3.85409e-06
3.99738e-06
-1.95413e-07
4.01141e-06
1.24923e-07
4.00091e-06
-1.74614e-08
4.00737e-06
1.98955e-07
4.02957e-06
2.50242e-07
4.01106e-06
-2.20023e-07
4.00316e-06
-3.5625e-07
3.97385e-06
-4.879e-07
3.97342e-06
-1.38019e-07
3.96518e-06
-6.70851e-09
3.96993e-06
7.87523e-08
3.97267e-06
1.87131e-07
3.97482e-06
2.2212e-07
3.97866e-06
2.3589e-07
3.98261e-06
2.36226e-07
3.98605e-06
2.3684e-07
3.98956e-06
2.20219e-07
3.99282e-06
2.08622e-07
3.99662e-06
1.85871e-07
1.69936e-07
4.00033e-06
4.14957e-06
-1.85705e-07
4.16319e-06
1.11304e-07
4.15436e-06
-8.62697e-09
4.15874e-06
1.9457e-07
4.18129e-06
2.27692e-07
4.16341e-06
-2.0214e-07
4.15369e-06
-3.46533e-07
4.12706e-06
-4.61261e-07
4.12478e-06
-1.35739e-07
4.11684e-06
1.22327e-09
4.12049e-06
7.51027e-08
4.12379e-06
1.83831e-07
4.1255e-06
2.20416e-07
4.12918e-06
2.32213e-07
4.13358e-06
2.31818e-07
4.13724e-06
2.33186e-07
4.14087e-06
2.16581e-07
4.14467e-06
2.04825e-07
4.14799e-06
1.82549e-07
1.6588e-07
4.15205e-06
4.30759e-06
-1.76106e-07
4.32069e-06
9.8204e-08
4.31357e-06
-1.50916e-09
4.31609e-06
1.92051e-07
4.33851e-06
2.05268e-07
4.32171e-06
-1.85339e-07
4.3097e-06
-3.34517e-07
4.28567e-06
-4.3724e-07
4.28224e-06
-1.32306e-07
4.27418e-06
9.28587e-09
4.27655e-06
7.27315e-08
4.28063e-06
1.79753e-07
4.28219e-06
2.18857e-07
4.28559e-06
2.28805e-07
4.29032e-06
2.27094e-07
4.29434e-06
2.2917e-07
4.29802e-06
2.12896e-07
4.30221e-06
2.00639e-07
4.30519e-06
1.79561e-07
1.61623e-07
4.30945e-06
4.47164e-06
-1.66662e-07
4.48412e-06
8.57234e-08
4.47866e-06
3.94875e-09
4.47967e-06
1.91044e-07
4.50145e-06
1.83489e-07
4.48615e-06
-1.70037e-07
4.47167e-06
-3.20035e-07
4.44976e-06
-4.15329e-07
4.44591e-06
-1.2846e-07
4.43755e-06
1.76496e-08
4.43855e-06
7.17309e-08
4.44333e-06
1.74967e-07
4.44506e-06
2.17127e-07
4.44815e-06
2.25717e-07
4.45306e-06
2.22186e-07
4.45756e-06
2.24671e-07
4.4611e-06
2.09358e-07
4.46529e-06
1.96445e-07
4.46847e-06
1.76382e-07
1.57344e-07
4.47275e-06
4.64196e-06
-1.57418e-07
4.65374e-06
7.395e-08
4.64983e-06
7.85522e-09
4.64974e-06
1.91139e-07
4.67034e-06
1.62888e-07
4.65691e-06
-1.56614e-07
4.64023e-06
-3.03348e-07
4.61953e-06
-3.94631e-07
4.6158e-06
-1.24734e-07
4.6073e-06
2.61505e-08
4.60691e-06
7.21208e-08
4.61216e-06
1.6972e-07
4.61431e-06
2.14976e-07
4.61711e-06
2.22915e-07
4.62201e-06
2.17292e-07
4.62708e-06
2.19597e-07
4.63051e-06
2.05935e-07
4.63493e-06
1.92018e-07
4.63806e-06
1.73257e-07
1.53203e-07
4.6422e-06
4.81879e-06
-1.48418e-07
4.82978e-06
6.29525e-08
4.82729e-06
1.03476e-08
4.82653e-06
1.91901e-07
4.84543e-06
1.43989e-07
4.83416e-06
-1.45349e-07
4.81579e-06
-2.84976e-07
4.7953e-06
-3.7414e-07
4.79197e-06
-1.21401e-07
4.78368e-06
3.44394e-08
4.78197e-06
7.38255e-08
4.78742e-06
1.64269e-07
4.7901e-06
2.12297e-07
4.79276e-06
2.20257e-07
4.79742e-06
2.12638e-07
4.80308e-06
2.13936e-07
4.80655e-06
2.02461e-07
4.81131e-06
1.87262e-07
4.81419e-06
1.70375e-07
1.49323e-07
4.81807e-06
5.00235e-06
-1.39701e-07
5.01253e-06
5.2773e-08
5.01128e-06
1.16005e-08
5.01033e-06
1.92854e-07
5.027e-06
1.27318e-07
5.018e-06
-1.3635e-07
4.99857e-06
-2.65542e-07
4.97744e-06
-3.53014e-07
4.97454e-06
-1.18497e-07
4.96684e-06
4.21309e-08
4.96402e-06
7.66451e-08
4.96943e-06
1.58866e-07
4.97269e-06
2.09037e-07
4.97534e-06
2.17607e-07
4.97957e-06
2.08402e-07
4.98574e-06
2.07765e-07
4.98925e-06
1.98952e-07
4.99388e-06
1.8264e-07
4.99708e-06
1.67167e-07
1.45776e-07
5.00063e-06
5.19291e-06
-1.31302e-07
5.20226e-06
4.34257e-08
5.20205e-06
1.18101e-08
5.20143e-06
1.93471e-07
5.21533e-06
1.13418e-07
5.20849e-06
-1.2951e-07
5.18863e-06
-2.45674e-07
5.16652e-06
-3.3091e-07
5.16371e-06
-1.15686e-07
5.15695e-06
4.88897e-08
5.15331e-06
8.02897e-08
5.15845e-06
1.53729e-07
5.1623e-06
2.05179e-07
5.16509e-06
2.14819e-07
5.16878e-06
2.04709e-07
5.17528e-06
2.01267e-07
5.17902e-06
1.95215e-07
5.1837e-06
1.77953e-07
5.18698e-06
1.63888e-07
1.42579e-07
5.19018e-06
5.39073e-06
-1.23251e-07
5.39926e-06
3.48951e-08
5.39987e-06
1.11965e-08
5.40022e-06
1.93121e-07
5.41081e-06
1.0283e-07
5.40571e-06
-1.24411e-07
5.38611e-06
-2.26069e-07
5.36301e-06
-3.07817e-07
5.35993e-06
-1.12603e-07
5.35419e-06
5.46272e-08
5.35001e-06
8.44679e-08
5.35478e-06
1.48966e-07
5.35918e-06
2.00779e-07
5.36227e-06
2.11731e-07
5.36538e-06
2.01595e-07
5.37197e-06
1.94677e-07
5.37607e-06
1.91122e-07
5.38026e-06
1.73756e-07
5.38412e-06
1.60033e-07
1.39693e-07
5.387e-06
5.59606e-06
-1.15575e-07
5.60381e-06
2.71473e-08
5.60502e-06
9.98285e-09
5.60704e-06
1.911e-07
5.61398e-06
9.58895e-08
5.60986e-06
-1.20285e-07
5.59111e-06
-2.07325e-07
5.56734e-06
-2.84047e-07
5.56354e-06
-1.08803e-07
5.5589e-06
5.92726e-08
5.55434e-06
8.90282e-08
5.55874e-06
1.44559e-07
5.56352e-06
1.95999e-07
5.56709e-06
2.08169e-07
5.5697e-06
1.98978e-07
5.5761e-06
1.88278e-07
5.5809e-06
1.86326e-07
5.58509e-06
1.69565e-07
5.58876e-06
1.56362e-07
1.37041e-07
5.59141e-06
5.8092e-06
-1.08294e-07
5.81617e-06
2.01732e-08
5.81782e-06
8.33896e-09
5.82178e-06
1.87134e-07
5.8254e-06
9.22772e-08
5.82125e-06
-1.16137e-07
5.80379e-06
-1.8987e-07
5.77976e-06
-2.60017e-07
5.77503e-06
-1.04073e-07
5.7714e-06
6.29092e-08
5.7666e-06
9.3829e-08
5.7706e-06
1.40551e-07
5.77564e-06
1.90964e-07
5.77975e-06
2.04055e-07
5.7821e-06
1.96625e-07
5.78799e-06
1.82394e-07
5.79345e-06
1.80863e-07
5.79771e-06
1.65304e-07
5.80119e-06
1.52882e-07
1.34557e-07
5.80368e-06
6.03043e-06
-1.0143e-07
6.03658e-06
1.40314e-08
6.03857e-06
6.3504e-09
6.04423e-06
1.81466e-07
6.04541e-06
9.11047e-08
6.04033e-06
-1.11064e-07
6.02438e-06
-1.73912e-07
6.00045e-06
-2.36086e-07
5.9948e-06
-9.84247e-08
5.99204e-06
6.567e-08
5.98713e-06
9.87317e-08
5.99065e-06
1.37038e-07
5.99584e-06
1.85774e-07
6.00051e-06
1.99386e-07
6.00288e-06
1.94249e-07
6.00799e-06
1.77287e-07
6.01374e-06
1.7511e-07
6.01764e-06
1.61402e-07
6.02172e-06
1.48801e-07
1.32172e-07
6.02411e-06
6.26007e-06
-9.49973e-08
6.26521e-06
8.89308e-09
6.26759e-06
3.96561e-09
6.27465e-06
1.74404e-07
6.27431e-06
9.14449e-08
6.26777e-06
-1.04518e-07
6.25307e-06
-1.59219e-07
6.22958e-06
-2.12596e-07
6.22312e-06
-9.19582e-08
6.22118e-06
6.76088e-08
6.21624e-06
1.0367e-07
6.21919e-06
1.34085e-07
6.22448e-06
1.80487e-07
6.22959e-06
1.94276e-07
6.23229e-06
1.91555e-07
6.23651e-06
1.73066e-07
6.24239e-06
1.69222e-07
6.24653e-06
1.57264e-07
6.25066e-06
1.44674e-07
1.29803e-07
6.25303e-06
6.49841e-06
-8.90044e-08
6.50224e-06
5.06298e-09
6.50522e-06
9.87951e-10
6.5134e-06
1.6622e-07
6.51241e-06
9.24345e-08
6.50416e-06
-9.62642e-08
6.49015e-06
-1.45213e-07
6.46746e-06
-1.89907e-07
6.46026e-06
-8.47522e-08
6.4591e-06
6.87673e-08
6.45429e-06
1.08482e-07
6.45661e-06
1.31761e-07
6.46189e-06
1.75204e-07
6.46731e-06
1.8886e-07
6.47055e-06
1.88311e-07
6.47399e-06
1.69628e-07
6.47987e-06
1.63348e-07
6.48389e-06
1.53238e-07
6.48832e-06
1.40246e-07
1.27355e-07
6.49077e-06
6.74578e-06
-8.34499e-08
6.74803e-06
2.81519e-09
6.75177e-06
-2.75187e-09
6.7609e-06
1.5709e-07
6.75998e-06
9.33528e-08
6.74997e-06
-8.62537e-08
6.73606e-06
-1.31301e-07
6.71436e-06
-1.68205e-07
6.70653e-06
-7.69252e-08
6.70608e-06
6.92205e-08
6.70159e-06
1.12968e-07
6.70325e-06
1.30104e-07
6.70847e-06
1.69989e-07
6.714e-06
1.83328e-07
6.71792e-06
1.8439e-07
6.72084e-06
1.66708e-07
6.72657e-06
1.57614e-07
6.73101e-06
1.48806e-07
6.73504e-06
1.36211e-07
1.24731e-07
6.73766e-06
7.00252e-06
-7.8318e-08
7.00329e-06
2.04677e-09
7.00759e-06
-7.05322e-09
7.01753e-06
1.47148e-07
7.01711e-06
9.37724e-08
7.00562e-06
-7.47635e-08
6.9914e-06
-1.17085e-07
6.97053e-06
-1.47331e-07
6.96229e-06
-6.86906e-08
6.96241e-06
6.91018e-08
6.95846e-06
1.16926e-07
6.95945e-06
1.29105e-07
6.96458e-06
1.64861e-07
6.97002e-06
1.77893e-07
6.97466e-06
1.79746e-07
6.9773e-06
1.64065e-07
6.98256e-06
1.52362e-07
6.98678e-06
1.44584e-07
6.99115e-06
1.31843e-07
1.21818e-07
6.99406e-06
7.26894e-06
-7.35721e-08
7.26864e-06
2.35458e-09
7.273e-06
-1.14146e-08
7.28364e-06
1.36503e-07
7.28381e-06
9.36084e-08
7.27143e-06
-6.23853e-08
7.25668e-06
-1.02338e-07
7.23645e-06
-1.27104e-07
7.22782e-06
-6.00555e-08
7.22847e-06
6.84545e-08
7.2252e-06
1.20195e-07
7.2256e-06
1.28701e-07
7.23061e-06
1.5985e-07
7.23582e-06
1.72684e-07
7.24108e-06
1.7449e-07
7.24366e-06
1.61483e-07
7.2484e-06
1.47626e-07
7.25251e-06
1.40474e-07
7.25701e-06
1.27344e-07
1.18536e-07
7.26029e-06
7.54541e-06
-6.91543e-08
7.54445e-06
3.31631e-09
7.54832e-06
-1.5283e-08
7.55958e-06
1.25245e-07
7.56038e-06
9.28095e-08
7.54765e-06
-4.96629e-08
7.53239e-06
-8.70697e-08
7.51266e-06
-1.07383e-07
7.50348e-06
-5.08719e-08
7.50459e-06
6.73501e-08
7.50216e-06
1.22619e-07
7.50205e-06
1.28813e-07
7.50693e-06
1.54968e-07
7.51184e-06
1.67776e-07
7.51749e-06
1.68837e-07
7.52031e-06
1.58662e-07
7.52479e-06
1.43152e-07
7.52896e-06
1.36306e-07
7.53304e-06
1.2326e-07
1.14901e-07
7.53667e-06
7.83229e-06
-6.49911e-08
7.83107e-06
4.54094e-09
7.8338e-06
-1.80121e-08
7.84568e-06
1.13359e-07
7.84723e-06
9.12579e-08
7.83454e-06
-3.6974e-08
7.81894e-06
-7.1461e-08
7.79961e-06
-8.80614e-08
7.78979e-06
-4.10432e-08
7.79111e-06
6.60239e-08
7.78968e-06
1.24054e-07
7.78917e-06
1.29318e-07
7.79387e-06
1.50273e-07
7.79853e-06
1.63114e-07
7.80434e-06
1.63029e-07
7.80752e-06
1.55482e-07
7.81164e-06
1.39031e-07
7.81568e-06
1.32262e-07
7.81965e-06
1.19287e-07
1.11027e-07
7.82353e-06
8.12996e-06
-6.09946e-08
8.12882e-06
5.68118e-09
8.12962e-06
-1.88093e-08
8.14235e-06
1.00634e-07
8.14475e-06
8.88578e-08
8.13247e-06
-2.47012e-08
8.11669e-06
-5.56738e-08
8.09773e-06
-6.91005e-08
8.08728e-06
-3.05925e-08
8.08845e-06
6.48508e-08
8.0881e-06
1.24399e-07
8.08738e-06
1.30037e-07
8.09184e-06
1.45819e-07
8.09631e-06
1.58645e-07
8.10203e-06
1.57306e-07
8.10562e-06
1.51897e-07
8.10944e-06
1.3521e-07
8.11362e-06
1.28081e-07
8.11729e-06
1.1561e-07
1.07086e-07
8.12123e-06
8.43885e-06
-5.70862e-08
8.43807e-06
6.46855e-09
8.43653e-06
-1.72691e-08
8.44997e-06
8.71877e-08
8.45325e-06
8.55776e-08
8.4418e-06
-1.32515e-08
8.42603e-06
-3.99022e-08
8.40739e-06
-5.04627e-08
8.39641e-06
-1.96133e-08
8.39712e-06
6.41456e-08
8.39778e-06
1.23734e-07
8.39706e-06
1.30757e-07
8.40121e-06
1.41677e-07
8.4056e-06
1.5425e-07
8.41105e-06
1.5186e-07
8.41504e-06
1.47903e-07
8.41847e-06
1.3178e-07
8.42262e-06
1.23932e-07
8.42638e-06
1.11854e-07
1.03235e-07
8.43023e-06
8.75941e-06
-5.32073e-08
8.75911e-06
6.75986e-09
8.75551e-06
-1.3667e-08
8.76897e-06
7.37332e-08
8.77314e-06
8.14057e-08
8.76286e-06
-2.97575e-09
8.74729e-06
-2.43296e-08
8.72904e-06
-3.22079e-08
8.7176e-06