/*--------------------------------*- C++ -*----------------------------------*\
| =========                 |                                                 |
| \\      /  F ield         | OpenFOAM: The Open Source CFD Toolbox           |
|  \\    /   O peration     | Version:  v2012                                 |
|   \\  /    A nd           | Website:  www.openfoam.com                      |
|    \\/     M anipulation  |                                                 |
\*---------------------------------------------------------------------------*/
FoamFile
{
    version     2.0;
    format      ascii;
    class       volVectorField;
    location    "0.5";
    object      U;
}
// * * * * * * * * * * * * * * * * * * * * * * * * * * * * * * * * * * * * * //

dimensions      [0 1 -1 0 0 0 0];


internalField   nonuniform List<vector> 
7000
(
(0.929668 -0.00215173 0)
(1.12725 0.001915 0)
(0.815118 -0.00277446 0)
(1.16276 0.00867559 0)
(0.947621 0.00509148 0)
(0.973694 -0.00722126 0)
(0.94453 -0.00902356 0)
(1.10073 -0.0239529 0)
(0.943675 -0.000688975 0)
(1.12802 -0.00816937 0)
(0.877145 0.0121316 0)
(1.14289 0.00139673 0)
(0.835126 0.0161835 0)
(1.15643 0.00669508 0)
(0.822274 0.0173237 0)
(1.15398 0.0131728 0)
(0.829103 0.0160982 0)
(1.13265 0.0154736 0)
(0.841504 0.0139952 0)
(1.10436 0.0151313 0)
(0.934085 -0.00243859 0)
(1.12102 0.00258759 0)
(0.828958 -0.003168 0)
(1.15329 0.00805874 0)
(0.960565 0.00631685 0)
(0.973981 -0.00705821 0)
(0.953652 -0.0102945 0)
(1.08674 -0.0237877 0)
(0.949024 -0.00126616 0)
(1.11616 -0.00706555 0)
(0.886398 0.0118187 0)
(1.12568 0.00245258 0)
(0.850419 0.0158171 0)
(1.12971 0.00727218 0)
(0.849051 0.0171418 0)
(1.11313 0.0131355 0)
(0.875866 0.0165401 0)
(1.07167 0.0147838 0)
(0.913421 0.0153956 0)
(1.01881 0.0138283 0)
(0.942398 -0.00271087 0)
(1.10838 0.00319097 0)
(0.854888 -0.00351392 0)
(1.13279 0.00745604 0)
(0.980155 0.00741527 0)
(0.975123 -0.0069944 0)
(0.965781 -0.0112754 0)
(1.06689 -0.0236077 0)
(0.961368 -0.00173536 0)
(1.09501 -0.0060775 0)
(0.910119 0.011404 0)
(1.09338 0.00331717 0)
(0.887176 0.0153549 0)
(1.08285 0.00763124 0)
(0.899942 0.0171049 0)
(1.05425 0.0127587 0)
(0.93425 0.0173783 0)
(1.0129 0.0139471 0)
(0.962672 0.0168134 0)
(0.978921 0.0132611 0)
(0.953522 -0.00293528 0)
(1.09039 0.00363532 0)
(0.888005 -0.00374424 0)
(1.10434 0.00691586 0)
(0.998698 0.00827271 0)
(0.977712 -0.00684714 0)
(0.977612 -0.0119694 0)
(1.04445 -0.0235185 0)
(0.977629 -0.00212117 0)
(1.06957 -0.00541621 0)
(0.943188 0.0112756 0)
(1.05746 0.00374134 0)
(0.931925 0.0153563 0)
(1.03838 0.00749878 0)
(0.948169 0.0175654 0)
(1.01237 0.0121123 0)
(0.972186 0.0183122 0)
(0.987613 0.0133606 0)
(0.982578 0.0177197 0)
(0.973742 0.0133612 0)
(0.965911 -0.00312354 0)
(1.0694 0.00395295 0)
(0.922141 -0.00387829 0)
(1.07322 0.00640084 0)
(1.01144 0.00895607 0)
(0.982374 -0.00664288 0)
(0.987057 -0.0124494 0)
(1.02404 -0.023534 0)
(0.992093 -0.00243122 0)
(1.04656 -0.00504451 0)
(0.974681 0.0114456 0)
(1.0306 0.00388243 0)
(0.968477 0.0157187 0)
(1.01219 0.00719068 0)
(0.979159 0.018173 0)
(0.996873 0.0115751 0)
(0.98987 0.0189907 0)
(0.986457 0.0130869 0)
(0.990015 0.0182184 0)
(0.981334 0.0136485 0)
(0.977927 -0.00327085 0)
(1.04826 0.00415724 0)
(0.952198 -0.00392983 0)
(1.04458 0.00597029 0)
(1.01697 0.00943791 0)
(0.988702 -0.00643047 0)
(0.993724 -0.012719 0)
(1.00887 -0.0236124 0)
(1.00041 -0.00268317 0)
(1.02993 -0.00490399 0)
(0.996868 0.0117193 0)
(1.01684 0.00393112 0)
(0.990716 0.0161322 0)
(1.00309 0.00695317 0)
(0.994183 0.0185966 0)
(0.996764 0.0112471 0)
(0.996913 0.0193758 0)
(0.992958 0.0129819 0)
(0.994053 0.0185212 0)
(0.990002 0.0139092 0)
(0.988284 -0.00337356 0)
(1.02945 0.00426262 0)
(0.975446 -0.00391626 0)
(1.02183 0.00566201 0)
(1.01657 0.00970443 0)
(0.995334 -0.00623985 0)
(0.998529 -0.0128085 0)
(0.999525 -0.0236942 0)
(1.00182 -0.00290934 0)
(1.01923 -0.00494653 0)
(1.00841 0.0119494 0)
(1.0123 0.00396688 0)
(1.00107 0.0164758 0)
(1.00213 0.00681103 0)
(0.999563 0.0188339 0)
(1.00015 0.0110386 0)
(0.999478 0.0195992 0)
(0.99839 0.0129487 0)
(0.996794 0.0187308 0)
(0.995783 0.0141531 0)
(0.996319 -0.00343509 0)
(1.0144 0.0042932 0)
(0.991536 -0.00386072 0)
(1.00606 0.00547393 0)
(1.01285 0.00978323 0)
(1.00094 -0.00609726 0)
(1.00252 -0.012767 0)
(0.994734 -0.0237206 0)
(0.99837 -0.00311857 0)
(1.01178 -0.00512816 0)
(1.01187 0.0120862 0)
(1.01138 0.00399742 0)
(1.0044 0.0167795 0)
(1.00269 0.00673041 0)
(1.00035 0.0190073 0)
(1.00187 0.0108702 0)
(0.999977 0.0197654 0)
(1.00079 0.0129506 0)
(0.998309 0.0188788 0)
(0.998586 0.0144063 0)
(1.00199 -0.00346239 0)
(1.00333 0.00427434 0)
(1.00167 -0.0037862 0)
(0.996498 0.0053871 0)
(1.00836 0.0097238 0)
(1.00494 -0.00601856 0)
(1.0061 -0.0126407 0)
(0.992791 -0.0236517 0)
(0.992911 -0.00329226 0)
(1.0052 -0.00540395 0)
(1.01052 0.0121278 0)
(1.01054 0.00401166 0)
(1.00443 0.0170807 0)
(1.00251 0.00669157 0)
(0.999424 0.0191811 0)
(1.00162 0.0107135 0)
(0.999476 0.0198995 0)
(1.00113 0.0129749 0)
(0.998868 0.0189627 0)
(0.999636 0.0146558 0)
(1.00564 -0.00346239 0)
(0.995658 0.00422502 0)
(1.00755 -0.00370916 0)
(0.991433 0.00537592 0)
(1.00466 0.00957544 0)
(1.00751 -0.00600363 0)
(1.00904 -0.0124638 0)
(0.992379 -0.0234753 0)
(0.987647 -0.00340174 0)
(0.998472 -0.00573362 0)
(1.00672 0.012081 0)
(1.00849 0.00399203 0)
(1.00311 0.0173764 0)
(1.00151 0.00667712 0)
(0.998163 0.0193546 0)
(1.00055 0.0105686 0)
(0.99872 0.0199802 0)
(1.00074 0.0130193 0)
(0.999023 0.0189721 0)
(1.00006 0.0148859 0)
(1.00776 -0.00344056 0)
(0.990531 0.00415683 0)
(1.0107 -0.00363882 0)
(0.98917 0.00541498 0)
(1.00219 0.00937376 0)
(1.00909 -0.00603983 0)
(1.01099 -0.0122583 0)
(0.992689 -0.0232034 0)
(0.983668 -0.00342434 0)
(0.991706 -0.006078 0)
(1.00187 0.0119552 0)
(1.00514 0.00392252 0)
(1.00122 0.0176408 0)
(1.00004 0.00667105 0)
(0.997036 0.0195004 0)
(0.99944 0.0104482 0)
(0.998083 0.0199798 0)
(1.00036 0.0130895 0)
(0.999133 0.018908 0)
(1.0004 0.0150945 0)
(1.00873 -0.00340095 0)
(0.987287 0.00407619 0)
(1.01208 -0.00357865 0)
(0.988471 0.00548314 0)
(1.0008 0.00914113 0)
(1.01005 -0.00610867 0)
(1.01181 -0.0120371 0)
(0.993252 -0.0228617 0)
(0.981176 -0.00334812 0)
(0.985544 -0.00640035 0)
(0.996732 0.0117652 0)
(1.00096 0.00379735 0)
(0.998974 0.0178475 0)
(0.998269 0.00666261 0)
(0.996001 0.0195919 0)
(0.998424 0.0103644 0)
(0.997521 0.0198856 0)
(1.00003 0.0131899 0)
(0.999191 0.0187791 0)
(1.00064 0.0152823 0)
(1.00883 -0.00334698 0)
(0.985561 0.0039871 0)
(1.01221 -0.00352808 0)
(0.988626 0.00556409 0)
(1.0002 0.00889126 0)
(1.0106 -0.00619186 0)
(1.01163 -0.0118068 0)
(0.993788 -0.0224791 0)
(0.979929 -0.00317645 0)
(0.980658 -0.00667263 0)
(0.991789 0.0115311 0)
(0.996574 0.00362178 0)
(0.996537 0.0179778 0)
(0.996358 0.00665187 0)
(0.994885 0.0196101 0)
(0.997387 0.0103245 0)
(0.996814 0.0197037 0)
(0.999573 0.0133185 0)
(0.999031 0.0185939 0)
(1.00065 0.0154452 0)
(1.00822 -0.00328228 0)
(0.985195 0.00389306 0)
(1.01132 -0.00348416 0)
(0.989291 0.00564464 0)
(1.00019 0.00863389 0)
(1.01086 -0.00627398 0)
(1.01074 -0.0115701 0)
(0.99413 -0.0220804 0)
(0.979587 -0.0029281 0)
(0.977469 -0.00687687 0)
(0.987427 0.0112745 0)
(0.992562 0.0034084 0)
(0.994116 0.0180221 0)
(0.994534 0.00664775 0)
(0.993649 0.0195441 0)
(0.996293 0.0103361 0)
(0.995861 0.0194401 0)
(0.998888 0.0134689 0)
(0.998582 0.018366 0)
(1.00035 0.0155784 0)
(1.00705 -0.0032111 0)
(0.986055 0.00379764 0)
(1.00961 -0.00344225 0)
(0.990298 0.00571259 0)
(1.00068 0.00837689 0)
(1.01088 -0.0063432 0)
(1.00947 -0.0113269 0)
(0.994201 -0.0216843 0)
(0.979874 -0.002631 0)
(0.976049 -0.00700547 0)
(0.983967 0.0110164 0)
(0.989317 0.00317207 0)
(0.991965 0.0179792 0)
(0.993044 0.00666513 0)
(0.992431 0.0193888 0)
(0.995272 0.0104065 0)
(0.994786 0.0191016 0)
(0.998071 0.01363 0)
(0.997949 0.0181085 0)
(0.999837 0.0156771 0)
(1.00552 -0.00313796 0)
(0.987908 0.00370422 0)
(1.00733 -0.00339672 0)
(0.991518 0.00575612 0)
(1.00157 0.00812645 0)
(1.01072 -0.00639116 0)
(1.00812 -0.0110758 0)
(0.994005 -0.0213022 0)
(0.980579 -0.00231691 0)
(0.976159 -0.00705909 0)
(0.98162 0.010772 0)
(0.98699 0.00293139 0)
(0.990274 0.0178483 0)
(0.992032 0.00672136 0)
(0.99144 0.0191468 0)
(0.994504 0.0105386 0)
(0.993835 0.0187004 0)
(0.997312 0.0137891 0)
(0.99733 0.0178326 0)
(0.999279 0.0157401 0)
(1.00382 -0.00306704 0)
(0.990385 0.00361551 0)
(1.0048 -0.00334252 0)
(0.99281 0.00576586 0)
(1.0027 0.00788734 0)
(1.01043 -0.0064131 0)
(1.00689 -0.010815 0)
(0.993617 -0.0209398 0)
(0.981511 -0.00201398 0)
(0.977356 -0.00704499 0)
(0.98043 0.0105482 0)
(0.985539 0.00270949 0)
(0.989094 0.0176271 0)
(0.991489 0.0068262 0)
(0.990809 0.0188285 0)
(0.994089 0.0107295 0)
(0.993212 0.0182573 0)
(0.996766 0.0139397 0)
(0.996889 0.017549 0)
(0.998808 0.0157697 0)
(1.0022 -0.00300129 0)
(0.99304 0.00353278 0)
(1.00237 -0.0032759 0)
(0.994027 0.00573679 0)
(1.00389 0.00766246 0)
(1.01006 -0.00640858 0)
(1.00588 -0.0105424 0)
(0.993163 -0.0205982 0)
(0.982485 -0.00174197 0)
(0.97913 -0.0069767 0)
(0.98026 0.0103469 0)
(0.984811 0.00252952 0)
(0.988337 0.0173164 0)
(0.991281 0.00698368 0)
(0.990539 0.0184378 0)
(0.993995 0.0109707 0)
(0.992989 0.0177987 0)
(0.996477 0.0140796 0)
(0.996691 0.0172659 0)
(0.998481 0.0157707 0)
(1.00081 -0.00294198 0)
(0.995454 0.00345557 0)
(1.00035 -0.0031948 0)
(0.995055 0.00566889 0)
(1.00495 0.00745233 0)
(1.00965 -0.00638016 0)
(1.00512 -0.010258 0)
(0.992765 -0.0202735 0)
(0.983337 -0.00151247 0)
(0.981025 -0.00686732 0)
(0.980838 0.0101594 0)
(0.984629 0.00241499 0)
(0.987858 0.0169228 0)
(0.991248 0.00718946 0)
(0.990538 0.0179794 0)
(0.994102 0.0112449 0)
(0.993108 0.017337 0)
(0.996397 0.014201 0)
(0.996709 0.016993 0)
(0.998288 0.0157557 0)
(0.999785 -0.00288857 0)
(0.99734 0.00338191 0)
(0.998908 -0.00309921 0)
(0.995836 0.0055667 0)
(1.00574 0.00725544 0)
(1.00922 -0.00633208 0)
(1.00458 -0.00996403 0)
(0.992508 -0.019958 0)
(0.983969 -0.00132805 0)
(0.982714 -0.00672897 0)
(0.981845 0.00997302 0)
(0.984836 0.00238162 0)
(0.987548 0.0164607 0)
(0.991279 0.00743617 0)
(0.990698 0.0174597 0)
(0.994285 0.0115313 0)
(0.993453 0.0168838 0)
(0.996445 0.0143021 0)
(0.996872 0.0167384 0)
(0.998199 0.015734 0)
(0.999128 -0.0028393 0)
(0.998586 0.00330909 0)
(0.998041 -0.00299073 0)
(0.996376 0.00543746 0)
(1.00623 0.00706982 0)
(1.00882 -0.00627031 0)
(1.00421 -0.00966315 0)
(0.992413 -0.0196428 0)
(0.984363 -0.00118694 0)
(0.984032 -0.0065713 0)
(0.982997 0.00976711 0)
(0.985302 0.00244081 0)
(0.987378 0.0159408 0)
(0.991342 0.00771742 0)
(0.990958 0.0168939 0)
(0.994472 0.0118109 0)
(0.993912 0.0164533 0)
(0.99656 0.014388 0)
(0.997113 0.0165074 0)
(0.998183 0.0157113 0)
(0.99879 -0.00279187 0)
(0.999251 0.00323449 0)
(0.997646 -0.0028719 0)
(0.996723 0.00528919 0)
(1.00643 0.00689292 0)
(1.00844 -0.00619988 0)
(1.00397 -0.00935829 0)
(0.992457 -0.0193216 0)
(0.98457 -0.00107664 0)
(0.984956 -0.00639695 0)
(0.984097 0.00951843 0)
(0.985913 0.00259433 0)
(0.987377 0.0153682 0)
(0.991456 0.00802347 0)
(0.991304 0.0163061 0)
(0.994651 0.0120677 0)
(0.994409 0.0160514 0)
(0.99671 0.014458 0)
(0.997386 0.016299 0)
(0.998226 0.0156921 0)
(0.99868 -0.00274418 0)
(0.999489 0.00315613 0)
(0.997563 -0.00274518 0)
(0.996941 0.00512862 0)
(1.00641 0.00672244 0)
(1.0081 -0.0061248 0)
(1.00383 -0.00905234 0)
(0.992594 -0.0189875 0)
(0.984668 -0.00099597 0)
(0.985555 -0.00620194 0)
(0.98504 0.00921822 0)
(0.986568 0.00282347 0)
(0.987569 0.0147584 0)
(0.991643 0.00834137 0)
(0.991734 0.0157106 0)
(0.994838 0.0122908 0)
(0.994901 0.0156817 0)
(0.996888 0.0145094 0)
(0.99766 0.0161023 0)
(0.998312 0.0156726 0)
(0.998703 -0.00269473 0)
(0.999479 0.00307276 0)
(0.997643 -0.00261224 0)
(0.997086 0.00495998 0)
(1.00626 0.00655723 0)
(1.00779 -0.00604838 0)
(1.00375 -0.00874739 0)
(0.992784 -0.0186352 0)
(0.984731 -0.000946195 0)
(0.985937 -0.00598046 0)
(0.985798 0.00885747 0)
(0.987183 0.00311393 0)
(0.987932 0.0141196 0)
(0.991895 0.00866099 0)
(0.992228 0.0151241 0)
(0.995046 0.0124755 0)
(0.99536 0.0153447 0)
(0.997085 0.0145409 0)
(0.997917 0.0159067 0)
(0.998426 0.0156463 0)
(0.998786 -0.00264271 0)
(0.999362 0.00298394 0)
(0.997781 -0.00247438 0)
(0.997196 0.00478624 0)
(1.00605 0.00639494 0)
(1.00749 -0.00596993 0)
(1.0037 -0.00844769 0)
(0.993003 -0.0182566 0)
(0.984806 -0.000926609 0)
(0.986202 -0.00572242 0)
(0.986388 0.00843604 0)
(0.987704 0.00344987 0)
(0.988401 0.0134583 0)
(0.992175 0.00897007 0)
(0.992741 0.0145657 0)
(0.995266 0.0126218 0)
(0.995766 0.0150463 0)
(0.997284 0.0145644 0)
(0.998142 0.0157188 0)
(0.998548 0.0156159 0)
(0.998883 -0.00258794 0)
(0.999228 0.00288986 0)
(0.997919 -0.00233228 0)
(0.997294 0.00460865 0)
(1.00581 0.00623479 0)
(1.00721 -0.00589001 0)
(1.00365 -0.00815769 0)
(0.99324 -0.0178404 0)
(0.984917 -0.000943787 0)
(0.986421 -0.00542086 0)
(0.986851 0.0079609 0)
(0.98811 0.00381521 0)
(0.988894 0.0127889 0)
(0.992436 0.0092513 0)
(0.993222 0.0140478 0)
(0.995474 0.0127315 0)
(0.996104 0.0147883 0)
(0.997467 0.0145909 0)
(0.998326 0.0155459 0)
(0.998657 0.0155827 0)
(0.998972 -0.00253035 0)
(0.999115 0.00279034 0)
(0.998037 -0.00218556 0)
(0.997388 0.0044269 0)
(1.00557 0.00607648 0)
(1.00694 -0.00580864 0)
(1.00358 -0.00787739 0)
(0.993486 -0.01739 0)
(0.985072 -0.000994611 0)
(0.986633 -0.0050841 0)
(0.987228 0.00744127 0)
(0.988411 0.00419148 0)
(0.989345 0.012128 0)
(0.992647 0.00949184 0)
(0.993632 0.0135744 0)
(0.995653 0.0128058 0)
(0.996373 0.0145544 0)
(0.997621 0.0146111 0)
(0.998466 0.0153797 0)
(0.998742 0.0155365 0)
(0.999048 -0.00247004 0)
(0.99903 0.00268559 0)
(0.998131 -0.00203456 0)
(0.997485 0.004242 0)
(1.00534 0.00591812 0)
(1.00668 -0.00572342 0)
(1.00348 -0.00761196 0)
(0.993734 -0.0169015 0)
(0.985273 -0.00108636 0)
(0.986855 -0.0047128 0)
(0.987556 0.00689102 0)
(0.988631 0.00455842 0)
(0.989721 0.0114925 0)
(0.992798 0.00968169 0)
(0.993957 0.0131407 0)
(0.995792 0.012845 0)
(0.996581 0.0143316 0)
(0.997742 0.0146138 0)
(0.998568 0.0152202 0)
(0.998799 0.0154785 0)
(0.99911 -0.00240734 0)
(0.998971 0.00257636 0)
(0.998205 -0.00188006 0)
(0.997583 0.00405512 0)
(1.00512 0.0057581 0)
(1.00643 -0.0056264 0)
(1.00335 -0.00737457 0)
(0.993977 -0.0163662 0)
(0.985517 -0.00121575 0)
(0.987091 -0.00430661 0)
(0.987865 0.0063219 0)
(0.988803 0.00490707 0)
(0.990018 0.010892 0)
(0.992901 0.00981854 0)
(0.994205 0.0127486 0)
(0.995898 0.0128519 0)
(0.996741 0.014123 0)
(0.997836 0.0146027 0)
(0.998642 0.0150802 0)
(0.998834 0.0154165 0)
(0.999163 -0.00234231 0)
(0.998929 0.0024625 0)
(0.998265 -0.00172175 0)
(0.997686 0.00386568 0)
(1.00491 0.00559652 0)
(1.00618 -0.00551097 0)
(1.00319 -0.0071658 0)
(0.994211 -0.0157908 0)
(0.985799 -0.00137429 0)
(0.987336 -0.00387296 0)
(0.988173 0.0057479 0)
(0.988956 0.00522596 0)
(0.990254 0.0103431 0)
(0.992978 0.00990205 0)
(0.994397 0.0123964 0)
(0.995983 0.0128322 0)
(0.996872 0.0139378 0)
(0.997913 0.0145848 0)
(0.998701 0.0149575 0)
(0.99885 0.0153446 0)
(0.99921 -0.00227491 0)
(0.9989 0.00234425 0)
(0.998313 -0.00156114 0)
(0.99779 0.00367571 0)
(1.00471 0.00543156 0)
(1.00594 -0.0053819 0)
(1.00301 -0.00697647 0)
(0.994431 -0.0151832 0)
(0.986113 -0.00155999 0)
(0.987586 -0.00341944 0)
(0.988491 0.00518516 0)
(0.989113 0.00549684 0)
(0.990453 0.00985388 0)
(0.993049 0.00993088 0)
(0.994557 0.0120727 0)
(0.996064 0.0127861 0)
(0.99699 0.0137712 0)
(0.997983 0.0145571 0)
(0.998749 0.0148479 0)
(0.998854 0.0152599 0)
(0.999252 -0.00220531 0)
(0.998879 0.00222171 0)
(0.998353 -0.00139817 0)
(0.997897 0.00348639 0)
(1.00451 0.00525946 0)
(1.00571 -0.00523453 0)
(1.00283 -0.00681444 0)
(0.994638 -0.0145415 0)
(0.986453 -0.00176436 0)
(0.987837 -0.00296054 0)
(0.988821 0.00464823 0)
(0.989288 0.00570173 0)
(0.990634 0.00942273 0)
(0.993131 0.00992191 0)
(0.994705 0.0117726 0)
(0.996153 0.0127091 0)
(0.997108 0.0136064 0)
(0.998054 0.0145078 0)
(0.998793 0.0147474 0)
(0.998849 0.0151626 0)
(0.99929 -0.00213394 0)
(0.998867 0.00209625 0)
(0.998387 -0.00123496 0)
(0.998004 0.00330092 0)
(1.00431 0.0050768 0)
(1.00547 -0.00506203 0)
(1.00264 -0.00668002 0)
(0.994836 -0.0138777 0)
(0.986811 -0.00197843 0)
(0.988085 -0.00250713 0)
(0.989159 0.00415668 0)
(0.989487 0.00584189 0)
(0.990815 0.00903999 0)
(0.99323 0.00988586 0)
(0.994853 0.0115012 0)
(0.996257 0.0126131 0)
(0.997232 0.0134447 0)
(0.998133 0.0144307 0)
(0.998835 0.0146546 0)
(0.998837 0.0150573 0)
(0.999326 -0.00206063 0)
(0.998863 0.00196821 0)
(0.998416 -0.00107402 0)
(0.99811 0.00312006 0)
(1.00412 0.00488223 0)
(1.00523 -0.00486456 0)
(1.00246 -0.00656451 0)
(0.995026 -0.013203 0)
(0.987184 -0.00219759 0)
(0.988331 -0.00207027 0)
(0.9895 0.00372286 0)
(0.989709 0.0059269 0)
(0.991001 0.00870469 0)
(0.993349 0.00982786 0)
(0.995008 0.0112704 0)
(0.996377 0.012514 0)
(0.997365 0.0132954 0)
(0.998224 0.0143254 0)
(0.998879 0.0145575 0)
(0.998818 0.0149438 0)
(0.999359 -0.0019859 0)
(0.998867 0.00183784 0)
(0.998442 -0.00091407 0)
(0.998214 0.00294767 0)
(1.00394 0.00467355 0)
(1.00499 -0.00464268 0)
(1.00228 -0.00646525 0)
(0.995211 -0.0125196 0)
(0.987568 -0.0024045 0)
(0.988576 -0.00165775 0)
(0.989843 0.0033418 0)
(0.989952 0.00595781 0)
(0.991196 0.00842221 0)
(0.993489 0.00975993 0)
(0.995173 0.0110885 0)
(0.996513 0.0124145 0)
(0.997504 0.013151 0)
(0.998326 0.0141851 0)
(0.998927 0.0144322 0)
(0.998795 0.0148109 0)
(0.99939 -0.00190971 0)
(0.998879 0.0017058 0)
(0.998466 -0.000757652 0)
(0.998314 0.0027854 0)
(1.00376 0.00444656 0)
(1.00475 -0.00440566 0)
(1.00211 -0.00637061 0)
(0.995392 -0.0118364 0)
(0.987962 -0.00258796 0)
(0.988822 -0.00129374 0)
(0.990182 0.00301941 0)
(0.990213 0.0059482 0)
(0.991401 0.00817046 0)
(0.993648 0.00966372 0)
(0.995348 0.0109377 0)
(0.99666 0.0123088 0)
(0.997647 0.0130019 0)
(0.998435 0.0140049 0)
(0.998982 0.0142643 0)
(0.998773 0.0146555 0)
(0.999418 -0.0018324 0)
(0.998897 0.00157306 0)
(0.99849 -0.000608525 0)
(0.998411 0.00263498 0)
(1.00358 0.00419983 0)
(1.0045 -0.0041506 0)
(1.00194 -0.00628433 0)
(0.995571 -0.011161 0)
(0.988361 -0.00274538 0)
(0.989072 -0.000976999 0)
(0.99052 0.00274725 0)
(0.990488 0.00592019 0)
(0.991614 0.00795262 0)
(0.993824 0.00953871 0)
(0.995536 0.0107982 0)
(0.996816 0.0121895 0)
(0.997791 0.012843 0)
(0.998547 0.0137928 0)
(0.999045 0.0140487 0)
(0.998757 0.0144684 0)
(0.999443 -0.00175477 0)
(0.99892 0.00144192 0)
(0.998514 -0.000468829 0)
(0.998504 0.00250564 0)
(1.00341 0.00393732 0)
(1.00424 -0.00388021 0)
(1.00177 -0.00619844 0)
(0.995748 -0.0105142 0)
(0.988765 -0.00285439 0)
(0.989325 -0.00069495 0)
(0.990857 0.00252027 0)
(0.990778 0.00587277 0)
(0.991833 0.0077889 0)
(0.994015 0.00940934 0)
(0.995735 0.0106712 0)
(0.996978 0.0120586 0)
(0.997933 0.0126795 0)
(0.998659 0.01357 0)
(0.999117 0.0138052 0)
(0.99875 0.0142534 0)
(0.999468 -0.00167631 0)
(0.998948 0.00131071 0)
(0.998541 -0.000338128 0)
(0.998592 0.00239868 0)
(1.00324 0.003663 0)
(1.00399 -0.00360835 0)
(1.0016 -0.00609707 0)
(0.995924 -0.00991468 0)
(0.989172 -0.00290444 0)
(0.989582 -0.000462713 0)
(0.991194 0.00233866 0)
(0.991085 0.00580492 0)
(0.992059 0.00767346 0)
(0.994218 0.00927432 0)
(0.995944 0.0105438 0)
(0.997147 0.0119173 0)
(0.998074 0.0125132 0)
(0.998768 0.0133513 0)
(0.999195 0.0135462 0)
(0.998756 0.0140069 0)
(0.999491 -0.00159821 0)
(0.998979 0.00118207 0)
(0.998571 -0.000222093 0)
(0.998675 0.00231609 0)
(1.00308 0.00338088 0)
(1.00374 -0.00333318 0)
(1.00144 -0.00598315 0)
(0.9961 -0.00935281 0)
(0.989583 -0.00290785 0)
(0.989842 -0.000260261 0)
(0.991531 0.00217062 0)
(0.991408 0.00572126 0)
(0.992292 0.00759654 0)
(0.994428 0.00913458 0)
(0.996163 0.0103909 0)
(0.99732 0.0117572 0)
(0.998216 0.012334 0)
(0.998872 0.0131363 0)
(0.999271 0.0132805 0)
(0.998773 0.0137217 0)
(0.999513 -0.00151996 0)
(0.999012 0.00105805 0)
(0.998605 -0.000125342 0)
(0.998754 0.0022573 0)
(1.00293 0.00309254 0)
(1.00349 -0.00306269 0)
(1.00127 -0.0058354 0)
(0.996277 -0.0088402 0)
(0.989996 -0.00287466 0)
(0.990103 -6.7357e-05 0)
(0.991869 0.0020316 0)
(0.991753 0.00561817 0)
(0.992532 0.00754005 0)
(0.99464 0.0089918 0)
(0.996389 0.0102086 0)
(0.997501 0.0115816 0)
(0.99836 0.0121402 0)
(0.998972 0.0129184 0)
(0.99934 0.0130195 0)
(0.998798 0.0134043 0)
(0.999535 -0.00144295 0)
(0.999048 0.000938471 0)
(0.998641 -4.56614e-05 0)
(0.998829 0.00222214 0)
(1.00278 0.00279738 0)
(1.00324 -0.00280537 0)
(1.00111 -0.0056464 0)
(0.996452 -0.00838305 0)
(0.990413 -0.00280999 0)
(0.990367 0.00012948 0)
(0.992204 0.00194821 0)
(0.992116 0.00549002 0)
(0.992782 0.00749249 0)
(0.994852 0.00885131 0)
(0.996625 0.0100033 0)
(0.997691 0.0113979 0)
(0.998509 0.0119444 0)
(0.999071 0.0126943 0)
(0.999397 0.0127742 0)
(0.998828 0.0130655 0)
(0.999557 -0.00136699 0)
(0.999084 0.00082274 0)
(0.998681 1.99313e-05 0)
(0.998899 0.00220324 0)
(1.00264 0.00250708 0)
(1.003 -0.00257462 0)
(1.00095 -0.00541324 0)
(0.996626 -0.00796058 0)
(0.990836 -0.00273334 0)
(0.990633 0.000334579 0)
(0.992534 0.0019048 0)
(0.992497 0.00535033 0)
(0.993043 0.00745778 0)
(0.995061 0.00872996 0)
(0.996869 0.00978311 0)
(0.997895 0.0111958 0)
(0.998662 0.0117499 0)
(0.999172 0.0124501 0)
(0.999441 0.0125476 0)
(0.998857 0.0127214 0)
(0.999579 -0.001292 0)
(0.999122 0.000713838 0)
(0.998725 6.5262e-05 0)
(0.998964 0.00220023 0)
(1.0025 0.00223136 0)
(1.00277 -0.00236738 0)
(1.00078 -0.00514333 0)
(0.996797 -0.00756813 0)
(0.991266 -0.00266185 0)
(0.990904 0.00054438 0)
(0.992856 0.00190483 0)
(0.992894 0.00520091 0)
(0.993319 0.00740526 0)
(0.995264 0.00861949 0)
(0.997117 0.00955363 0)
(0.998114 0.0109654 0)
(0.998819 0.0115595 0)
(0.999278 0.0121815 0)
(0.999475 0.012336 0)
(0.998883 0.0123866 0)
(0.9996 -0.00121911 0)
(0.999162 0.000612134 0)
(0.998773 9.26819e-05 0)
(0.999024 0.00220967 0)
(1.00237 0.00197307 0)
(1.00255 -0.00219175 0)
(1.00062 -0.00484247 0)
(0.996962 -0.0071875 0)
(0.991706 -0.00259428 0)
(0.991184 0.000737799 0)
(0.993169 0.00193876 0)
(0.993302 0.0050358 0)
(0.993612 0.00732328 0)
(0.995463 0.00852192 0)
(0.997364 0.00932782 0)
(0.998352 0.0107004 0)
(0.99898 0.0113777 0)
(0.999392 0.0119049 0)
(0.999505 0.0121363 0)
(0.998901 0.0120715 0)
(0.999621 -0.00114842 0)
(0.999202 0.00051699 0)
(0.998825 0.000110579 0)
(0.999079 0.00222001 0)
(1.00224 0.00173923 0)
(1.00235 -0.00205817 0)
(1.00046 -0.00452188 0)
(0.99712 -0.00679454 0)
(0.992153 -0.00253635 0)
(0.991474 0.000911318 0)
(0.993471 0.00200197 0)
(0.993717 0.00487461 0)
(0.993924 0.00722751 0)
(0.99566 0.00843769 0)
(0.997603 0.00911917 0)
(0.998608 0.0103964 0)
(0.999151 0.0111934 0)
(0.999513 0.0116234 0)
(0.999534 0.0119275 0)
(0.998909 0.0117753 0)
(0.999643 -0.00108037 0)
(0.999243 0.000430744 0)
(0.998881 0.000115549 0)
(0.99913 0.00223011 0)
(1.00211 0.00154212 0)
(1.00215 -0.00195553 0)
(1.0003 -0.0041966 0)
(0.99727 -0.00638286 0)
(0.992606 -0.00247924 0)
(0.991778 0.00107849 0)
(0.993764 0.00209047 0)
(0.994137 0.00472103 0)
(0.994256 0.00710641 0)
(0.995857 0.00834947 0)
(0.997828 0.00894174 0)
(0.99888 0.0100677 0)
(0.999335 0.0109988 0)
(0.999638 0.0113429 0)
(0.999565 0.0117098 0)
(0.998909 0.0115086 0)
(0.999664 -0.00101405 0)
(0.999284 0.000349802 0)
(0.998943 0.000112334 0)
(0.999177 0.00223491 0)
(1.00197 0.00138786 0)
(1.00197 -0.00187474 0)
(1.00016 -0.00387266 0)
(0.997409 -0.00595173 0)
(0.993063 -0.00241212 0)
(0.992097 0.00123043 0)
(0.994047 0.00219253 0)
(0.994556 0.00456929 0)
(0.994607 0.00696011 0)
(0.996061 0.0082521 0)
(0.998034 0.00880644 0)
(0.999161 0.00972671 0)
(0.999536 0.0107749 0)
(0.99977 0.011066 0)
(0.999605 0.0114823 0)
(0.998902 0.0112711 0)
(0.999684 -0.000952242 0)
(0.999325 0.000278796 0)
(0.999009 0.00010094 0)
(0.999222 0.00222334 0)
(1.00184 0.00128289 0)
(1.0018 -0.00180704 0)
(1.00002 -0.00356377 0)
(0.997539 -0.00550327 0)
(0.993521 -0.00234179 0)
(0.992432 0.00135479 0)
(0.99432 0.00230816 0)
(0.994971 0.00442312 0)
(0.994977 0.0067986 0)
(0.996279 0.00813541 0)
(0.998219 0.00869561 0)
(0.999441 0.00938607 0)
(0.999756 0.0105153 0)
(0.999912 0.0108008 0)
(0.999659 0.0112399 0)
(0.998893 0.0110529 0)
(0.999705 -0.000892272 0)
(0.999366 0.000212394 0)
(0.99908 8.7133e-05 0)
(0.999266 0.00218619 0)
(1.00171 0.00122012 0)
(1.00164 -0.0017503 0)
(0.999898 -0.00327063 0)
(0.99766 -0.00505817 0)
(0.993976 -0.00224726 0)
(0.992784 0.00145102 0)
(0.994586 0.00243635 0)
(0.995379 0.0042909 0)
(0.995364 0.00662353 0)
(0.996512 0.00799119 0)
(0.998385 0.00859715 0)
(0.999711 0.00907247 0)
(0.999999 0.0102299 0)
(1.00007 0.0105512 0)
(0.999726 0.0109834 0)
(0.998883 0.0108488 0)
(0.999724 -0.000835021 0)
(0.999407 0.000151651 0)
(0.999154 6.94786e-05 0)
(0.999311 0.0021275 0)
(1.00157 0.00119071 0)
(1.00149 -0.00167947 0)
(0.999789 -0.00300563 0)
(0.997773 -0.00462088 0)
(0.994426 -0.00213007 0)
(0.993152 0.00152987 0)
(0.994844 0.00257165 0)
(0.995777 0.00417257 0)
(0.995763 0.00643909 0)
(0.996767 0.00782167 0)
(0.99854 0.00851024 0)
(0.999966 0.00880154 0)
(1.00026 0.00991284 0)
(1.00023 0.010298 0)
(0.99981 0.0107103 0)
(0.998879 0.0106521 0)
(0.999744 -0.000782673 0)
(0.999447 0.000101194 0)
(0.99923 4.81025e-05 0)
(0.99936 0.00205175 0)
(1.00144 0.00118692 0)
(1.00134 -0.00159137 0)
(0.999692 -0.00275795 0)
(0.99788 -0.00417871 0)
(0.994869 -0.00200635 0)
(0.993535 0.00159684 0)
(0.995098 0.00271123 0)
(0.996162 0.00407294 0)
(0.996172 0.00625304 0)
(0.997046 0.00762994 0)
(0.998692 0.00841757 0)
(1.0002 0.00856936 0)
(1.00054 0.00956738 0)
(1.00042 0.0100369 0)
(0.999916 0.0104323 0)
(0.998885 0.0104649 0)
(0.999763 -0.000732004 0)
(0.999486 5.88325e-05 0)
(0.999308 2.24194e-05 0)
(0.999411 0.00196012 0)
(1.00131 0.00119502 0)
(1.0012 -0.00147348 0)
(0.99961 -0.00252223 0)
(0.997982 -0.00374685 0)
(0.995302 -0.00186672 0)
(0.993933 0.00164055 0)
(0.995348 0.0028527 0)
(0.996532 0.00399662 0)
(0.996585 0.00606385 0)
(0.997349 0.00742087 0)
(0.998849 0.00830483 0)
(1.0004 0.00838461 0)
(1.00082 0.00921954 0)
(1.00063 0.00977204 0)
(1.00005 0.0101471 0)
(0.998905 0.0102769 0)
(0.999782 -0.000686075 0)
(0.999523 3.19781e-05 0)
(0.999387 -1.11312e-05 0)
(0.999467 0.00185548 0)
(1.00119 0.00121246 0)
(1.00107 -0.00132869 0)
(0.99954 -0.00229338 0)
(0.998081 -0.00333989 0)
(0.995723 -0.00170607 0)
(0.994345 0.00165187 0)
(0.995597 0.00298413 0)
(0.996883 0.00394338 0)
(0.996999 0.00587852 0)
(0.997674 0.00720088 0)
(0.999021 0.00816149 0)
(1.00057 0.00824266 0)
(1.0011 0.00888593 0)
(1.00086 0.00949696 0)
(1.00021 0.00984514 0)
(0.998942 0.0100756 0)
(0.9998 -0.00064354 0)
(0.999558 1.86247e-05 0)
(0.999464 -4.97173e-05 0)
(0.999527 0.00174208 0)
(1.00107 0.00122116 0)
(1.00094 -0.00116949 0)
(0.99948 -0.00205718 0)
(0.998178 -0.0029439 0)
(0.99613 -0.00153794 0)
(0.994769 0.00164657 0)
(0.995851 0.00310457 0)
(0.997216 0.00391377 0)
(0.997407 0.00570215 0)
(0.998014 0.00697747 0)
(0.999213 0.00797821 0)
(1.00072 0.00812527 0)
(1.00136 0.00857603 0)
(1.0011 0.00921424 0)
(1.00039 0.00952818 0)
(0.999003 0.00985381 0)
(0.999817 -0.000605256 0)
(0.999591 1.91694e-05 0)
(0.999538 -9.71881e-05 0)
(0.99959 0.00162309 0)
(1.00097 0.00121901 0)
(1.00081 -0.000991028 0)
(0.999429 -0.0018116 0)
(0.998271 -0.00255685 0)
(0.99652 -0.00136326 0)
(0.995205 0.00163344 0)
(0.996111 0.00320478 0)
(0.99753 0.00389977 0)
(0.997807 0.00553073 0)
(0.998364 0.00676266 0)
(0.999432 0.00775967 0)
(1.00085 0.00801917 0)
(1.0016 0.00829696 0)
(1.00134 0.00893497 0)
(1.0006 0.00920224 0)
(0.99909 0.00960211 0)
(0.999834 -0.000568999 0)
(0.99962 2.53584e-05 0)
(0.999609 -0.000138959 0)
(0.999656 0.00149739 0)
(1.00087 0.00121539 0)
(1.00069 -0.000812355 0)
(0.999385 -0.00155896 0)
(0.99836 -0.00218478 0)
(0.996893 -0.0011757 0)
(0.995648 0.00160508 0)
(0.99638 0.00327764 0)
(0.997826 0.00390043 0)
(0.998196 0.00536645 0)
(0.998716 0.00656196 0)
(0.999677 0.00751393 0)
(1.00099 0.00790323 0)
(1.00181 0.00804746 0)
(1.00158 0.00866798 0)
(1.00082 0.00888445 0)
(0.999204 0.00931964 0)
(0.99985 -0.000535455 0)
(0.999646 3.71186e-05 0)
(0.999676 -0.00017497 0)
(0.999724 0.00136144 0)
(1.00078 0.00119962 0)
(1.00058 -0.000622983 0)
(0.999349 -0.00130281 0)
(0.998443 -0.00182215 0)
(0.997246 -0.000975115 0)
(0.996096 0.00156341 0)
(0.996661 0.00332122 0)
(0.998106 0.00391264 0)
(0.998573 0.00520912 0)
(0.999066 0.00637533 0)
(0.999942 0.00725401 0)
(1.00113 0.00776762 0)
(1.00201 0.00782705 0)
(1.00181 0.00841299 0)
(1.00103 0.00858534 0)
(0.999338 0.00901307 0)
(0.999865 -0.00050366 0)
(0.999669 4.98637e-05 0)
(0.999737 -0.000194525 0)
(0.999795 0.00121857 0)
(1.0007 0.00117179 0)
(1.00048 -0.000439797 0)
(0.999317 -0.00104236 0)
(0.998521 -0.00145968 0)
(0.997574 -0.000759008 0)
(0.996543 0.00152675 0)
(0.996957 0.00334075 0)
(0.998371 0.00393186 0)
(0.998937 0.00505562 0)
(0.999411 0.00620002 0)
(1.00022 0.00699411 0)
(1.00128 0.00760642 0)
(1.00219 0.00762573 0)
(1.00202 0.00815793 0)
(1.00124 0.00830452 0)
(0.999485 0.00869615 0)
(0.999879 -0.000471825 0)
(0.999688 5.8214e-05 0)
(0.999794 -0.000190185 0)
(0.999866 0.00106976 0)
(1.00064 0.00113245 0)
(1.00039 -0.000268363 0)
(0.999295 -0.000780888 0)
(0.998593 -0.00110582 0)
(0.997876 -0.000534447 0)
(0.996985 0.00150697 0)
(0.997268 0.00333495 0)
(0.998624 0.00395027 0)
(0.999287 0.00490564 0)
(0.999749 0.00603066 0)
(1.00052 0.00674221 0)
(1.00144 0.00741718 0)
(1.00235 0.00743705 0)
(1.00222 0.00790086 0)
(1.00143 0.00804887 0)
(0.999639 0.00838664 0)
(0.999892 -0.000441345 0)
(0.999706 6.44405e-05 0)
(0.999843 -0.00016265 0)
(0.999937 0.000914652 0)
(1.00058 0.00108122 0)
(1.00031 -0.000107867 0)
(0.999279 -0.000521932 0)
(0.99866 -0.000763579 0)
(0.998153 -0.000295902 0)
(0.997416 0.00149903 0)
(0.997591 0.00329273 0)
(0.998866 0.00396485 0)
(0.999623 0.00477063 0)
(1.00008 0.00586488 0)
(1.00081 0.00650506 0)
(1.00163 0.00720211 0)
(1.0025 0.00725636 0)
(1.00241 0.0076473 0)
(1.00162 0.00781054 0)
(0.999791 0.00809138 0)
(0.999904 -0.000410236 0)
(0.999722 6.31045e-05 0)
(0.999885 -0.000114624 0)
(1 0.000763802 0)
(1.00055 0.0010202 0)
(1.00025 2.94225e-05 0)
(0.999275 -0.000270726 0)
(0.998724 -0.000428819 0)
(0.998403 -4.716e-05 0)
(0.997829 0.00150799 0)
(0.997927 0.00323629 0)
(0.999105 0.00398061 0)
(0.999943 0.00465181 0)
(1.00041 0.00569519 0)