/*--------------------------------*- C++ -*----------------------------------*\
| =========                 |                                                 |
| \\      /  F ield         | OpenFOAM: The Open Source CFD Toolbox           |
|  \\    /   O peration     | Version:  v2012                                 |
|   \\  /    A nd           | Website:  www.openfoam.com                      |
|    \\/     M anipulation  |                                                 |
\*---------------------------------------------------------------------------*/
FoamFile
{
    version     2.0;
    format      ascii;
    class       surfaceScalarField;
    location    "5.4";
    object      phi;
}
// * * * * * * * * * * * * * * * * * * * * * * * * * * * * * * * * * * * * * //

dimensions      [0 3 -1 0 0 0 0];
oriented        oriented;


internalField   nonuniform List<scalar> 
13830
(
9.4135e-07
-6.72358e-07
9.46542e-07
2.38756e-07
9.37677e-07
8.04296e-07
9.13623e-07
8.34814e-07
8.84344e-07
-7.02085e-07
9.26537e-07
-1.20476e-06
9.63881e-07
-8.73704e-07
9.30468e-07
-1.80353e-06
9.82487e-07
1.98012e-07
9.3247e-07
-6.41775e-07
9.75163e-07
4.29304e-07
9.44662e-07
-4.29244e-08
9.65457e-07
5.58842e-07
9.52734e-07
3.72589e-07
9.52417e-07
4.62692e-07
9.48726e-07
3.8993e-07
9.42605e-07
3.33915e-07
9.44689e-07
2.91488e-07
9.38453e-07
2.23634e-07
2.07945e-07
9.3233e-07
9.77903e-07
-6.77729e-07
9.82713e-07
2.33946e-07
9.72325e-07
8.14683e-07
9.53251e-07
8.53889e-07
9.24678e-07
-6.73512e-07
9.5975e-07
-1.23983e-06
9.92612e-07
-9.06566e-07
9.61632e-07
-1.77255e-06
1.01495e-06
1.4469e-07
9.64601e-07
-5.91422e-07
1.00871e-06
3.85194e-07
9.76297e-07
-1.05109e-08
9.98512e-07
5.36627e-07
9.87254e-07
3.83847e-07
9.83151e-07
4.66794e-07
9.87601e-07
3.8548e-07
9.71518e-07
3.49998e-07
9.85661e-07
2.77345e-07
9.6456e-07
2.44735e-07
1.91689e-07
9.80816e-07
1.01522e-06
-6.83498e-07
1.02065e-06
2.28517e-07
1.00852e-06
8.26819e-07
9.94831e-07
8.67574e-07
9.68516e-07
-6.47198e-07
9.94259e-07
-1.26558e-06
1.02139e-06
-9.33699e-07
9.96105e-07
-1.74726e-06
1.04617e-06
9.46248e-08
1.00297e-06
-5.48226e-07
1.03971e-06
3.48454e-07
1.01686e-06
1.23388e-08
1.02623e-06
5.27262e-07
1.03052e-06
3.79559e-07
1.01153e-06
4.85777e-07
1.02788e-06
3.69138e-07
1.00392e-06
3.73955e-07
1.01949e-06
2.61772e-07
1.00216e-06
2.6207e-07
1.84955e-07
1.00889e-06
1.05321e-06
-6.88931e-07
1.05933e-06
2.22398e-07
1.04704e-06
8.39109e-07
1.03785e-06
8.76759e-07
1.01504e-06
-6.24383e-07
1.03103e-06
-1.28157e-06
1.05112e-06
-9.53793e-07
1.03372e-06
-1.72986e-06
1.07727e-06
5.10771e-08
1.04726e-06
-5.18215e-07
1.07235e-06
3.23368e-07
1.06333e-06
2.13501e-08
1.05907e-06
5.31529e-07
1.0734e-06
3.65225e-07
1.04883e-06
5.10348e-07
1.06408e-06
3.53885e-07
1.04584e-06
3.92202e-07
1.05391e-06
2.53705e-07
1.04557e-06
2.70409e-07
1.84571e-07
1.04595e-06
1.0919e-06
-6.93276e-07
1.09813e-06
2.16172e-07
1.08769e-06
8.4954e-07
1.08242e-06
8.82033e-07
1.06392e-06
-6.05885e-07
1.07057e-06
-1.28821e-06
1.08296e-06
-9.66184e-07
1.07338e-06
-1.72028e-06
1.10934e-06
1.51193e-08
1.09486e-06
-5.03741e-07
1.10855e-06
3.09685e-07
1.11176e-06
1.814e-08
1.10096e-06
5.42323e-07
1.11631e-06
3.49876e-07
1.09603e-06
5.3063e-07
1.10442e-06
3.45493e-07
1.09431e-06
4.02309e-07
1.09647e-06
2.51547e-07
1.09287e-06
2.74007e-07
1.86568e-07
1.09088e-06
1.13157e-06
-6.95999e-07
1.13698e-06
2.10757e-07
1.12997e-06
8.56546e-07
1.12855e-06
8.83456e-07
1.11471e-06
-5.92044e-07
1.1131e-06
-1.2866e-06
1.11767e-06
-9.70761e-07
1.11345e-06
-1.71605e-06
1.14317e-06
-1.46088e-08
1.14246e-06
-5.03032e-07
1.14831e-06
3.03838e-07
1.15921e-06
7.24229e-09
1.1498e-06
5.51733e-07
1.16156e-06
3.38114e-07
1.1483e-06
5.43886e-07
1.15107e-06
3.42728e-07
1.14545e-06
4.07923e-07
1.14484e-06
2.52164e-07
1.1425e-06
2.76345e-07
1.89373e-07
1.13969e-06
1.17251e-06
-6.96812e-07
1.17639e-06
2.06875e-07
1.17358e-06
8.59363e-07
1.17619e-06
8.80847e-07
1.16687e-06
-5.82724e-07
1.15859e-06
-1.27832e-06
1.15554e-06
-9.67712e-07
1.15302e-06
-1.71353e-06
1.17902e-06
-4.06062e-08
1.18834e-06
-5.12356e-07
1.1904e-06
3.01777e-07
1.20492e-06
-7.27542e-09
1.20059e-06
5.56065e-07
1.20887e-06
3.29835e-07
1.20074e-06
5.52007e-07
1.20088e-06
3.42595e-07
1.1967e-06
4.12102e-07
1.19495e-06
2.53913e-07
1.19261e-06
2.78689e-07
1.92571e-07
1.18941e-06
1.21498e-06
-6.95606e-07
1.21716e-06
2.04692e-07
1.21855e-06
8.57968e-07
1.22515e-06
8.74253e-07
1.21986e-06
-5.7744e-07
1.20674e-06
-1.26519e-06
1.19641e-06
-9.57386e-07
1.19233e-06
-1.70945e-06
1.21669e-06
-6.49649e-08
1.23246e-06
-5.28135e-07
1.2337e-06
3.00538e-07
1.24942e-06
-2.29918e-08
1.25004e-06
5.55443e-07
1.25667e-06
3.2321e-07
1.25141e-06
5.57265e-07
1.25094e-06
3.43062e-07
1.24717e-06
4.15874e-07
1.24484e-06
2.56242e-07
1.24244e-06
2.81087e-07
1.96048e-07
1.23897e-06
1.25914e-06
-6.92394e-07
1.26001e-06
2.03818e-07
1.26515e-06
8.52835e-07
1.27516e-06
8.64239e-07
1.27326e-06
-5.75539e-07
1.25711e-06
-1.24904e-06
1.24006e-06
-9.4034e-07
1.23236e-06
-1.70174e-06
1.25597e-06
-8.85745e-08
1.27557e-06
-5.47743e-07
1.27784e-06
2.9827e-07
1.29374e-06
-3.8894e-08
1.29789e-06
5.51297e-07
1.30435e-06
3.16747e-07
1.30084e-06
5.60779e-07
1.30064e-06
3.43264e-07
1.29741e-06
4.19102e-07
1.29466e-06
2.58996e-07
1.29251e-06
2.83238e-07
1.99731e-07
1.28882e-06
1.30518e-06
-6.87294e-07
1.30541e-06
2.03587e-07
1.31355e-06
8.44693e-07
1.32595e-06
8.51835e-07
1.3267e-06
-5.76286e-07
1.30924e-06
-1.23158e-06
1.28637e-06
-9.17467e-07
1.27429e-06
-1.68966e-06
1.29686e-06
-1.11144e-07
1.31844e-06
-5.69323e-07
1.32284e-06
2.93871e-07
1.33875e-06
-5.48082e-08
1.34542e-06
5.44626e-07
1.3525e-06
3.09672e-07
1.35058e-06
5.62699e-07
1.35085e-06
3.42993e-07
1.34859e-06
4.21357e-07
1.34544e-06
2.6215e-07
1.34372e-06
2.84955e-07
2.03615e-07
1.33984e-06
1.35327e-06
-6.80541e-07
1.35345e-06
2.03406e-07
1.36376e-06
8.3438e-07
1.37739e-06
8.38211e-07
1.37999e-06
-5.78891e-07
1.36272e-06
-1.21431e-06
1.33534e-06
-8.90087e-07
1.31918e-06
-1.6735e-06
1.33965e-06
-1.31616e-07
1.36165e-06
-5.91329e-07
1.36867e-06
2.86851e-07
1.38475e-06
-7.08798e-08
1.39382e-06
5.35554e-07
1.4019e-06
3.01592e-07
1.40193e-06
5.6267e-07
1.40257e-06
3.42349e-07
1.4016e-06
4.22328e-07
1.39795e-06
2.65798e-07
1.39662e-06
2.86293e-07
2.07793e-07
1.39244e-06
1.40358e-06
-6.72467e-07
1.40403e-06
2.02956e-07
1.41567e-06
8.22743e-07
1.42955e-06
8.24326e-07
1.43317e-06
-5.82512e-07
1.41728e-06
-1.19841e-06
1.38711e-06
-8.59925e-07
1.36779e-06
-1.65417e-06
1.38482e-06
-1.48644e-07
1.40576e-06
-6.12275e-07
1.41524e-06
2.77374e-07
1.43149e-06
-8.71303e-08
1.44339e-06
5.23653e-07
1.45274e-06
2.92237e-07
1.45527e-06
5.60146e-07
1.45608e-06
3.41537e-07
1.45649e-06
4.21918e-07
1.45217e-06
2.70117e-07
1.45099e-06
2.87472e-07
2.12414e-07
1.44637e-06
1.45623e-06
-6.63448e-07
1.457e-06
2.02185e-07
1.46922e-06
8.10519e-07
1.48281e-06
8.10736e-07
1.48658e-06
-5.86281e-07
1.47275e-06
-1.18458e-06
1.44178e-06
-8.28953e-07
1.42049e-06
-1.63288e-06
1.43289e-06
-1.61052e-07
1.45139e-06
-6.30771e-07
1.46251e-06
2.66253e-07
1.47851e-06
-1.03129e-07
1.49362e-06
5.08538e-07
1.50438e-06
2.81486e-07
1.50992e-06
5.54604e-07
1.5107e-06
3.40753e-07
1.51244e-06
4.20183e-07
1.50731e-06
2.75241e-07
1.50606e-06
2.88729e-07
2.17565e-07
1.5009e-06
1.51126e-06
-6.53836e-07
1.51228e-06
2.01164e-07
1.5246e-06
7.98201e-07
1.53773e-06
7.97604e-07
1.54081e-06
-5.89356e-07
1.52919e-06
-1.17296e-06
1.49931e-06
-7.99081e-07
1.47709e-06
-1.61066e-06
1.4843e-06
-1.68255e-07
1.49925e-06
-6.45724e-07
1.51077e-06
2.54738e-07
1.52552e-06
-1.17879e-07
1.54366e-06
4.90396e-07
1.5556e-06
2.69542e-07
1.56448e-06
5.4573e-07
1.56512e-06
3.40113e-07
1.5681e-06
4.17202e-07
1.56223e-06
2.81104e-07
1.56082e-06
2.90145e-07
2.23153e-07
1.55523e-06
1.56869e-06
-6.43909e-07
1.5699e-06
1.99945e-07
1.58213e-06
7.85976e-07
1.5949e-06
7.84835e-07
1.59655e-06
-5.91005e-07
1.58684e-06
-1.16325e-06
1.55954e-06
-7.71788e-07
1.53696e-06
-1.58807e-06
1.53923e-06
-1.70528e-07
1.55002e-06
-6.5651e-07
1.56065e-06
2.44105e-07
1.57276e-06
-1.29993e-07
1.59295e-06
4.70216e-07
1.60541e-06
2.57077e-07
1.61757e-06
5.33574e-07
1.61805e-06
3.39625e-07
1.62229e-06
4.12966e-07
1.61605e-06
2.87346e-07
1.61463e-06
2.91564e-07
2.28855e-07
1.60893e-06
1.62849e-06
-6.33856e-07
1.62994e-06
1.98498e-07
1.64216e-06
7.73759e-07
1.65475e-06
7.72243e-07
1.65441e-06
-5.90668e-07
1.64613e-06
-1.15497e-06
1.62218e-06
-7.47844e-07
1.59921e-06
-1.5651e-06
1.59765e-06
-1.68969e-07
1.60413e-06
-6.62982e-07
1.61305e-06
2.35178e-07
1.62117e-06
-1.38114e-07
1.64183e-06
4.49557e-07
1.65373e-06
2.45184e-07
1.6687e-06
5.18598e-07
1.66912e-06
3.39206e-07
1.6747e-06
4.07383e-07
1.66868e-06
2.93366e-07
1.66763e-06
2.92622e-07
2.34184e-07
1.6623e-06
1.69067e-06
-6.23782e-07
1.69245e-06
1.96724e-07
1.7049e-06
7.61309e-07
1.71748e-06
7.59658e-07
1.71481e-06
-5.87994e-07
1.70752e-06
-1.14768e-06
1.68692e-06
-7.27246e-07
1.66318e-06
-1.54136e-06
1.65935e-06
-1.65132e-07
1.6617e-06
-6.65337e-07
1.66884e-06
2.28039e-07
1.67211e-06
-1.41384e-07
1.69172e-06
4.29941e-07
1.7018e-06
2.35113e-07
1.71883e-06
5.01568e-07
1.71928e-06
3.38754e-07
1.72629e-06
4.0037e-07
1.72114e-06
2.98513e-07
1.72086e-06
2.92907e-07
2.38644e-07
1.7164e-06
1.75526e-06
-6.13721e-07
1.75746e-06
1.94523e-07
1.7704e-06
7.48367e-07
1.78311e-06
7.46948e-07
1.77795e-06
-5.82835e-07
1.77142e-06
-1.14115e-06
1.75358e-06
-7.09403e-07
1.72862e-06
-1.5164e-06
1.72402e-06
-1.6054e-07
1.72261e-06
-6.63924e-07
1.72857e-06
2.22082e-07
1.72691e-06
-1.39722e-07
1.74463e-06
4.12215e-07
1.75185e-06
2.27897e-07
1.77008e-06
4.83338e-07
1.77061e-06
3.38228e-07
1.77898e-06
3.91991e-07
1.7752e-06
3.02303e-07
1.77596e-06
2.92143e-07
2.4191e-07
1.77269e-06
1.82227e-06
-6.03654e-07
1.82494e-06
1.91848e-07
1.83857e-06
7.34743e-07
1.85152e-06
7.33995e-07
1.84389e-06
-5.75203e-07
1.83806e-06
-1.13533e-06
1.82211e-06
-6.93453e-07
1.79567e-06
-1.48995e-06
1.79146e-06
-1.56331e-07
1.78664e-06
-6.59106e-07
1.79239e-06
2.16333e-07
1.78643e-06
-1.33754e-07
1.80235e-06
3.96291e-07
1.80618e-06
2.24063e-07
1.8249e-06
4.6462e-07
1.82547e-06
3.37662e-07
1.83493e-06
3.8253e-07
1.83268e-06
3.04546e-07
1.83452e-06
2.90303e-07
2.43905e-07
1.83253e-06
1.89178e-06
-5.9353e-07
1.89489e-06
1.88735e-07
1.90929e-06
7.20345e-07
1.92263e-06
7.20653e-07
1.91265e-06
-5.65221e-07
1.90752e-06
-1.1302e-06
1.89263e-06
-6.78561e-07
1.86472e-06
-1.46205e-06
1.86156e-06
-1.53174e-07
1.85363e-06
-6.51169e-07
1.86013e-06
2.09828e-07
1.85085e-06
-1.24467e-07
1.86577e-06
3.81367e-07
1.86626e-06
2.23577e-07
1.88502e-06
4.45858e-07
1.88554e-06
3.37137e-07
1.89564e-06
3.72436e-07
1.89484e-06
3.0534e-07
1.89756e-06
2.87586e-07
2.44772e-07
1.89669e-06
1.96386e-06
-5.83282e-07
1.9673e-06
1.8529e-07
1.98248e-06
7.05169e-07
1.9964e-06
7.06728e-07
1.98426e-06
-5.5308e-07
1.97977e-06
-1.12571e-06
1.96531e-06
-6.64109e-07
1.93613e-06
-1.43286e-06
1.93435e-06
-1.51401e-07
1.92349e-06
-6.40303e-07
1.93147e-06
2.01845e-07
1.91981e-06
-1.12806e-07
1.93477e-06
3.66408e-07
1.93236e-06
2.25984e-07
1.95094e-06
4.27281e-07
1.95139e-06
3.36684e-07
1.96163e-06
3.62199e-07
1.96201e-06
3.04954e-07
1.9653e-06
2.84295e-07
2.44759e-07
1.96532e-06
2.03861e-06
-5.72846e-07
2.04224e-06
1.81662e-07
2.05813e-06
6.89285e-07
2.07288e-06
6.91977e-07
2.05881e-06
-5.39013e-07
2.05477e-06
-1.12166e-06
2.04041e-06
-6.49753e-07
2.01015e-06
-1.4026e-06
2.00993e-06
-1.51177e-07
1.99623e-06
-6.26608e-07
2.00613e-06
1.91947e-07
1.99276e-06
-9.94327e-08
2.00856e-06
3.50606e-07
2.00394e-06
2.30603e-07
2.02218e-06
4.09044e-07
2.02263e-06
3.36232e-07
2.03259e-06
3.52241e-07
2.03385e-06
3.03694e-07
2.03743e-06
2.80714e-07
2.44104e-07
2.03808e-06
2.11617e-06
-5.62179e-07
2.11983e-06
1.78008e-07
2.13629e-06
6.72822e-07
2.15213e-06
6.76136e-07
2.13639e-06
-5.23277e-07
2.1325e-06
-1.11777e-06
2.11814e-06
-6.35399e-07
2.08697e-06
-1.37143e-06
2.08842e-06
-1.52629e-07
2.07192e-06
-6.10108e-07
2.08394e-06
1.7993e-07
2.06922e-06
-8.47129e-08
2.08624e-06
3.3358e-07
2.08014e-06
2.36708e-07
2.09787e-06
3.91315e-07
2.09847e-06
3.35634e-07
2.10784e-06
3.42868e-07
2.10973e-06
3.01803e-07
2.11341e-06
2.7703e-07
2.42988e-07
2.11453e-06
2.19667e-06
-5.51262e-07
2.20022e-06
1.74456e-07
2.21706e-06
6.55978e-07
2.23424e-06
6.58957e-07
2.21712e-06
-5.06154e-07
2.21298e-06
-1.11363e-06
2.19872e-06
-6.21142e-07
2.1667e-06
-1.3394e-06
2.16996e-06
-1.55887e-07
2.15065e-06
-5.90801e-07
2.16482e-06
1.65761e-07
2.14893e-06
-6.88222e-08
2.16714e-06
3.15367e-07
2.16024e-06
2.43606e-07
2.17723e-06
3.74324e-07
2.17817e-06
3.34698e-07
2.18676e-06
3.34282e-07
2.18909e-06
2.99469e-07
2.19281e-06
2.73315e-07
2.41531e-07
2.19426e-06
2.28024e-06
-5.40106e-07
2.28361e-06
1.71084e-07
2.30058e-06
6.39011e-07
2.31928e-06
6.40248e-07
2.30109e-06
-4.8796e-07
2.29627e-06
-1.10881e-06
2.28233e-06
-6.07204e-07
2.24946e-06
-1.30654e-06
2.25464e-06
-1.61067e-07
2.23259e-06
-5.68749e-07
2.24878e-06
1.49569e-07
2.23184e-06
-5.18778e-08
2.2509e-06
2.96302e-07
2.24384e-06
2.50672e-07
2.25981e-06
3.58348e-07
2.26125e-06
3.33257e-07
2.26897e-06
3.26569e-07
2.27157e-06
2.96863e-07
2.27536e-06
2.69523e-07
2.39811e-07
2.27708e-06
2.36702e-06
-5.2874e-07
2.37021e-06
1.67896e-07
2.38699e-06
6.2223e-07
2.40732e-06
6.19913e-07
2.38841e-06
-4.69049e-07
2.38247e-06
-1.10287e-06
2.36915e-06
-5.93884e-07
2.33537e-06
-1.27275e-06
2.34254e-06
-1.68239e-07
2.31792e-06
-5.44127e-07
2.33587e-06
1.31613e-07
2.31802e-06
-3.4022e-08
2.33742e-06
2.76896e-07
2.33076e-06
2.5734e-07
2.34543e-06
3.4367e-07
2.34749e-06
3.31203e-07
2.3542e-06
3.1986e-07
2.35684e-06
2.94219e-07
2.36102e-06
2.6534e-07
2.37864e-07
2.36297e-06
2.45714e-06
-5.17198e-07
2.46022e-06
1.64813e-07
2.47649e-06
6.05957e-07
2.49842e-06
5.97982e-07
2.47919e-06
-4.49814e-07
2.47172e-06
-1.0954e-06
2.45935e-06
-5.81509e-07
2.42453e-06
-1.23793e-06
2.43364e-06
-1.77351e-07
2.40679e-06
-5.17275e-07
2.42613e-06
1.12275e-07
2.40762e-06
-1.55128e-08
2.42675e-06
2.57757e-07
2.42096e-06
2.63132e-07
2.4341e-06
3.30536e-07
2.4369e-06
3.28403e-07
2.44197e-06
3.14786e-07
2.44464e-06
2.9155e-07
2.44981e-06
2.60172e-07
2.35697e-07
2.45197e-06
2.55071e-06
-5.05504e-07
2.55383e-06
1.61686e-07
2.56931e-06
5.90478e-07
2.59267e-06
5.74623e-07
2.57353e-06
-4.3067e-07
2.56417e-06
-1.08605e-06
2.55308e-06
-5.70414e-07
2.51706e-06
-1.20191e-06
2.52797e-06
-1.88263e-07
2.49932e-06
-4.88627e-07
2.51959e-06
9.20007e-08
2.50077e-06
3.31068e-09
2.51907e-06
2.39456e-07
2.5145e-06
2.67706e-07
2.52591e-06
3.19121e-07
2.52955e-06
3.24767e-07
2.53843e-06
3.0591e-07
2.54291e-06
2.87061e-07
2.54189e-06
2.61199e-07
2.33349e-07
2.54424e-06
2.64783e-06
-4.93658e-07
2.65121e-06
1.58309e-07
2.66568e-06
5.76007e-07
2.69018e-06
5.50128e-07
2.67153e-06
-4.12019e-07
2.66e-06
-1.07452e-06
2.65048e-06
-5.60892e-07
2.61311e-06
-1.16454e-06
2.62558e-06
-2.00736e-07
2.59563e-06
-4.58673e-07
2.61634e-06
7.12898e-08
2.59766e-06
2.19876e-08
2.61456e-06
2.22557e-07
2.61142e-06
2.70846e-07
2.62162e-06
3.08926e-07
2.62397e-06
3.2241e-07
2.62782e-06
3.02064e-07
2.63095e-06
2.83933e-07
2.63738e-06
2.54764e-07
2.30749e-07
2.63998e-06
2.74863e-06
-4.8164e-07
2.75249e-06
1.54457e-07
2.76585e-06
5.62641e-07
2.7911e-06
5.24876e-07
2.7733e-06
-3.94215e-07
2.75941e-06
-1.06063e-06
2.75164e-06
-5.53129e-07
2.71288e-06
-1.12578e-06
2.72652e-06
-2.14374e-07
2.69589e-06
-4.2805e-07
2.71634e-06
5.08389e-08
2.69858e-06
3.97562e-08
2.71336e-06
2.07772e-07
2.71216e-06
2.72044e-07
2.7209e-06
3.00188e-07
2.72263e-06
3.20685e-07
2.72545e-06
2.9924e-07
2.72843e-06
2.80948e-07
2.73672e-06
2.46475e-07
2.28152e-07
2.73932e-06
2.85323e-06
-4.69411e-07
2.85776e-06
1.49922e-07
2.87005e-06
5.50352e-07
2.89564e-06
4.99291e-07
2.87897e-06
-3.77543e-07
2.86254e-06
-1.0442e-06
2.85661e-06
-5.47193e-07
2.81652e-06
-1.08568e-06
2.83087e-06
-2.2873e-07
2.80021e-06
-3.97388e-07
2.81977e-06
3.12752e-08
2.8037e-06
5.58251e-08
2.81566e-06
1.95812e-07
2.8168e-06
2.70906e-07
2.82519e-06
2.918e-07
2.83423e-06
3.11646e-07
2.84219e-06
2.91284e-07
2.84627e-06
2.76868e-07
2.84021e-06
2.52529e-07
2.25852e-07
2.84251e-06
2.96176e-06
-4.56922e-07
2.96714e-06
1.4454e-07
2.97849e-06
5.39001e-07
3.004e-06
4.73777e-07
2.98867e-06
-3.62208e-07
2.96961e-06
-1.02514e-06
2.96544e-06
-5.43028e-07
2.92416e-06
-1.04439e-06
2.93884e-06
-2.43413e-07
2.90863e-06
-3.67179e-07
2.92688e-06
1.3023e-08
2.91304e-06
6.96646e-08
2.92216e-06
1.86694e-07
2.92537e-06
2.67701e-07
2.92862e-06
2.8855e-07
2.93186e-06
3.08404e-07
2.93285e-06
2.90294e-07
2.93572e-06
2.73996e-07
2.94746e-06
2.4079e-07
2.23298e-07
2.95001e-06
3.07437e-06
-4.44129e-07
3.08069e-06
1.38215e-07
3.09133e-06
5.28363e-07
3.11641e-06
4.48694e-07
3.10257e-06
-3.48366e-07
3.08082e-06
-1.0034e-06
3.07828e-06
-5.40479e-07
3.03599e-06
-1.00211e-06
3.0506e-06
-2.58021e-07
3.02124e-06
-3.37827e-07
3.038e-06
-3.7367e-09
3.02636e-06
8.13114e-08
3.03352e-06
1.79528e-07
3.03822e-06
2.63004e-07
3.04592e-06
2.80847e-07
3.05776e-06
2.96569e-07
3.06527e-06
2.82781e-07
3.06922e-06
2.70049e-07
3.0592e-06
2.50802e-07
2.20798e-07
3.0617e-06
3.19124e-06
-4.31004e-07
3.19851e-06
1.3094e-07
3.20872e-06
5.1815e-07
3.23306e-06
4.24364e-07
3.22087e-06
-3.3618e-07
3.19641e-06
-9.7894e-07
3.19527e-06
-5.39341e-07
3.15215e-06
-9.58988e-07
3.16641e-06
-2.72281e-07
3.13814e-06
-3.09558e-07
3.15355e-06
-1.91426e-08
3.14289e-06
9.19679e-08
3.15096e-06
1.71464e-07
3.15492e-06
2.59046e-07
3.16247e-06
2.73296e-07
3.15774e-06
3.01299e-07
3.15927e-06
2.8125e-07
3.16371e-06
2.65611e-07
3.17462e-06
2.39891e-07
2.17206e-07
3.17821e-06
3.31255e-06
-4.17541e-07
3.32072e-06
1.22768e-07
3.33077e-06
5.08099e-07
3.35415e-06
4.00983e-07
3.34367e-06
-3.25701e-07
3.3167e-06
-9.51967e-07
3.31644e-06
-5.3908e-07
3.27313e-06
-9.15682e-07
3.28618e-06
-2.85324e-07
3.26004e-06
-2.83422e-07
3.27302e-06
-3.21257e-08
3.26507e-06
9.99212e-08
3.27144e-06
1.65095e-07
3.26959e-06
2.60895e-07
3.27212e-06
2.7077e-07
3.27662e-06
2.96792e-07
3.27899e-06
2.78879e-07
3.28307e-06
2.61531e-07
3.29545e-06
2.27515e-07
2.13463e-07
3.29919e-06
3.4385e-06
-4.0376e-07
3.44745e-06
1.13822e-07
3.45761e-06
4.97939e-07
3.47983e-06
3.78762e-07
3.47117e-06
-3.17043e-07
3.44188e-06
-9.22679e-07
3.44198e-06
-5.39178e-07
3.3991e-06
-8.72805e-07
3.41014e-06
-2.96364e-07
3.38735e-06
-2.60624e-07
3.39625e-06
-4.10275e-08
3.39268e-06
1.03489e-07
3.39269e-06
1.65084e-07
3.40745e-06
2.46134e-07
3.41418e-06
2.64037e-07
3.42593e-06
2.85046e-07
3.43416e-06
2.70646e-07
3.43736e-06
2.58338e-07
3.42196e-06
2.42913e-07
2.10965e-07
3.42446e-06
3.56929e-06
-3.89704e-07
3.57884e-06
1.04274e-07
3.58942e-06
4.87356e-07
3.61011e-06
3.58071e-07
3.60367e-06
-3.10596e-07
3.57191e-06
-8.9092e-07
3.57244e-06
-5.39715e-07
3.52959e-06
-8.29955e-07
3.53958e-06
-3.06348e-07
3.51757e-06
-2.38616e-07
3.52702e-06
-5.04764e-08
3.5215e-06
1.09009e-07
3.52622e-06
1.60367e-07
3.52545e-06
2.46895e-07
3.52735e-06
2.62141e-07
3.52968e-06
2.8272e-07
3.5325e-06
2.67827e-07
3.53812e-06
2.52709e-07
3.55127e-06
2.29766e-07
2.06953e-07
3.55528e-06
3.70509e-06
-3.75409e-07
3.71511e-06
9.42542e-08
3.72626e-06
4.76211e-07
3.74533e-06
3.38994e-07
3.74084e-06
-3.06107e-07
3.70737e-06
-8.57444e-07
3.70745e-06
-5.39796e-07
3.66591e-06
-7.8842e-07
3.67316e-06
-3.13601e-07
3.65402e-06
-2.19473e-07
3.66141e-06
-5.78603e-08
3.65745e-06
1.12962e-07
3.66362e-06
1.54196e-07
3.66003e-06
2.50488e-07
3.66191e-06
2.60261e-07
3.66417e-06
2.80459e-07
3.66644e-06
2.65557e-07
3.67174e-06
2.47408e-07
3.68681e-06
2.14693e-07
2.03076e-07
3.69069e-06
3.84611e-06
-3.60934e-07
3.85643e-06
8.39337e-08
3.86835e-06
4.64292e-07
3.88571e-06
3.21641e-07
3.88286e-06
-3.03262e-07
3.84842e-06
-8.22999e-07
3.84714e-06
-5.38517e-07
3.80847e-06
-7.49754e-07
3.8108e-06
-3.15924e-07
3.79724e-06
-2.05916e-07
3.79687e-06
-5.74916e-08
3.79976e-06
1.10073e-07
3.79483e-06
1.59124e-07
3.81866e-06
2.26654e-07
3.82691e-06
2.52016e-07
3.8388e-06
2.68571e-07
3.84686e-06
2.57497e-07
3.8485e-06
2.45764e-07
3.82905e-06
2.34144e-07
2.01559e-07
3.83057e-06
3.99257e-06
-3.46346e-07
4.00299e-06
7.35119e-08
4.01602e-06
4.51254e-07
4.03122e-06
3.06444e-07
4.03037e-06
-3.02414e-07
3.99455e-06
-7.87178e-07
3.99305e-06
-5.37012e-07
3.95428e-06
-7.10983e-07
3.95754e-06
-3.19184e-07
3.9403e-06
-1.88682e-07
3.94763e-06
-6.48202e-08
3.9493e-06
1.084e-07
3.95371e-06
1.5472e-07
3.94461e-06
2.35749e-07
3.94618e-06
2.50454e-07
3.94848e-06
2.66269e-07
3.95094e-06
2.55037e-07
3.95726e-06
2.39443e-07
3.97269e-06
2.18719e-07
1.97201e-07
3.97704e-06
4.1446e-06
-3.31663e-07
4.15506e-06
6.3049e-08
4.16915e-06
4.37163e-07
4.18262e-06
2.92974e-07
4.18276e-06
-3.02552e-07
4.1469e-06
-7.51317e-07
4.14368e-06
-5.33792e-07
4.10716e-06
-6.74463e-07
4.1082e-06
-3.20217e-07
4.0913e-06
-1.71788e-07
4.09863e-06
-7.21477e-08
4.08874e-06
1.18291e-07
4.08844e-06
1.55013e-07
4.0934e-06
2.30797e-07
4.09719e-06
2.4666e-07
4.099e-06
2.64455e-07
4.10112e-06
2.52916e-07
4.10675e-06
2.33819e-07
4.124e-06
2.01466e-07
1.92905e-07
4.12829e-06
4.30247e-06
-3.16943e-07
4.31286e-06
5.26592e-08
4.32797e-06
4.22048e-07
4.34004e-06
2.8091e-07
4.34028e-06
-3.02798e-07
4.30578e-06
-7.16817e-07
4.29845e-06
-5.26465e-07
4.26808e-06
-6.4409e-07
4.26153e-06
-3.13661e-07
4.25188e-06
-1.62145e-07
4.24694e-06
-6.72067e-08
4.26329e-06
1.01947e-07
4.2657e-06
1.52596e-07
4.27916e-06
2.17344e-07
4.28767e-06
2.38151e-07
4.30016e-06
2.5196e-07
4.30837e-06
2.44703e-07
4.30738e-06
2.34812e-07
4.28384e-06
2.25012e-07
1.92565e-07
4.28418e-06
4.46641e-06
-3.02266e-07
4.4765e-06
4.25712e-08
4.49296e-06
4.05581e-07
4.50313e-06
2.70748e-07
4.50423e-06
-3.03899e-07
4.46953e-06
-6.8212e-07
4.46227e-06
-5.19207e-07
4.43004e-06
-6.11857e-07
4.42687e-06
-3.10489e-07
4.41099e-06
-1.46266e-07
4.41111e-06
-6.73266e-08
4.40737e-06
1.05686e-07
4.40792e-06
1.52041e-07
4.41162e-06
2.13643e-07
4.41688e-06
2.32895e-07
4.41682e-06
2.52022e-07
4.41931e-06
2.42205e-07
4.4257e-06
2.28426e-07
4.44321e-06
2.07504e-07
1.87933e-07
4.44784e-06
4.63656e-06
-2.87623e-07
4.6464e-06
3.27308e-08
4.6638e-06
3.88184e-07
4.6729e-06
2.61647e-07
4.67352e-06
-3.04517e-07
4.64022e-06
-6.48817e-07
4.63121e-06
-5.10204e-07
4.59935e-06
-5.79994e-07
4.59682e-06
-3.07957e-07
4.57865e-06
-1.28093e-07
4.57828e-06
-6.69619e-08
4.57593e-06
1.08036e-07
4.57666e-06
1.51317e-07
4.58006e-06
2.10241e-07
4.58819e-06
2.24761e-07
4.58507e-06
2.5514e-07
4.58688e-06
2.40396e-07
4.59404e-06
2.21273e-07
4.61224e-06
1.89297e-07
1.83402e-07
4.61677e-06
4.81323e-06
-2.73069e-07
4.82274e-06
2.32231e-08
4.84093e-06
3.69999e-07
4.8495e-06
2.5307e-07
4.84822e-06
-3.03229e-07
4.81861e-06
-6.19207e-07
4.80447e-06
-4.96071e-07
4.77796e-06
-5.5348e-07
4.76851e-06
-2.98512e-07
4.75759e-06
-1.17166e-07
4.74789e-06
-5.72642e-08
4.75322e-06
1.02701e-07
4.74955e-06
1.54994e-07
4.75622e-06
2.03569e-07
4.76473e-06
2.16249e-07
4.79599e-06
2.23885e-07
4.81727e-06
2.19119e-07
4.81758e-06
2.20958e-07
4.7925e-06
2.14376e-07
1.85319e-07
4.79059e-06
4.99671e-06
-2.58704e-07
5.00564e-06
1.42894e-08
5.02487e-06
3.50772e-07
5.03252e-06
2.45416e-07
5.03027e-06
-3.00982e-07
5.0019e-06
-5.90838e-07
4.98792e-06
-4.82088e-07
4.95898e-06
-5.24534e-07
4.95161e-06
-2.91146e-07
4.9379e-06
-1.03453e-07
4.93085e-06
-5.0221e-08
4.93332e-06
1.00234e-07
4.93302e-06
1.55289e-07
4.93875e-06
1.97845e-07
4.94427e-06
2.10729e-07
4.94446e-06
2.23698e-07
4.94384e-06
2.19733e-07
4.95128e-06
2.13517e-07
4.96955e-06
1.96108e-07
1.81255e-07
4.97361e-06
5.18711e-06
-2.44497e-07
5.19565e-06
5.74573e-09
5.21532e-06
3.31104e-07
5.22311e-06
2.37627e-07
5.21828e-06
-2.96153e-07
5.1928e-06
-5.65358e-07
5.17749e-06
-4.6678e-07
5.14782e-06
-4.94863e-07
5.14048e-06
-2.83805e-07
5.1261e-06
-8.90805e-08
5.12053e-06
-4.46484e-08
5.1211e-06
9.96641e-08
5.1239e-06
1.52494e-07
5.12606e-06
1.95677e-07
5.13173e-06
2.05062e-07
5.13408e-06
2.21348e-07
5.14026e-06
2.13554e-07
5.14852e-06
2.05263e-07
5.15647e-06
1.88158e-07
1.74627e-07
5.16309e-06
5.38481e-06
-2.3053e-07
5.39283e-06
-2.27008e-09
5.41289e-06
3.11043e-07
5.4212e-06
2.2931e-07
5.41345e-06
-2.88401e-07
5.39077e-06
-5.4268e-07
5.37335e-06
-4.49356e-07
5.34514e-06
-4.66655e-07
5.33479e-06
-2.73453e-07
5.32364e-06
-7.79275e-08
5.31585e-06
-3.68574e-08
5.31767e-06
9.78394e-08
5.31997e-06
1.50193e-07
5.32236e-06
1.93291e-07
5.32743e-06
1.99994e-07
5.33233e-06
2.16442e-07
5.33831e-06
2.07575e-07
5.34602e-06
1.97556e-07
5.35187e-06
1.82303e-07
1.67107e-07
5.35939e-06
5.59007e-06
-2.16864e-07
5.59747e-06
-9.67302e-09
5.6179e-06
2.90613e-07
5.62694e-06
2.20276e-07
5.61672e-06
-2.78185e-07
5.59491e-06
-5.20864e-07
5.57709e-06
-4.31543e-07
5.54932e-06
-4.38878e-07
5.53766e-06
-2.61795e-07
5.52818e-06
-6.8445e-08
5.51924e-06
-2.7925e-08
5.52174e-06
9.53436e-08
5.52367e-06
1.4826e-07
5.52674e-06
1.90222e-07
5.53112e-06
1.95614e-07
5.538e-06
2.09564e-07
5.54362e-06
2.0196e-07
5.5495e-06
1.91673e-07
5.55551e-06
1.7629e-07
1.59562e-07
5.56306e-06
5.80314e-06
-2.03521e-07
5.80999e-06
-1.65257e-08
5.83047e-06
2.70134e-07
5.84094e-06
2.09807e-07
5.82805e-06
-2.65298e-07
5.80662e-06
-4.99435e-07
5.78782e-06
-4.12742e-07
5.76148e-06
-4.12533e-07
5.74872e-06
-2.49037e-07
5.74034e-06
-6.00707e-08
5.73103e-06
-1.86107e-08
5.73346e-06
9.29131e-08
5.7353e-06
1.46418e-07
5.73893e-06
1.86594e-07
5.74316e-06
1.91384e-07
5.75115e-06
2.01574e-07
5.75713e-06
1.95976e-07
5.76468e-06
1.84131e-07
5.7676e-06
1.73365e-07
1.52832e-07
5.77433e-06
6.02435e-06
-1.90577e-07
6.03051e-06
-2.2679e-08
6.05113e-06
2.49512e-07
6.0626e-06
1.98336e-07
6.04808e-06
-2.50781e-07
6.02526e-06
-4.76608e-07
6.00688e-06
-3.94368e-07
5.98125e-06
-3.86896e-07
5.96825e-06
-2.36045e-07
5.96051e-06
-5.23294e-08
5.95136e-06
-9.45679e-09
5.95294e-06
9.13279e-08
5.95534e-06
1.44022e-07
5.95959e-06
1.82345e-07
5.96383e-06
1.87142e-07
5.97108e-06
1.94321e-07
5.97474e-06
1.9232e-07
5.97925e-06
1.7962e-07
5.98774e-06
1.64875e-07
1.47099e-07
5.99347e-06
6.25399e-06
-1.78068e-07
6.25944e-06
-2.81275e-08
6.28008e-06
2.28875e-07
6.29226e-06
1.86149e-07
6.27669e-06
-2.35204e-07
6.25302e-06
-4.52938e-07
6.23437e-06
-3.75718e-07
6.20946e-06
-3.61989e-07
6.19631e-06
-2.22894e-07
6.18909e-06
-4.51053e-08
6.18033e-06
-6.9971e-10
6.18121e-06
9.04497e-08
6.18405e-06
1.41183e-07
6.18856e-06
1.77831e-07
6.19242e-06
1.83281e-07
6.19945e-06
1.87292e-07
6.20562e-06
1.86154e-07
6.21397e-06
1.71268e-07
6.2163e-06
1.62542e-07
1.42193e-07
6.22121e-06
6.49239e-06
-1.66054e-07
6.497e-06
-3.27375e-08
6.51771e-06
2.0817e-07
6.53025e-06
1.73599e-07
6.51433e-06
-2.19276e-07
6.4899e-06
-4.28511e-07
6.47092e-06
-3.56743e-07
6.44633e-06
-3.374e-07
6.43326e-06
-2.09821e-07
6.42653e-06
-3.83762e-08
6.41828e-06
7.55652e-09
6.41821e-06
9.05139e-08
6.42132e-06
1.38077e-07
6.42631e-06
1.7284e-07
6.4301e-06
1.79489e-07
6.43664e-06
1.8075e-07
6.4413e-06
1.81498e-07
6.44569e-06
1.66879e-07
6.4533e-06
1.54924e-07
1.37354e-07
6.45814e-06
6.73987e-06
-1.54582e-07
6.74353e-06
-3.63959e-08
6.76435e-06
1.87341e-07
6.77701e-06
1.60945e-07
6.76123e-06
-2.03495e-07
6.73615e-06
-4.03428e-07
6.71694e-06
-3.37535e-07
6.69256e-06
-3.13023e-07
6.67939e-06
-1.96656e-07
6.67277e-06
-3.1757e-08
6.66527e-06
1.50576e-08
6.66484e-06
9.09512e-08
6.66793e-06
1.34982e-07
6.67316e-06
1.67611e-07
6.67653e-06
1.76115e-07
6.68299e-06
1.74292e-07
6.68979e-06
1.747e-07
6.69692e-06
1.59749e-07
6.6995e-06
1.52348e-07
1.3276e-07
6.70409e-06
6.99678e-06
-1.43709e-07
6.99931e-06
-3.89263e-08
7.02033e-06
1.66314e-07
7.03296e-06
1.48318e-07
7.01776e-06
-1.88293e-07
6.99221e-06
-3.7788e-07
6.97262e-06
-3.17944e-07
6.94826e-06
-2.88666e-07
6.93491e-06
-1.83306e-07
6.92864e-06
-2.54869e-08
6.92197e-06
2.1731e-08
6.92117e-06
9.17546e-08
6.92366e-06
1.32486e-07
6.92914e-06
1.62134e-07
6.93288e-06
1.72376e-07
6.93912e-06
1.68046e-07
6.94419e-06
1.69632e-07
6.94803e-06
1.55916e-07
6.95509e-06
1.45286e-07
1.28454e-07
6.9594e-06
7.26345e-06
-1.33468e-07
7.26471e-06
-4.01916e-08
7.28602e-06
1.45012e-07
7.29859e-06
1.35746e-07
7.28486e-06
-1.74569e-07
7.25805e-06
-3.51066e-07
7.23835e-06
-2.9824e-07
7.21414e-06
-2.64461e-07
7.20041e-06
-1.69577e-07
7.19424e-06
-1.93133e-08
7.18822e-06
2.77482e-08
7.18746e-06
9.25166e-08
7.18937e-06
1.30572e-07
7.19516e-06
1.56349e-07
7.19914e-06
1.68393e-07
7.2048e-06
1.62389e-07
7.21111e-06
1.63326e-07
7.21751e-06
1.49513e-07
7.22061e-06
1.42187e-07
1.24711e-07
7.22435e-06
7.54026e-06
-1.23897e-07
7.54028e-06
-4.02092e-08
7.56169e-06
1.236e-07
7.5743e-06
1.23131e-07
7.56124e-06
-1.61504e-07
7.53366e-06
-3.23483e-07
7.51456e-06
-2.79144e-07
7.49029e-06
-2.40187e-07
7.47606e-06
-1.55356e-07
7.47021e-06
-1.34537e-08
7.46465e-06
3.33065e-08
7.46414e-06
9.30197e-08
7.46549e-06
1.29221e-07
7.47122e-06
1.50622e-07
7.47561e-06
1.64e-07
7.4807e-06
1.57301e-07
7.48567e-06
1.58361e-07
7.48958e-06
1.45599e-07
7.49619e-06
1.35582e-07
1.21109e-07
7.49979e-06
7.82752e-06
-1.1496e-07
7.82684e-06
-3.95348e-08
7.84722e-06
1.03222e-07
7.86133e-06
1.09022e-07
7.84555e-06
-1.45724e-07
7.81862e-06
-2.96549e-07
7.80184e-06
-2.62368e-07
7.77717e-06
-2.15518e-07
7.76243e-06
-1.40615e-07
7.75671e-06
-7.73546e-09
7.75148e-06
3.854e-08
7.75155e-06
9.2952e-08
7.75253e-06
1.28244e-07
7.75778e-06
1.45368e-07
7.76243e-06
1.59351e-07
7.76706e-06
1.52671e-07
7.77326e-06
1.52158e-07
7.77915e-06
1.39715e-07
7.78245e-06
1.32273e-07
1.17637e-07
7.78593e-06
8.12563e-06
-1.06627e-07
8.12449e-06
-3.83956e-08
8.14319e-06
8.45249e-08
8.15919e-06
9.30199e-08
8.14754e-06
-1.34081e-07
8.13334e-06
-2.82343e-07
8.10251e-06
-2.31544e-07
8.07472e-06
-1.87726e-07
8.05996e-06
-1.2585e-07
8.0545e-06
-2.28065e-09
8.04942e-06
4.36167e-08
8.04983e-06
9.25469e-08
8.05062e-06
1.27451e-07
8.05521e-06
1.40777e-07
8.0602e-06
1.54362e-07
8.06471e-06
1.48168e-07
8.06992e-06
1.46939e-07
8.07354e-06
1.36097e-07
8.07944e-06
1.26379e-07
1.14149e-07
8.08292e-06
8.43516e-06
-9.90251e-08
8.43263e-06
-3.58709e-08
8.45152e-06
6.56389e-08
8.46604e-06
7.84966e-08
8.45459e-06
-1.22631e-07
8.42475e-06
-2.525e-07
8.40715e-06
-2.13941e-07
8.38423e-06
-1.64811e-07
8.36915e-06
-1.10762e-07
8.36372e-06
3.14022e-09
8.3586e-06
4.87386e-08
8.35935e-06
9.1799e-08
8.36038e-06
1.26426e-07
8.36424e-06
1.36912e-07
8.36942e-06
1.49186e-07
8.37377e-06
1.43817e-07
8.37919e-06
1.41518e-07
8.38399e-06
1.31298e-07
8.38805e-06
1.22317e-07
1.10698e-07
8.3915e-06
8.75628e-06
-9.20244e-08
8.75323e-06
-3.28167e-08
8.77019e-06
4.86769e-08
8.78186e-06