/*--------------------------------*- C++ -*----------------------------------*\
| =========                 |                                                 |
| \\      /  F ield         | OpenFOAM: The Open Source CFD Toolbox           |
|  \\    /   O peration     | Version:  v2012                                 |
|   \\  /    A nd           | Website:  www.openfoam.com                      |
|    \\/     M anipulation  |                                                 |
\*---------------------------------------------------------------------------*/
FoamFile
{
    version     2.0;
    format      ascii;
    class       volScalarField;
    location    "6";
    object      p;
}
// * * * * * * * * * * * * * * * * * * * * * * * * * * * * * * * * * * * * * //

dimensions      [0 2 -2 0 0 0 0];


internalField   nonuniform List<scalar> 
7000
(
-2.54725e-10
0.00850654
-0.00890141
-0.00310433
0.00765281
0.0060171
0.00761556
0.00892496
0.00583786
0.00609024
0.00588834
0.00701305
0.00598528
0.00801085
0.00752108
0.00849524
0.008519
0.0097337
0.0109554
0.0131611
1.13819e-05
0.0084372
-0.0088218
-0.00309381
0.00764731
0.00605681
0.00757462
0.00889549
0.00584915
0.00609325
0.00589875
0.00700541
0.00598802
0.00799599
0.00752056
0.00848632
0.0085198
0.00972605
0.0109593
0.0130344
2.02651e-05
0.00836837
-0.00875766
-0.00306889
0.00765565
0.00607811
0.00752001
0.0088528
0.0058704
0.00609468
0.00591414
0.00698715
0.00599405
0.00796397
0.00752775
0.00846523
0.00852749
0.00970686
0.0109593
0.0128371
2.67801e-05
0.0082932
-0.00869642
-0.00300442
0.00767321
0.00608095
0.00745816
0.00880532
0.00589153
0.00609333
0.00592963
0.0069611
0.00600079
0.00792516
0.00753696
0.0084424
0.00853512
0.00968424
0.0109462
0.0126335
3.20186e-05
0.00821138
-0.00863082
-0.00290059
0.00769218
0.00607103
0.00739461
0.00875293
0.00591158
0.00609004
0.00594711
0.00692768
0.00600776
0.00788106
0.0075462
0.00841944
0.00854534
0.0096591
0.0109247
0.012448
3.66663e-05
0.00812552
-0.00855588
-0.00277316
0.00770312
0.00605278
0.00733447
0.00869775
0.00593182
0.00608573
0.00596872
0.00688732
0.00601582
0.00783104
0.00755787
0.00839576
0.0085616
0.00963106
0.0108976
0.0122822
4.1443e-05
0.00803889
-0.00846854
-0.00263763
0.00769758
0.00603129
0.00728146
0.00864244
0.00595182
0.00608131
0.00599483
0.00684213
0.00602635
0.00777614
0.00757337
0.00837064
0.00858261
0.00959981
0.0108631
0.0121295
4.70719e-05
0.0079539
-0.00836677
-0.00250438
0.00767036
0.00601077
0.00723696
0.00858831
0.00597044
0.00607733
0.006025
0.00679494
0.00604046
0.00771766
0.00759202
0.00834279
0.00860474
0.00956508
0.0108182
0.011985
5.40639e-05
0.00787168
-0.00824978
-0.00237904
0.00762052
0.00599342
0.00720037
0.00853591
0.00598713
0.00607347
0.00605852
0.00674778
0.00605837
0.00765652
0.00761291
0.00831111
0.00862493
0.00952691
0.0107612
0.0118457
6.26347e-05
0.00779223
-0.00811813
-0.00226324
0.00755055
0.00597948
0.00717036
0.00848557
0.00600199
0.00606885
0.0060946
0.00670156
0.00607965
0.00759383
0.00763587
0.00827526
0.0086413
0.00948555
0.0106919
0.0117097
7.27662e-05
0.0077148
-0.00797342
-0.00215581
0.00746461
0.00596795
0.00714583
0.00843717
0.0060155
0.0060624
0.00613262
0.00665649
0.00610375
0.00753095
0.00766096
0.00823573
0.00865249
0.0094412
0.0106112
0.0115753
8.43274e-05
0.00763838
-0.00781781
-0.0020544
0.00736722
0.0059575
0.00712432
0.00838998
0.00602827
0.00605337
0.00617226
0.00661239
0.0061301
0.00746889
0.00768767
0.00819372
0.00865733
0.00939408
0.0105203
0.0114411
9.71843e-05
0.007562
-0.00765348
-0.00195662
0.00726231
0.00594695
0.00710446
0.00834293
0.00604094
0.0060415
0.00621346
0.00656875
0.00615806
0.00740803
0.00771483
0.00815081
0.00865456
0.00934463
0.0104207
0.0113057
0.000111256
0.0074849
-0.00748228
-0.00186051
0.00715295
0.00593551
0.00708515
0.00829498
0.00605402
0.00602685
0.0062562
0.00652496
0.00618698
0.00734847
0.00774091
0.00810859
0.00864305
0.0092933
0.0103138
0.0111683
0.000126519
0.00740652
-0.00730556
-0.00176462
0.00704136
0.00592277
0.00706549
0.00824544
0.00606796
0.00600926
0.00630038
0.00648054
0.00621618
0.00729045
0.00776414
0.00806842
0.00862201
0.00924013
0.0102011
0.0110285
0.000142979
0.00732645
-0.00712422
-0.00166791
0.00692911
0.00590858
0.00704495
0.00819391
0.0060831
0.00598875
0.00634579
0.00643532
0.00624488
0.00723446
0.00778272
0.00803144
0.00859106
0.00918463
0.010084
0.0108859
0.000160649
0.00724442
-0.00693879
-0.00156964
0.00681741
0.00589294
0.00702337
0.00814023
0.00609964
0.00596531
0.00639221
0.00638957
0.00627211
0.00718114
0.00779513
0.00799842
0.00855026
0.0091259
0.00996371
0.0107406
0.000179531
0.0071602
-0.00674959
-0.00146923
0.00670719
0.0058759
0.00700076
0.00808433
0.00611772
0.00593892
0.00643931
0.00634401
0.00629663
0.00713124
0.00780018
0.00796946
0.00850022
0.0090627
0.00984106
0.0105928
0.000199619
0.00707365
-0.00655683
-0.00136635
0.00659925
0.00585748
0.00697718
0.00802615
0.00613746
0.0059097
0.00648657
0.00629977
0.00631708
0.00708561
0.00779696
0.00794388
0.00844203
0.00899372
0.00971676
0.0104433
0.000220916
0.0069847
-0.00636063
-0.00126094
0.00649418
0.00583767
0.00695268
0.00796559
0.00615891
0.00587798
0.00653326
0.00625807
0.00633207
0.00704518
0.00778492
0.00792029
0.00837705
0.0089178
0.00959109
0.0102927
0.000243441
0.00689335
-0.00616102
-0.00115323
0.00639242
0.00581639
0.0069272
0.00790249
0.00618213
0.00584431
0.00657841
0.00622019
0.00634019
0.00701057
0.00776433
0.00789697
0.00830688
0.00883399
0.00946343
0.0101418
0.000267232
0.00679962
-0.00595795
-0.00104371
0.00629417
0.00579351
0.00690062
0.00783675
0.00620713
0.0058094
0.00662066
0.00618753
0.00634041
0.00698153
0.00773576
0.00787211
0.00823317
0.00874246
0.0093332
0.00999081
0.000292341
0.0067036
-0.00575126
-0.000933071
0.0061995
0.00576894
0.00687279
0.00776823
0.00623378
0.00577421
0.00665834
0.00616114
0.00633242
0.00695767
0.00769985
0.0078432
0.00815671
0.00864418
0.00920096
0.00983987
0.000318827
0.00660536
-0.0055408
-0.000822021
0.0061084
0.00574266
0.00684356
0.00769691
0.00626171
0.00574005
0.00669007
0.00614168
0.00631578
0.00693826
0.00765832
0.00780839
0.00807712
0.00853933
0.00906728
0.00969017
0.000346745
0.00650498
-0.00532639
-0.000711238
0.00602082
0.00571471
0.00681269
0.00762298
0.00629044
0.00570793
0.0067147
0.00612983
0.00629051
0.00692136
0.00761257
0.00776721
0.00799477
0.00842765
0.00893176
0.00954284
0.000376153
0.00640254
-0.00510792
-0.000601321
0.00593677
0.00568524
0.00677998
0.0075466
0.00631934
0.00567888
0.00673106
0.00612559
0.00625744
0.00690551
0.00756338
0.00771826
0.00791069
0.00831024
0.00879323
0.00939816
0.000407114
0.00629809
-0.00488536
-0.000492783
0.0058563
0.00565449
0.00674542
0.00746842
0.00634723
0.00565393
0.00673855
0.00612875
0.00621724
0.00688889
0.00751247
0.00765986
0.00782507
0.00819088
0.00865174
0.00925397
0.000439697
0.0061917
-0.0046587
-0.000386067
0.00577945
0.00562292
0.0067084
0.00738919
0.00637373
0.00563312
0.00673675
0.00613834
0.00617205
0.00686935
0.00746022
0.00759062
0.00773584
0.0080747
0.0085103
0.00910859
0.000473982
0.00608341
-0.00442797
-0.000281575
0.0057062
0.00559096
0.00667207
0.00730866
0.00639831
0.00561717
0.00672557
0.00615244
0.00612338
0.00684586
0.00740759
0.00751027
0.00764066
0.00796494
0.00836901
0.00896156
0.000510044
0.00597334
-0.00419334
-0.000179555
0.00563645
0.00555929
0.00662817
0.00722821
0.00641961
0.00560704
0.00670535
0.00617081
0.00607146
0.00681667
0.00735545
0.00742032
0.00753401
0.00785754
0.00824452
0.00881492
0.000547982
0.00586159
-0.00395496
-8.02463e-05
0.00557012
0.0055289
0.00657864
0.00714852
0.00643766
0.005602
0.00667652
0.00619213
0.00601696
0.00678285
0.00730218
0.00732279
0.0074152
0.00774554
0.00813577
0.00867477
0.00058785
0.00574819
-0.00371299
1.629e-05
0.00550668
0.00550078
0.00652452
0.00706857
0.0064532
0.00560013
0.00664022
0.00621357
0.00596201
0.00674176
0.00724911
0.00722388
0.0072879
0.00762772
0.00801205
0.00854209
0.000629712
0.00563335
-0.00346778
0.00011024
0.0054459
0.00547552
0.00646323
0.0069895
0.00646528
0.00560164
0.00660019
0.00623213
0.00591055
0.00668769
0.00719486
0.00712359
0.00715274
0.00750474
0.00789662
0.00842
0.000673844
0.0055171
-0.00321957
0.000201409
0.00538787
0.00545354
0.00640397
0.00690965
0.00647596
0.00560149
0.00655867
0.00624646
0.00586216
0.00662414
0.00713936
0.00702283
0.00700764
0.00737157
0.00775241
0.00831322
0.000720114
0.00539961
-0.00296886
0.000290182
0.00533085
0.00543681
0.0063353
0.00682984
0.006485
0.00560467
0.00650878
0.00626295
0.00581162
0.00655285
0.00708164
0.00691345
0.00685003
0.00722136
0.00765289
0.00822322
0.000768483
0.00528139
-0.00271646
0.000377551
0.00527406
0.00542537
0.00619787
0.00675233
0.00648878
0.00561483
0.00645064
0.00628267
0.00575828
0.00646568
0.00701487
0.00680733
0.00668417
0.00706397
0.00760506
0.00814418
0.000819591
0.00516216
-0.00246231
0.000463097
0.00521928
0.00541898
0.0061505
0.00666673
0.00649788
0.00561357
0.0063946
0.00629773
0.00570913
0.00636375
0.00693798
0.00671107
0.00652394
0.00690882
0.00746437
0.00806909
0.00087298
0.00504228
-0.00220736
0.000547626
0.0051633
0.00541937
0.00607602
0.00657876
0.00650774
0.00561711
0.00632865
0.00631113
0.00566684
0.00623989
0.00684371
0.00661759
0.00637653
0.00674844
0.00736634
0.00799988
0.000928401
0.00492283
-0.00195326
0.00063321
0.00510267
0.00542566
0.00598223
0.00649395
0.00651191
0.0056329
0.00624607
0.00632646
0.00562719
0.00609615
0.00673192
0.00652829
0.00624519
0.00657749
0.00730893
0.00793421
0.000986969
0.00480304
-0.00169941
0.000718655
0.00504702
0.00543528
0.00591644
0.00638882
0.00652762
0.00563545
0.00616241
0.00632997
0.00559196
0.00595124
0.00661153
0.00645136
0.00613049
0.00640066
0.00707989
0.00785785
0.00104771
0.00468404
-0.00144762
0.000805474
0.0049878
0.00545034
0.00584295
0.00627941
0.00654217
0.00564976
0.00607035
0.00632127
0.00556236
0.00578227
0.00646875
0.00637595
0.00603259
0.00623812
0.00692554
0.00777246
0.00111022
0.00456741
-0.00119999
0.000895796
0.00491805
0.00546945
0.00575612
0.00617678
0.00654504
0.00568745
0.00595908
0.00629798
0.00553202
0.00560792
0.00630225
0.00628619
0.00594666
0.00608858
0.00685266
0.00768142
0.00117619
0.0044515
-0.000954926
0.000987487
0.00486069
0.00548794
0.00570431
0.00604856
0.00655161
0.00572195
0.0058524
0.00625783
0.00552099
0.00544134
0.0061109
0.00618077
0.00587398
0.00594656
0.00655816
0.007574
0.00124364
0.00433884
-0.000715529
0.00108271
0.00479766
0.00550842
0.00564753
0.00592012
0.00654703
0.00576761
0.00574918
0.00618845
0.00551884
0.00528449
0.0058923
0.006051
0.00578208
0.00582647
0.00640895
0.00746516
0.00131278
0.00423067
-0.000483661
0.00118297
0.0047224
0.00552829
0.00557861
0.0058033
0.0065201
0.00583066
0.00563313
0.00610173
0.00552042
0.00515541
0.00565062
0.00589674
0.00565841
0.0057107
0.00641147
0.00736757
0.00138531
0.00412476
-0.000256397
0.00128486
0.00466863
0.00554251
0.00560539
0.00566855
0.00648337
0.00589274
0.00552634
0.00599064
0.00552834
0.00507098
0.00545827
0.00572766
0.00550975
0.00551317
0.00607729
0.00726726
0.00145832
0.00402544
-3.79388e-05
0.00138956
0.00461179
0.00555321
0.00558184
0.00553051
0.00643218
0.0059555
0.00543132
0.00585084
0.00554082
0.00501557
0.00526975
0.00553213
0.00532984
0.00528283
0.00582881
0.0071922
0.00153336
0.00393201
0.000171126
0.00149847
0.00454651
0.00556064
0.00555506
0.00540063
0.00636051
0.00601871
0.00533843
0.00570158
0.00553829
0.00498461
0.0050828
0.00530454
0.00513092
0.00508432
0.00566795
0.00713639
0.00161056
0.0038442
0.000372831
0.0016079
0.00449805
0.00556381
0.00553577
0.00527639
0.0062725
0.00607271
0.00526524
0.00554759
0.0055089
0.00496802
0.0048998
0.00505499
0.00492839
0.00493493
0.00557029
0.00709805
0.00168828
0.00376432
0.000565673
0.00171679
0.00446923
0.00556108
0.00552199
0.00515957
0.00616447
0.00611603
0.0052179
0.00538417
0.00545056
0.00495695
0.00473159
0.00480131
0.0047383
0.00482315
0.00551628
0.00706654
0.00176761
0.00369186
0.000750244
0.00182481
0.00443286
0.00555313
0.0055136
0.005047
0.00603871
0.00615222
0.0051901
0.0052149
0.00536603
0.00493933
0.00458798
0.00456766
0.00456501
0.00473086
0.00547577
0.00703005
0.001848
0.00362724
0.000927702
0.0019289
0.00440356
0.00554354
0.00550529
0.00494039
0.0059023
0.00617447
0.00517847
0.00504837
0.00525421
0.00490744
0.00448013
0.00436809
0.00439514
0.00462802
0.00542134
0.00699323
0.00192936
0.00357086
0.00109819
0.0020283
0.00438108
0.00553215
0.00549651
0.00484217
0.00575576
0.00617706
0.00518364
0.00489138
0.00511696
0.00486608
0.00441048
0.00419663
0.00421597
0.0045019
0.00535153
0.0069678
0.00201161
0.00352301
0.00126205
0.00212232
0.00436367
0.00551905
0.00548654
0.00475332
0.00560164
0.00616056
0.00520377
0.00474651
0.00495981
0.00481123
0.00436042
0.00404546
0.00403307
0.00436339
0.00527841
0.00695324
0.00209477
0.00348355
0.00142006
0.00221022
0.00435013
0.00550681
0.00547536
0.00467277
0.00544134
0.00612352
0.00523334
0.00461884
0.00479232
0.00473482
0.00431431
0.00392256
0.0038654
0.00422511
0.00519501
0.00693242
0.00217861
0.00345263
0.00157317
0.00229193
0.00433791
0.00549557
0.00546319
0.00460059
0.0052769
0.00606432
0.00526808
0.00451438
0.00462082
0.00463353
0.00426641
0.00383229
0.00371957
0.00408565
0.00509776
0.00689822
0.00226343
0.00343017
0.00172097
0.00236819
0.00432513
0.00548489
0.00545162
0.00453982
0.00511414
0.00598278
0.00530195
0.00443147
0.00444459
0.00450915
0.00421451
0.00376646
0.00359195
0.00395094
0.00499516
0.00685489
0.00234854
0.00341641
0.00186076
0.00243929
0.00430932
0.00547088
0.00544134
0.00448998
0.00495509
0.00588147
0.0053311
0.00436962
0.00427163
0.00437072
0.00415074
0.00371252
0.00348849
0.00383063
0.00489041
0.00680043
0.00243403
0.00341124
0.00199724
0.00250472
0.00428894
0.00545375
0.00543369
0.0044496
0.00480213
0.00576308
0.00535097
0.00433024
0.00411086
0.00421887
0.00406565
0.00366664
0.00341326
0.0037244
0.00478659
0.00673852
0.00252107
0.00341254
0.00213621
0.00256691
0.00426579
0.00543476
0.00541608
0.00441817
0.00465835
0.00562937
0.00535788
0.00431237
0.0039625
0.00405401
0.00396527
0.00362595
0.00335833
0.00363023
0.00468698
0.00668121
0.0026075
0.00342254
0.00227446
0.00262601
0.00423517
0.00540296
0.00540142
0.00439698
0.00452452
0.0054825
0.00534829
0.00431085
0.00383214
0.00388808
0.00385144
0.00357555
0.00331474
0.00355471
0.00460576
0.00663288
0.00269408
0.00344057
0.00241136
0.00268173
0.00419518
0.00536722
0.00538936
0.00438609
0.00440334
0.00532608
0.00531834
0.00432198
0.00372696
0.00372277
0.00371766
0.00351166
0.00328294
0.00350383
0.00454401
0.00658672
0.00278118
0.00346414
0.00254694
0.00273523
0.00414657
0.00532482
0.00538103
0.00438761
0.00429645
0.00516203
0.00526468
0.00433778
0.00364328
0.00355983
0.00357307
0.00343625
0.00325427
0.00347336
0.00449951
0.00654549
0.0028679
0.00349415
0.00268165
0.00278754
0.00409172
0.0052772
0.00537578
0.00439857
0.00419904
0.00499037
0.00518645
0.00435064
0.00358321
0.00341408
0.00342574
0.00334343
0.00322366
0.00346099
0.00447175
0.006514
0.00295497
0.00352808
0.00281398
0.00284223
0.00403346
0.00521986
0.00536738
0.0044148
0.0041138
0.00481855
0.00508919
0.00435848
0.00354714
0.00328834
0.00327446
0.00323541
0.00318827
0.00345472
0.00445811
0.00649473
0.00304245
0.00356488
0.00294365
0.00290167
0.00397257
0.00515039
0.00535364
0.00443775
0.00404514
0.00465198
0.00497383
0.00435436
0.00352539
0.00317868
0.0031277
0.00312064
0.00314038
0.00344745
0.00446038
0.00648863
0.00313027
0.00360444
0.00306966
0.00296658
0.00391134
0.00506915
0.00533308
0.00446642
0.00399246
0.00449227
0.00484223
0.00433392
0.00351142
0.00308704
0.00299432
0.00300211
0.00307871
0.00343921
0.00447202
0.0064906
0.00321853
0.00364649
0.00319026
0.00303688
0.00385377
0.00497755
0.00530245
0.00449797
0.00395512
0.00434272
0.00469849
0.0042954
0.00350174
0.00301276
0.00287485
0.00288333
0.0030079
0.00342498
0.0044828
0.00649724
0.00330724
0.00369068
0.00330458
0.00311235
0.00380272
0.00487697
0.00525908
0.00452961
0.00393224
0.00420622
0.00454692
0.0042378
0.00349279
0.00295379
0.00276868
0.00276847
0.00292997
0.00339906
0.00448783
0.00650694
0.00339633
0.00373666
0.00341224
0.00319187
0.00375997
0.00477022
0.00520182
0.00455792
0.00392194
0.00408497
0.00439252
0.00416131
0.00348098
0.00290746
0.00267385
0.00265951
0.0028463
0.00336107
0.00448622
0.00651778
0.00348572
0.00378422
0.00351293
0.00327387
0.00372687
0.00466077
0.00513054
0.00457936
0.00392156
0.00397962
0.00424032
0.00406791
0.00346158
0.00287069
0.00259075
0.00255884
0.00275986
0.00331379
0.00447625
0.00652411
0.00357526
0.00383328
0.00360655
0.00335682
0.0037039
0.00455187
0.00504622
0.00459071
0.00392819
0.00389001
0.00409555
0.00396105
0.00343036
0.00284185
0.00252024
0.00246561
0.00267187
0.00325722
0.00445315
0.00652194
0.00366478
0.00388382
0.00369306
0.00343912
0.00369106
0.00444671
0.00495036
0.00458924
0.00393954
0.00381525
0.00396166
0.00384584
0.00338462
0.00281663
0.00245962
0.00237784
0.00258245
0.00319045
0.00441783
0.0065144
0.00375405
0.00393578
0.00377268
0.00351933
0.00368766
0.0043478
0.00484518
0.00457369
0.00395274
0.00375302
0.00383986
0.00372741
0.00332244
0.00278823
0.00240635
0.00229714
0.00249476
0.00311895
0.00437613
0.00650137
0.00384285
0.00398891
0.00384569
0.00359631
0.00369246
0.00425713
0.00473406
0.00454343
0.00396418
0.003701
0.00372918
0.00360995
0.00324562
0.00275208
0.00235947
0.00222591
0.00241281
0.00304684
0.00432714
0.00647882
0.00393088
0.0040433
0.00391263
0.00366884
0.00370391
0.00417639
0.00462032
0.00449792
0.00397039
0.00365757
0.00362812
0.00349778
0.00315976
0.00270608
0.00231569
0.0021621
0.00233554
0.00297233
0.00427045
0.00644896
0.00401786
0.00409857
0.00397408
0.00373627
0.00372049
0.00410604
0.00450704
0.00443844
0.00396833
0.00362098
0.00353586
0.00339243
0.00306937
0.00264941
0.00227006
0.00210219
0.0022618
0.00289741
0.00421044
0.00641364
0.00410348
0.00415467
0.00403059
0.00379809
0.00374067
0.00404557
0.00439712
0.00436782
0.00395546
0.00358885
0.00345127
0.00329223
0.00297745
0.00258304
0.00221974
0.00204466
0.00219275
0.00282467
0.00414735
0.00637104
0.00418734
0.00421142
0.00408292
0.00385421
0.00376265
0.00399436
0.00429254
0.00428873
0.00393068
0.00355815
0.00337324
0.00319565
0.00288634
0.00250949
0.00216326
0.00198727
0.00212683
0.00275292
0.00408059
0.00632191
0.0042692
0.00426838
0.00413145
0.00390462
0.00378506
0.00395162
0.00419452
0.00420395
0.00389404
0.00352515
0.00330135
0.0031024
0.00279608
0.00243015
0.00209913
0.00192709
0.00206193
0.00268317
0.00401386
0.0062689
0.00434866
0.0043254
0.00417681
0.00394966
0.00380639
0.00391597
0.004104
0.00411625
0.00384703
0.00348671
0.00323415
0.00301251
0.00270569
0.00234591
0.00202665
0.00186131
0.00199582
0.0026152
0.00394783
0.0062125
0.00442552
0.00438179
0.00421931
0.00398985
0.00382579
0.00388588
0.00402124
0.00402734
0.00379194
0.00344093
0.00316811
0.00292636
0.00261624
0.00225938
0.00194683
0.0017884
0.00192532
0.0025447
0.00387829
0.00614983
0.00449942
0.00443739
0.00425934
0.00402543
0.0038427
0.00386025
0.00394617
0.00393773
0.00373066
0.00338831
0.00309883
0.00284216
0.00252844
0.00217253
0.00186175
0.0017084
0.00184828
0.00246897
0.0038036
0.0060797
0.00457005
0.00449174
0.00429712
0.00405737
0.00385711
0.00383724
0.00387863
0.00384782
0.00366391
0.0033319
0.00302413
0.00275504
0.00243902
0.00208429
0.00177204
0.00162064
0.00176321
0.00238696
0.00372439
0.00600446
0.00463711
0.00454435
0.0043326
0.00408576
0.00386927
0.00381574
0.0038188
0.00375957
0.00359087
0.00327397
0.00294723
0.00266311
0.00234401
0.00199216
0.00167733
0.0015234
0.00166681
0.00229384
0.00363565
0.00592086
0.00470012
0.00459525
0.00436608
0.00411087
0.00387882
0.00379355
0.00376436
0.00367448
0.00351019
0.00321403
0.00287202
0.00257052
0.00224602
0.00189704
0.00158121
0.00142071
0.00156001
0.00218671
0.00353144
0.00582058
0.00475884
0.00464402
0.00439812
0.00413372
0.00388781
0.00376994
0.0037119
0.00359313
0.00342077
0.00314631
0.00279618
0.00247522
0.00214353
0.00179614
0.0014807
0.0013134
0.00144546
0.002068
0.00341381
0.00570745
0.00481238
0.00469023
0.00442854
0.00415443
0.00389643
0.00374623
0.00366034
0.00351744
0.00332696
0.00307025
0.00272109
0.00237844
0.00203532
0.00168681
0.00137174
0.0011976
0.00132008
0.00193425
0.00327711
0.0055741
0.00486128
0.00473337
0.00445819
0.00417541
0.00390693
0.00372291
0.00360568
0.00344462
0.00323211
0.00298542
0.00264465
0.00228206
0.00192407
0.00157052
0.00125578
0.00107671
0.00118987
0.0017942
0.00312781
0.00541615
0.00490112
0.00477184
0.00448343
0.00419605
0.00392312
0.00370578
0.00354852
0.00337372
0.00314455
0.00289661
0.00256647
0.0021885
0.00181005
0.0014418
0.00112118
0.000938374
0.00104547
0.00164056
0.00296512
0.00524682
0.00493998
0.00479617
0.00450334
0.00420094
0.00392566
0.00368005
0.00348136
0.00329611
0.00306094
0.00280902
0.00248752
0.00210184
0.00170252
0.00131138
0.000974185
0.000779395
0.000874117
0.00145773
0.002773
0.00505149
0.00497764
0.00488207
0.0045675
0.00424626
0.0039198
0.00362557
0.00339098
0.00320404
0.00297594
0.00272081
0.00240262
0.00201349
0.00159536
0.00118073
0.000821843
0.000605124
0.000672863
0.00122854
0.00252535
0.00479827
0.00492511
0.00478399
0.00460604
0.00435653
0.00399742
0.00359342
0.00330591
0.00311801
0.00290775
0.0026518
0.00233308
0.00194123
0.0015099
0.00107283
0.000684161
0.000429
0.000449365
0.000950335
0.00219516
0.004423
0.00506992
0.00500814
0.00459844
0.00423594
0.00388236
0.00353616
0.00323147
0.00302976
0.0028383
0.00259694
0.00228346
0.00190241
0.00148182
0.00105679
0.000672821
0.00040705
0.000384454
0.000818861
0.00196325
0.00406193
0.00500073
0.00490784
0.00457785
0.00430185
0.00398378
0.00357041
0.0031784
0.00293242
0.00270315
0.00245224
0.00210649
0.00171176
0.00126622
0.000846927
0.000506568
0.000329765
0.000423283
0.000953861
0.00215347
0.00427922
0.00514186
0.0049202
0.00457776
0.00419896
0.00382667
0.00349069
0.00321435
0.00306793
0.00289584
0.00262932
0.00227772
0.00187527
0.00140314
0.000848246
0.000219943
-0.000371986
-0.000737996
-0.000630014
0.000231028
0.00208507
0.00539378
0.00484857
0.0044088
0.00400064
0.0037212
0.00331747
0.00294507
0.00276285
0.00258328
0.00224909
0.00183944
0.00146846
0.00132864
0.00152635
0.00211593
0.00301187
0.00402733
0.00485806
0.00513121
0.0045119
0.00536785
0.00486664
0.00438649
0.00406288
0.00387523
0.00370725
0.00355835
0.003386
0.00310131
0.00266152
0.00210184
0.00145034
0.000693015
-0.000175895
-0.0010884
-0.00193262
-0.00253711
-0.00267047
-0.00205259
-0.000436675
0.00554344
0.00483428
0.00433298
0.00398923
0.00379669
0.00346593
0.00305074
0.00262216
0.00225676
0.00202807
0.00179529
0.00143658
0.00108777
0.000917638
0.00107644
0.00158445
0.00231622
0.00296538
0.00313461
0.00246153
0.00553027
0.00480214
0.00428715
0.00402265
0.00399059
0.00396481
0.003963
0.00384135
0.00348543
0.00282639
0.00190353
0.000693337
-0.000773507
-0.00235616
-0.00383409
-0.00502358
-0.00575575
-0.00584364
-0.00506252
-0.00321544
0.0164037
0.00455906
6.19133e-05
0.00157728
0.00379283
0.00535536
0.00644412
0.00720508
0.00794089
0.00903073
0.0102693
0.0113113
0.0123365
0.0134901
0.0146311
0.0156913
0.0167474
0.0179259
0.0192355
0.0203413
0.0211914
0.0222601
0.0236849
0.0251994
0.0266708
0.0281124
0.0295934
0.0311515
0.032736
0.0343678
0.0360873
0.037924
0.0397977
0.0417533
0.0437242
0.0457959
0.0479489
0.0502068
0.0525437
0.0549058
0.0573854
0.0598782
0.0625502
0.0652139
0.0680205
0.070928
0.0738283
0.0770015
0.0800651
0.0832423
0.0161331
0.00461534
0.00010278
0.00159387
0.00380252
0.00536211
0.00644917
0.0072089
0.00794364
0.00903275
0.010271
0.0113128
0.0123379
0.0134913
0.0146323
0.0156924
0.0167484
0.0179268
0.0192363
0.0203421
0.0211921
0.0222607
0.0236854
0.0251998
0.0266712
0.0281128
0.0295937
0.0311518
0.0327363
0.034368
0.0360875
0.0379242
0.0397979
0.0417535
0.0437244
0.0457961
0.047949
0.0502069
0.0525438
0.054906
0.0573855
0.0598783
0.0625503
0.065214
0.0680206
0.0709281
0.0738283
0.0770015
0.0800652
0.0832424
0.0158407
0.00471478
0.000171098
0.00161519
0.00381299
0.00536911
0.00645426
0.00721271
0.00794636
0.00903475
0.0102726
0.0113142
0.012339
0.0134924
0.0146333
0.0156934
0.0167493
0.0179276
0.0192371
0.0203428
0.0211927
0.0222612
0.0236859
0.0252002
0.0266716
0.0281132
0.029594
0.0311521
0.0327366
0.0343683
0.0360877
0.0379244
0.0397981
0.0417537
0.0437246
0.0457962
0.0479492
0.050207
0.0525439
0.0549061
0.0573856
0.0598784
0.0625504
0.0652141
0.0680207
0.0709282
0.0738284
0.0770016
0.0800653
0.0832425
0.0155805
0.00485297
0.000273181
0.00164679
0.00382675
0.00537774
0.00646037
0.00721741
0.00794989
0.0090373
0.0102745
0.0113156
0.0123402
0.0134935
0.0146343
0.0156943
0.0167502
0.0179284
0.0192379
0.0203436
0.0211933
0.0222616
0.0236863
0.0252007
0.026672
0.0281135
0.0295943
0.0311523
0.0327368
0.0343685
0.0360879
0.0379246
0.0397983
0.0417538
0.0437248
0.0457964
0.0479493
0.0502072
0.0525441
0.0549062
0.0573857
0.0598785
0.0625505
0.0652142
0.0680208
0.0709283
0.0738285
0.0770017
0.0800653
0.0832426
0.0153347
0.00501176
0.000401071
0.00168854
0.00384477
0.00538891
0.00646817
0.00722372
0.00795505
0.00904105
0.010277
0.0113174
0.0123416
0.0134947
0.0146353
0.0156952
0.0167511
0.0179293
0.0192388
0.0203445
0.021194
0.0222621
0.0236868
0.0252012
0.0266725
0.0281139
0.0295947
0.0311526
0.0327371
0.0343687
0.0360881
0.0379248
0.0397985
0.041754
0.0437249
0.0457965
0.0479494
0.0502073
0.0525442
0.0549063
0.0573859
0.0598786
0.0625506
0.0652143
0.0680209
0.0709284
0.0738285
0.0770018
0.0800654
0.0832428
0.015083
0.00517819
0.000542908
0.00173627
0.00386598
0.00540252
0.0064777
0.00723179
0.00796224
0.00904641
0.0102803
0.0113195
0.0123434
0.0134961
0.0146363
0.0156961
0.016752
0.0179301
0.0192398
0.0203456
0.0211947
0.0222626
0.0236873
0.0252017
0.026673
0.0281143
0.029595
0.031153
0.0327374
0.034369
0.0360884
0.0379251
0.0397987
0.0417542
0.0437251
0.0457967
0.0479496
0.0502074
0.0525443
0.0549064
0.057386
0.0598787
0.0625507
0.0652144
0.0680209
0.0709284
0.0738286
0.0770018
0.0800656
0.0832431
0.0148222
0.00534748
0.000692369
0.00178673
0.00388892
0.00541795
0.00648865
0.00724133
0.00797134
0.00905349
0.0102846
0.0113222
0.0123456
0.0134978
0.0146375
0.015697
0.0167528
0.0179309
0.0192407
0.0203467
0.0211957
0.0222632
0.0236879
0.0252023
0.0266735
0.0281148
0.0295954
0.0311534
0.0327377
0.0343693
0.0360886
0.0379253
0.0397989
0.0417544
0.0437253
0.0457968
0.0479498
0.0502076
0.0525445
0.0549066
0.0573861
0.0598788
0.0625508
0.0652145
0.068021
0.0709285
0.0738287
0.0770019
0.0800657
0.0832434
0.0145566
0.00551818
0.000847323
0.00183863
0.00391262
0.00543461
0.0065006
0.00725188
0.00798187
0.00906205
0.0102898
0.0113253
0.0123482
0.0135
0.0146389
0.015698
0.0167536
0.0179316
0.0192416
0.020348
0.0211968
0.022264
0.0236886
0.025203
0.0266741
0.0281153
0.0295959
0.0311538
0.0327381
0.0343696
0.0360889
0.0379256
0.0397991
0.0417546
0.0437255
0.045797
0.0479499
0.0502078
0.0525446
0.0549067
0.0573862
0.059879
0.0625509
0.0652146
0.0680211
0.0709286
0.0738288
0.077002
0.0800659
0.0832438
0.0142897
0.00568952
0.00100763
0.00189186
0.0039367
0.00545213
0.00651329
0.00726303
0.00799329
0.00907164
0.0102958
0.011329
0.0123513
0.0135025
0.0146407
0.0156994
0.0167545
0.0179321
0.0192423
0.0203493
0.0211981
0.0222651
0.0236895
0.0252038
0.0266748
0.028116
0.0295965
0.0311543
0.0327386
0.03437
0.0360892
0.0379259
0.0397994
0.0417549
0.0437257
0.0457972
0.0479501
0.0502079
0.0525448
0.0549069
0.0573864
0.0598791
0.062551
0.0652147
0.0680212
0.0709287
0.0738289
0.0770021
0.0800661
0.0832444
0.0140233
0.00586102
0.00117405
0.00194682
0.00396103
0.00547031
0.00652653
0.00727456
0.00800521
0.00908192
0.0103022
0.0113329
0.0123546
0.0135053
0.0146428
0.0157012
0.0167558
0.0179325
0.0192427
0.0203503
0.0211995
0.0222663
0.0236907
0.0252048
0.0266756
0.0281166
0.0295972
0.031155
0.0327392
0.0343704
0.0360896
0.0379262
0.0397997
0.0417551
0.043726
0.0457974
0.0479503
0.0502081
0.052545
0.054907
0.0573865
0.0598792
0.0625512
0.0652148
0.0680213
0.0709288
0.0738289
0.0770022
0.0800664
0.083245
0.0137581
0.00603252
0.00134751
0.00200403
0.0039856
0.00548912
0.00654032
0.00728637
0.00801749
0.00909266
0.0103091
0.0113371
0.0123582
0.0135083
0.0146452
0.0157034
0.0167575
0.017933
0.0192426
0.0203511
0.0212008
0.0222678
0.0236921
0.0252059
0.0266764
0.0281173
0.0295979
0.0311557
0.0327398
0.034371
0.0360901
0.0379266
0.0398
0.0417555
0.0437262
0.0457977
0.0479505
0.0502083
0.0525452
0.0549072
0.0573867
0.0598794
0.0625513
0.065215
0.0680215
0.070929
0.0738291
0.0770024
0.0800667
0.0832457
0.0134947
0.00620388
0.00152873
0.00206395
0.0040104
0.00550854
0.00655469
0.00729845
0.00803004
0.0091038
0.0103162
0.0113414
0.0123619
0.0135114
0.0146476
0.015706
0.0167596
0.0179335
0.0192422
0.0203513
0.0212019
0.0222694
0.0236938
0.0252073
0.0266773
0.0281181
0.0295986
0.0311564
0.0327406
0.0343718
0.0360907
0.0379271
0.0398004
0.0417558
0.0437265
0.0457979
0.0479508
0.0502085
0.0525454
0.0549074
0.0573869
0.0598796
0.0625515
0.0652151
0.0680216
0.0709291
0.0738292
0.0770025
0.0800671
0.0832466
0.0132333
0.00637471
0.0017181
0.00212702
0.00403541
0.00552858
0.00656972
0.00731083
0.00804288
0.00911529
0.0103237
0.0113459
0.0123658
0.0135145
0.0146501
0.0157087
0.0167621
0.0179342
0.0192413
0.0203509
0.0212026
0.0222709
0.0236957
0.025209
0.0266784
0.0281188
0.0295993
0.0311572
0.0327415
0.0343726
0.0360914
0.0379276
0.0398009
0.0417563
0.0437269
0.0457982
0.047951
0.0502088
0.0525457
0.0549077
0.0573871
0.0598798
0.0625517
0.0652153
0.0680218
0.0709293
0.0738293
0.0770026
0.0800676
0.0832476
0.0129744
0.00654436
0.00191574
0.00219364
0.00406056
0.00554918
0.00658548
0.00732354
0.00805599
0.00912712
0.0103314
0.0113505
0.0123698
0.0135178
0.0146525
0.0157114
0.0167646
0.0179349
0.01924
0.0203499
0.0212027
0.0222721
0.0236978
0.0252109
0.0266796
0.0281196
0.0296001
0.031158
0.0327424
0.0343736
0.0360923
0.0379283
0.0398014
0.0417567
0.0437274
0.0457986
0.0479513
0.050209
0.0525459
0.0549079
0.0573874
0.05988
0.0625519
0.0652155
0.0680219
0.0709295
0.0738295
0.0770028
0.0800681
0.0832488
0.0127183
0.00671201
0.00212161
0.00226426
0.00408581
0.00557027
0.00660205
0.00733667
0.00806939
0.00913926
0.0103393