/*--------------------------------*- C++ -*----------------------------------*\
| =========                 |                                                 |
| \\      /  F ield         | OpenFOAM: The Open Source CFD Toolbox           |
|  \\    /   O peration     | Version:  v2012                                 |
|   \\  /    A nd           | Website:  www.openfoam.com                      |
|    \\/     M anipulation  |                                                 |
\*---------------------------------------------------------------------------*/
FoamFile
{
    version     2.0;
    format      ascii;
    class       surfaceScalarField;
    location    "6";
    object      phi;
}
// * * * * * * * * * * * * * * * * * * * * * * * * * * * * * * * * * * * * * //

dimensions      [0 3 -1 0 0 0 0];
oriented        oriented;


internalField   nonuniform List<scalar> 
13830
(
9.85676e-07
-1.10673e-07
8.13926e-07
-7.38974e-08
9.85508e-07
3.73463e-08
9.01537e-07
2.1484e-06
8.6243e-07
-1.38042e-06
1.01369e-06
-4.57377e-07
9.5099e-07
-3.53881e-08
8.9508e-07
4.30231e-07
9.35317e-07
3.80647e-07
9.40104e-07
-5.94408e-08
9.57151e-07
3.1117e-07
9.40514e-07
2.1256e-07
9.42058e-07
4.13025e-07
9.23634e-07
3.08754e-07
9.2504e-07
4.26076e-07
9.17242e-07
3.08335e-07
9.18382e-07
3.02448e-07
9.17452e-07
2.00743e-07
9.15494e-07
1.71658e-07
1.0577e-07
9.07334e-07
1.02339e-06
-1.61534e-07
8.45117e-07
1.04379e-07
1.02518e-06
-1.42718e-07
9.79201e-07
2.19438e-06
9.34701e-07
-1.33592e-06
1.05986e-06
-5.8254e-07
9.98471e-07
2.60057e-08
9.39825e-07
4.88877e-07
9.76958e-07
3.43514e-07
9.78739e-07
-6.12226e-08
9.95134e-07
2.94776e-07
9.78537e-07
2.29157e-07
9.76375e-07
4.15187e-07
9.61431e-07
3.23698e-07
9.55945e-07
4.31562e-07
9.57324e-07
3.06956e-07
9.47913e-07
3.11859e-07
9.59095e-07
1.89561e-07
9.43347e-07
1.87406e-07
9.30742e-08
9.56043e-07
1.06063e-06
-2.12715e-07
8.85674e-07
2.7934e-07
1.06264e-06
-3.19688e-07
1.06286e-06
2.19417e-06
1.00599e-06
-1.27905e-06
1.10808e-06
-6.84632e-07
1.05488e-06
7.92023e-08
9.98852e-07
5.44906e-07
1.02454e-06
3.17831e-07
1.02803e-06
-6.4718e-08
1.03514e-06
2.87664e-07
1.02654e-06
2.37759e-07
1.01172e-06
4.30003e-07
1.00729e-06
3.28129e-07
9.8977e-07
4.49085e-07
9.99805e-07
2.96921e-07
9.85127e-07
3.26537e-07
9.97988e-07
1.767e-07
9.85515e-07
1.99879e-07
8.71783e-08
9.91411e-07
1.098e-06
-2.62934e-07
9.3431e-07
4.43026e-07
1.10167e-06
-4.87045e-07
1.14378e-06
2.15205e-06
1.0699e-06
-1.20516e-06
1.15185e-06
-7.6658e-07
1.11372e-06
1.17323e-07
1.06637e-06
5.92263e-07
1.07535e-06
3.08847e-07
1.08083e-06
-7.01986e-08
1.07937e-06
2.8913e-07
1.07824e-06
2.38885e-07
1.05536e-06
4.52887e-07
1.05445e-06
3.29034e-07
1.03473e-06
4.68807e-07
1.04305e-06
2.88604e-07
1.03263e-06
3.36955e-07
1.04039e-06
1.68934e-07
1.03376e-06
2.06511e-07
8.67348e-08
1.03421e-06
1.13509e-06
-3.10471e-07
9.90884e-07
5.87234e-07
1.14182e-06
-6.37983e-07
1.21396e-06
2.07991e-06
1.12232e-06
-1.11352e-06
1.18709e-06
-8.31353e-07
1.16955e-06
1.34866e-07
1.13416e-06
6.27647e-07
1.12568e-06
3.17329e-07
1.13041e-06
-7.49246e-08
1.1259e-06
2.93633e-07
1.12897e-06
2.35822e-07
1.10705e-06
4.74809e-07
1.10458e-06
3.31497e-07
1.08872e-06
4.84667e-07
1.09226e-06
2.85071e-07
1.08552e-06
3.43689e-07
1.08863e-06
1.65828e-07
1.08382e-06
2.11323e-07
8.98126e-08
1.08074e-06
1.17178e-06
-3.53411e-07
1.05358e-06
7.05441e-07
1.18228e-06
-7.66685e-07
1.26845e-06
1.99375e-06
1.16399e-06
-1.00906e-06
1.21338e-06
-8.80742e-07
1.21879e-06
1.29455e-07
1.19595e-06
6.50484e-07
1.17362e-06
3.39655e-07
1.17404e-06
-7.53468e-08
1.17126e-06
2.96422e-07
1.17648e-06
2.306e-07
1.16129e-06
4.89996e-07
1.15764e-06
3.35147e-07
1.14591e-06
4.96396e-07
1.14595e-06
2.8503e-07
1.1395e-06
3.50139e-07
1.13903e-06
1.66298e-07
1.13332e-06
2.17034e-07
9.55596e-08
1.12758e-06
1.20837e-06
-3.9008e-07
1.11939e-06
7.9442e-07
1.22205e-06
-8.69342e-07
1.30714e-06
1.90866e-06
1.1995e-06
-9.0143e-07
1.23392e-06
-9.15158e-07
1.25972e-06
1.03656e-07
1.2491e-06
6.61098e-07
1.21887e-06
3.69889e-07
1.2132e-06
-6.96786e-08
1.21285e-06
2.9677e-07
1.21983e-06
2.23623e-07
1.21226e-06
4.97566e-07
1.21005e-06
3.37356e-07
1.20108e-06
5.0537e-07
1.1994e-06
2.86709e-07
1.19152e-06
3.58021e-07
1.18817e-06
1.69641e-07
1.18096e-06
2.24243e-07
1.03266e-07
1.17326e-06
1.24564e-06
-4.19534e-07
1.18531e-06
8.54749e-07
1.26054e-06
-9.44579e-07
1.33405e-06
1.83515e-06
1.23415e-06
-8.01533e-07
1.25375e-06
-9.34759e-07
1.29263e-06
6.47739e-08
1.29378e-06
6.59948e-07
1.26187e-06
4.01798e-07
1.2508e-06
-5.86082e-08
1.25089e-06
2.96687e-07
1.25929e-06
2.15214e-07
1.25742e-06
4.99442e-07
1.25829e-06
3.36481e-07
1.25124e-06
5.1242e-07
1.24904e-06
2.88909e-07
1.23997e-06
3.67098e-07
1.2346e-06
1.7501e-07
1.22663e-06
2.32211e-07
1.12014e-07
1.21788e-06
1.28464e-06
-4.41825e-07
1.24936e-06
8.90029e-07
1.29817e-06
-9.93388e-07
1.35529e-06
1.77804e-06
1.27135e-06
-7.17602e-07
1.27746e-06
-9.40861e-07
1.32011e-06
2.21194e-08
1.33183e-06
6.48232e-07
1.30351e-06
4.30115e-07
1.28932e-06
-4.44181e-08
1.28769e-06
2.98318e-07
1.2965e-06
2.06404e-07
1.29751e-06
4.98426e-07
1.30133e-06
3.32669e-07
1.29593e-06
5.17818e-07
1.294e-06
2.90836e-07
1.28499e-06
3.76112e-07
1.27867e-06
1.81326e-07
1.27118e-06
2.39704e-07
1.20821e-07
1.26237e-06
1.32633e-06
-4.57873e-07
1.31094e-06
9.0541e-07
1.33632e-06
-1.01877e-06
1.37694e-06
1.73742e-06
1.31236e-06
-6.53024e-07
1.3079e-06
-9.36395e-07
1.34645e-06
-1.64368e-08
1.36623e-06
6.28456e-07
1.34503e-06
4.5131e-07
1.33027e-06
-2.96545e-08
1.32592e-06
3.02668e-07
1.33381e-06
1.98514e-07
1.33509e-06
4.97139e-07
1.34058e-06
3.27182e-07
1.33674e-06
5.21663e-07
1.3356e-06
2.91969e-07
1.32807e-06
3.83642e-07
1.32183e-06
1.87573e-07
1.31591e-06
2.4562e-07
1.289e-07
1.30783e-06
1.37117e-06
-4.69018e-07
1.3704e-06
9.06179e-07
1.37673e-06
-1.0251e-06
1.40356e-06
1.7106e-06
1.35718e-06
-6.06641e-07
1.34598e-06
-9.25197e-07
1.37611e-06
-4.65724e-08
1.40055e-06
6.0402e-07
1.38782e-06
4.64042e-07
1.37435e-06
-1.61892e-08
1.36731e-06
3.09709e-07
1.37337e-06
1.92455e-07
1.37312e-06
4.97391e-07
1.37881e-06
3.21492e-07
1.37643e-06
5.24043e-07
1.3763e-06
2.92103e-07
1.37131e-06
3.88627e-07
1.36581e-06
1.93073e-07
1.36209e-06
2.49342e-07
1.35809e-07
1.35518e-06
1.41916e-06
-4.76526e-07
1.42849e-06
8.96855e-07
1.42072e-06
-1.01734e-06
1.4375e-06
1.69382e-06
1.40547e-06
-5.74615e-07
1.39111e-06
-9.10831e-07
1.41212e-06
-6.7586e-08
1.43801e-06
5.78136e-07
1.43303e-06
4.69019e-07
1.42176e-06
-4.9168e-09
1.41253e-06
3.18935e-07
1.41656e-06
1.88429e-07
1.41408e-06
4.99864e-07
1.41886e-06
3.16716e-07
1.41787e-06
5.25037e-07
1.41858e-06
2.91388e-07
1.41663e-06
3.90581e-07
1.41211e-06
1.9759e-07
1.41068e-06
2.50769e-07
1.41453e-07
1.40504e-06
1.46999e-06
-4.81273e-07
1.48599e-06
8.80855e-07
1.46878e-06
-1.00013e-06
1.47913e-06
1.68347e-06
1.457e-06
-5.52475e-07
1.44194e-06
-8.95778e-07
1.45542e-06
-8.10589e-08
1.48058e-06
5.52967e-07
1.48136e-06
4.68242e-07
1.47239e-06
4.04901e-09
1.46155e-06
3.29781e-07
1.46388e-06
1.86103e-07
1.45955e-06
5.04186e-07
1.46285e-06
3.13422e-07
1.46321e-06
5.24677e-07
1.46433e-06
2.90265e-07
1.46536e-06
3.8955e-07
1.4617e-06
2.01252e-07
1.46228e-06
2.50193e-07
1.45988e-07
1.45774e-06
1.52328e-06
-4.83683e-07
1.54357e-06
8.60573e-07
1.52069e-06
-9.77248e-07
1.52764e-06
1.67652e-06
1.5116e-06
-5.36437e-07
1.49707e-06
-8.81246e-07
1.50523e-06
-8.92195e-08
1.52874e-06
5.29453e-07
1.53299e-06
4.63992e-07
1.52608e-06
1.09644e-08
1.51411e-06
3.41743e-07
1.51525e-06
1.84965e-07
1.51012e-06
5.09322e-07
1.51183e-06
3.11714e-07
1.51357e-06
5.22937e-07
1.51456e-06
2.89271e-07
1.51816e-06
3.85947e-07
1.51503e-06
2.04379e-07
1.5171e-06
2.48126e-07
1.49692e-07
1.5134e-06
1.5788e-06
-4.83871e-07
1.60171e-06
8.37665e-07
1.5759e-06
-9.51441e-07
1.58186e-06
1.67055e-06
1.56922e-06
-5.23794e-07
1.5554e-06
-8.67425e-07
1.56003e-06
-9.38497e-08
1.58183e-06
5.07653e-07
1.58772e-06
4.58104e-07
1.58259e-06
1.60947e-08
1.57e-06
3.54333e-07
1.57035e-06
1.84615e-07
1.56563e-06
5.14041e-07
1.56593e-06
3.11412e-07
1.56912e-06
5.19751e-07
1.56953e-06
2.88857e-07
1.5751e-06
3.80382e-07
1.57215e-06
2.07327e-07
1.57514e-06
2.45137e-07
1.52868e-07
1.57196e-06
1.63652e-06
-4.81849e-07
1.66083e-06
8.13351e-07
1.6339e-06
-9.24507e-07
1.64089e-06
1.66356e-06
1.62983e-06
-5.12732e-07
1.61626e-06
-8.5386e-07
1.61836e-06
-9.59439e-08
1.6388e-06
4.87207e-07
1.64517e-06
4.51732e-07
1.6417e-06
1.95664e-08
1.62905e-06
3.66986e-07
1.62878e-06
1.84885e-07
1.62554e-06
5.17284e-07
1.62473e-06
3.12222e-07
1.62947e-06
5.15009e-07
1.629e-06
2.89324e-07
1.63589e-06
3.73489e-07
1.63284e-06
2.10383e-07
1.63622e-06
2.41753e-07
1.55788e-07
1.6333e-06
1.6966e-06
-4.77699e-07
1.72134e-06
7.88611e-07
1.69441e-06
-8.97573e-07
1.70416e-06
1.65381e-06
1.69337e-06
-5.01948e-07
1.67931e-06
-8.39802e-07
1.67925e-06
-9.58778e-08
1.69881e-06
4.67644e-07
1.70507e-06
4.45472e-07
1.70321e-06
2.14294e-08
1.69117e-06
3.79031e-07
1.69024e-06
1.85811e-07
1.68916e-06
5.18366e-07
1.68755e-06
3.13831e-07
1.69395e-06
5.08606e-07
1.69249e-06
2.9079e-07
1.70013e-06
3.65848e-07
1.69679e-06
2.13721e-07
1.70014e-06
2.38402e-07
1.58665e-07
1.69726e-06
1.75927e-06
-4.71648e-07
1.78362e-06
7.64259e-07
1.75739e-06
-8.71348e-07
1.77135e-06
1.63986e-06
1.75979e-06
-4.90388e-07
1.74447e-06
-8.24486e-07
1.74233e-06
-9.37397e-08
1.76146e-06
4.48518e-07
1.76734e-06
4.39588e-07
1.76695e-06
2.18182e-08
1.75622e-06
3.89762e-07
1.7545e-06
1.87533e-07
1.75586e-06
5.1701e-07
1.75372e-06
3.15965e-07
1.76183e-06
5.00498e-07
1.75942e-06
2.93201e-07
1.76734e-06
3.57924e-07
1.76367e-06
2.17392e-07
1.7667e-06
2.3538e-07
1.6164e-07
1.76372e-06
1.82472e-06
-4.64028e-07
1.84807e-06
7.40907e-07
1.82299e-06
-8.46271e-07
1.84216e-06
1.62069e-06
1.82895e-06
-4.77182e-07
1.81182e-06
-8.07362e-07
1.80768e-06
-8.95984e-08
1.82673e-06
4.29467e-07
1.83215e-06
4.34174e-07
1.83289e-06
2.10716e-08
1.82407e-06
3.98588e-07
1.82141e-06
1.90195e-07
1.82516e-06
5.13257e-07
1.82263e-06
3.18491e-07
1.83239e-06
4.90739e-07
1.82923e-06
2.96366e-07
1.83709e-06
3.50056e-07
1.83316e-06
2.21325e-07
1.8357e-06
2.32842e-07
1.6477e-07
1.83257e-06
1.89307e-06
-4.55198e-07
1.91507e-06
7.18905e-07
1.89137e-06
-8.22572e-07
1.91619e-06
1.59588e-06
1.90072e-06
-4.61712e-07
1.88158e-06
-7.88223e-07
1.87561e-06
-8.36288e-08
1.89483e-06
4.10253e-07
1.89979e-06
4.29208e-07
1.90114e-06
1.97253e-08
1.89458e-06
4.05148e-07
1.89087e-06
1.93906e-07
1.89679e-06
5.07331e-07
1.89385e-06
3.21431e-07
1.90506e-06
4.7953e-07
1.90142e-06
3.00011e-07
1.90901e-06
3.42466e-07
1.90498e-06
2.25356e-07
1.90701e-06
2.30806e-07
1.68026e-07
1.90376e-06
1.96437e-06
-4.45462e-07
1.98495e-06
6.98321e-07
1.96264e-06
-8.00255e-07
1.99297e-06
1.56554e-06
1.97498e-06
-4.43717e-07
1.95398e-06
-7.6723e-07
1.94647e-06
-7.61151e-08
1.96591e-06
3.9081e-07
1.97056e-06
4.24562e-07
1.9719e-06
1.83872e-08
1.96771e-06
4.09338e-07
1.96288e-06
1.98736e-07
1.9707e-06
4.99511e-07
1.96721e-06
3.24916e-07
1.97952e-06
4.6722e-07
1.9757e-06
3.03838e-07
1.98288e-06
3.35286e-07
1.97896e-06
2.29274e-07
1.98057e-06
2.29196e-07
1.71307e-07
1.97729e-06
2.03864e-06
-4.35052e-07
2.05797e-06
6.78994e-07
2.03679e-06
-7.79076e-07
2.07206e-06
1.53027e-06
2.05165e-06
-4.23305e-07
2.02924e-06
-7.44819e-07
2.02052e-06
-6.73981e-08
2.04006e-06
3.71272e-07
2.04459e-06
4.20029e-07
2.04539e-06
1.75848e-08
2.04349e-06
4.11235e-07
2.03749e-06
2.04741e-07
2.04695e-06
4.90054e-07
2.04279e-06
3.29074e-07
2.05575e-06
4.54263e-07
2.05202e-06
3.07566e-07
2.05871e-06
3.28591e-07
2.0551e-06
2.32891e-07
2.05641e-06
2.27879e-07
1.74477e-07
2.05324e-06
2.11593e-06
-4.24146e-07
2.13429e-06
6.6064e-07
2.1138e-06
-7.58584e-07
2.15319e-06
1.49087e-06
2.13073e-06
-4.00843e-07
2.10747e-06
-7.21556e-07
2.09791e-06
-5.78366e-08
2.11723e-06
3.51952e-07
2.12186e-06
4.15397e-07
2.12176e-06
1.76882e-08
2.12202e-06
4.10968e-07
2.1148e-06
2.11964e-07
2.12567e-06
4.79186e-07
2.12084e-06
3.33907e-07
2.13396e-06
4.41141e-07
2.13056e-06
3.10966e-07
2.13672e-06
3.22427e-07
2.13352e-06
2.36089e-07
2.13469e-06
2.26709e-07
1.77412e-07
2.13176e-06
2.19634e-06
-4.12907e-07
2.21402e-06
6.4296e-07
2.19366e-06
-7.38222e-07
2.23637e-06
1.44816e-06
2.21232e-06
-3.76796e-07
2.18876e-06
-6.97998e-07
2.17873e-06
-4.78071e-08
2.1974e-06
3.33285e-07
2.20229e-06
4.1051e-07
2.20103e-06
1.89506e-08
2.20338e-06
4.08612e-07
2.19494e-06
2.20402e-07
2.20699e-06
4.67137e-07
2.20166e-06
3.39245e-07
2.21451e-06
4.28284e-07
2.21163e-06
3.13853e-07
2.21724e-06
3.16817e-07
2.21446e-06
2.38867e-07
2.21564e-06
2.25531e-07
1.80027e-07
2.21302e-06
2.27998e-06
-4.01493e-07
2.29724e-06
6.25698e-07
2.27648e-06
-7.17462e-07
2.32176e-06
1.40288e-06
2.29655e-06
-3.51583e-07
2.27317e-06
-6.74614e-07
2.26308e-06
-3.77219e-08
2.28063e-06
3.15734e-07
2.28586e-06
4.05287e-07
2.2832e-06
2.16015e-08
2.28763e-06
4.04189e-07
2.27807e-06
2.29955e-07
2.29105e-06
4.54165e-07
2.2855e-06
3.44789e-07
2.29777e-06
4.16015e-07
2.29553e-06
3.16095e-07
2.30057e-06
3.11781e-07
2.29811e-06
2.41319e-07
2.29948e-06
2.24167e-07
1.82273e-07
2.29723e-06
2.36694e-06
-3.90047e-07
2.38399e-06
6.08648e-07
2.36241e-06
-6.95884e-07
2.40966e-06
1.35563e-06
2.3836e-06
-3.25524e-07
2.36074e-06
-6.51752e-07
2.35105e-06
-2.80343e-08
2.36705e-06
2.99729e-07
2.37265e-06
3.99693e-07
2.3684e-06
2.5849e-08
2.3748e-06
3.9779e-07
2.36435e-06
2.40406e-07
2.37795e-06
4.40565e-07
2.37257e-06
3.50165e-07
2.38403e-06
4.04553e-07
2.38253e-06
3.17598e-07
2.38689e-06
3.07424e-07
2.38456e-06
2.4365e-07
2.38643e-06
2.22294e-07
1.84123e-07
2.38458e-06
2.45731e-06
-3.78679e-07
2.47433e-06
5.91628e-07
2.45165e-06
-6.73201e-07
2.50032e-06
1.30696e-06
2.47366e-06
-2.98864e-07
2.45152e-06
-6.29617e-07
2.4427e-06
-1.9211e-08
2.45683e-06
2.85602e-07
2.46282e-06
3.93701e-07
2.45681e-06
3.18597e-08
2.46496e-06
3.8964e-07
2.45394e-06
2.51422e-07
2.46783e-06
4.26678e-07
2.46302e-06
3.54975e-07
2.47349e-06
3.9408e-07
2.47291e-06
3.18179e-07
2.47582e-06
3.0451e-07
2.47373e-06
2.45746e-07
2.47669e-06
2.19327e-07
1.85563e-07
2.47525e-06
2.55118e-06
-3.67463e-07
2.56835e-06
5.74459e-07
2.54438e-06
-6.49227e-07
2.59399e-06
1.25736e-06
2.56695e-06
-2.71824e-07
2.5456e-06
-6.08267e-07
2.53806e-06
-1.16788e-08
2.55011e-06
2.73561e-07
2.55652e-06
3.87283e-07
2.54869e-06
3.9697e-08
2.55823e-06
3.801e-07
2.54702e-06
2.62632e-07
2.56088e-06
4.12812e-07
2.55694e-06
3.58919e-07
2.56628e-06
3.84741e-07
2.5669e-06
3.17555e-07
2.57348e-06
2.97938e-07
2.57372e-06
2.45502e-07
2.57045e-06
2.22601e-07
1.86611e-07
2.5694e-06
2.64866e-06
-3.56441e-07
2.66616e-06
5.56956e-07
2.64077e-06
-6.23839e-07
2.69088e-06
1.20725e-06
2.6637e-06
-2.44642e-07
2.64302e-06
-5.87586e-07
2.63714e-06
-5.79939e-09
2.64702e-06
2.63685e-07
2.65388e-06
3.80418e-07
2.6443e-06
4.92813e-08
2.65482e-06
3.69571e-07
2.64375e-06
2.73704e-07
2.65732e-06
3.99241e-07
2.65443e-06
3.61817e-07
2.66318e-06
3.75992e-07
2.66244e-06
3.18293e-07
2.66483e-06
2.95548e-07
2.66315e-06
2.47181e-07
2.66763e-06
2.18119e-07
1.8712e-07
2.66712e-06
2.74984e-06
-3.45628e-07
2.76786e-06
5.38931e-07
2.74098e-06
-5.96953e-07
2.79122e-06
1.157e-06
2.76417e-06
-2.17591e-07
2.74388e-06
-5.67295e-07
2.73987e-06
-1.79579e-09
2.74771e-06
2.55855e-07
2.75495e-06
3.73177e-07
2.74395e-06
6.02807e-08
2.75489e-06
3.58629e-07
2.74449e-06
2.84103e-07
2.75722e-06
3.86507e-07
2.75592e-06
3.6312e-07
2.76368e-06
3.68238e-07
2.76252e-06
3.19452e-07
2.76415e-06
2.93911e-07
2.76255e-06
2.48789e-07
2.76881e-06
2.11858e-07
1.87428e-07
2.7685e-06
2.85484e-06
-3.35012e-07
2.87357e-06
5.20205e-07
2.84516e-06
-5.68539e-07
2.89522e-06
1.10694e-06
2.86861e-06
-1.90984e-07
2.84829e-06
-5.46974e-07
2.84625e-06
2.47696e-10
2.8523e-06
2.49799e-07
2.85981e-06
3.65669e-07
2.84787e-06
7.22239e-08
2.85865e-06
3.47843e-07
2.84948e-06
2.9328e-07
2.86076e-06
3.75226e-07
2.86145e-06
3.62423e-07
2.86931e-06
3.60377e-07
2.87572e-06
3.13051e-07
2.88255e-06
2.8708e-07
2.88258e-06
2.48752e-07
2.87416e-06
2.20283e-07
1.87969e-07
2.87362e-06
2.96378e-06
-3.24551e-07
2.98336e-06
5.00629e-07
2.95346e-06
-5.38639e-07
3.00309e-06
1.05731e-06
2.97728e-06
-1.65174e-07
2.95641e-06
-5.26105e-07
2.95629e-06
3.68385e-10
2.96092e-06
2.45173e-07
2.9686e-06
3.57982e-07
2.95613e-06
8.47026e-08
2.9665e-06
3.37472e-07
2.95872e-06
3.01052e-07
2.96857e-06
3.6538e-07
2.97102e-06
3.5997e-07
2.97342e-06
3.5798e-07
2.97435e-06
3.12122e-07
2.97475e-06
2.86679e-07
2.97367e-06
2.49834e-07
2.98297e-06
2.10982e-07
1.8809e-07
2.98285e-06
3.07679e-06
-3.14179e-07
3.09732e-06
4.801e-07
3.06605e-06
-5.07377e-07
3.11504e-06
1.00832e-06
3.09041e-06
-1.4054e-07
3.06848e-06
-5.04174e-07
3.07009e-06
-1.24408e-09
3.07368e-06
2.4159e-07
3.08143e-06
3.50229e-07
3.06881e-06
9.73213e-08
3.07873e-06
3.27548e-07
3.07204e-06
3.07748e-07
3.08116e-06
3.56254e-07
3.08509e-06
3.56044e-07
3.09258e-06
3.50495e-07
3.10177e-06
3.02931e-07
3.10864e-06
2.79805e-07
3.10921e-06
2.49261e-07
3.09635e-06
2.23846e-07
1.88243e-07
3.0962e-06
3.194e-06
-3.03814e-07
3.21551e-06
4.58591e-07
3.18311e-06
-4.74986e-07
3.23124e-06
9.60192e-07
3.20823e-06
-1.1753e-07
3.18476e-06
-4.80707e-07
3.18784e-06
-4.31586e-09
3.19071e-06
2.38711e-07
3.19847e-06
3.42471e-07
3.18588e-06
1.09914e-07
3.19577e-06
3.17652e-07
3.18901e-06
3.14513e-07
3.19971e-06
3.45556e-07
3.20305e-06
3.52707e-07
3.20988e-06
3.43658e-07
3.20294e-06
3.0987e-07
3.20371e-06
2.79036e-07
3.20464e-06
2.48331e-07
3.21285e-06
2.15636e-07
1.86962e-07
3.21413e-06
3.31556e-06
-2.93366e-07
3.33802e-06
4.36131e-07
3.30481e-06
-4.41769e-07
3.35187e-06
9.13129e-07
3.33082e-06
-9.64793e-08
3.30565e-06
-4.55538e-07
3.30965e-06
-8.31602e-09
3.31235e-06
2.3601e-07
3.31959e-06
3.35235e-07
3.30801e-06
1.21488e-07
3.31706e-06
3.08603e-07
3.31148e-06
3.20099e-07
3.32127e-06
3.35764e-07
3.31954e-06
3.54437e-07
3.32124e-06
3.41955e-07
3.32232e-06
3.08788e-07
3.32462e-06
2.76738e-07
3.32543e-06
2.47521e-07
3.33502e-06
2.0604e-07
1.85736e-07
3.33625e-06
3.44168e-06
-2.82762e-07
3.46498e-06
4.12834e-07
3.4313e-06
-4.08098e-07
3.47709e-06
8.67346e-07
3.45827e-06
-7.76655e-08
3.43142e-06
-4.28682e-07
3.43567e-06
-1.2571e-08
3.43898e-06
2.327e-07
3.44477e-06
3.29444e-07
3.43549e-06
1.3077e-07
3.44247e-06
3.01625e-07
3.43933e-06
3.2324e-07
3.44459e-06
3.30506e-07
3.45824e-06
3.40781e-07
3.46421e-06
3.35985e-07
3.47292e-06
3.00083e-07
3.48023e-06
2.69421e-07
3.48182e-06
2.45933e-07
3.46332e-06
2.24546e-07
1.864e-07
3.46265e-06
3.57257e-06
-2.71987e-07
3.59647e-06
3.8894e-07
3.56282e-06
-3.7445e-07
3.60699e-06
8.23176e-07
3.59084e-06
-6.15195e-08
3.56206e-06
-3.99902e-07
3.56651e-06
-1.70197e-08
3.57014e-06
2.2907e-07
3.5754e-06
3.24182e-07
3.56627e-06
1.39905e-07
3.57493e-06
2.92964e-07
3.56979e-06
3.28375e-07
3.57796e-06
3.22343e-07
3.5781e-06
3.4064e-07
3.5787e-06
3.35385e-07
3.5773e-06
3.0148e-07
3.57926e-06
2.6746e-07
3.58297e-06
2.42226e-07
3.59337e-06
2.14146e-07
1.85236e-07
3.59453e-06
3.70844e-06
-2.61043e-07
3.73269e-06
3.64687e-07
3.69948e-06
-3.41234e-07
3.74181e-06
7.80849e-07
3.72832e-06
-4.80339e-08
3.69806e-06
-3.69643e-07
3.70197e-06
-2.09259e-08
3.70673e-06
2.24306e-07
3.71049e-06
3.2042e-07
3.7028e-06
1.476e-07
3.71151e-06
2.84251e-07
3.70695e-06
3.32936e-07
3.71621e-06
3.13083e-07
3.71416e-06
3.42691e-07
3.71449e-06
3.35057e-07
3.71283e-06
3.03139e-07
3.71383e-06
2.66462e-07
3.71759e-06
2.38464e-07
3.73011e-06
2.01629e-07
1.84348e-07
3.73099e-06
3.84951e-06
-2.49964e-07
3.87386e-06
3.40334e-07
3.84145e-06
-3.08823e-07
3.88177e-06
7.40529e-07
3.87067e-06
-3.69276e-08
3.83973e-06
-3.38708e-07
3.84202e-06
-2.32111e-08
3.8491e-06
2.1722e-07
3.85007e-06
3.19448e-07
3.84572e-06
1.5195e-07
3.84942e-06
2.8055e-07
3.84993e-06
3.32434e-07
3.84985e-06
3.13164e-07
3.87292e-06
3.19613e-07
3.8808e-06
3.27181e-07
3.88904e-06
2.94896e-07
3.89512e-06
2.60385e-07
3.89567e-06
2.3791e-07
3.87418e-06
2.23119e-07
1.865e-07
3.87203e-06
3.99605e-06
-2.38865e-07
4.0201e-06
3.16292e-07
3.98905e-06
-2.77777e-07
4.02684e-06
7.02741e-07
4.01849e-06
-2.85815e-08
3.98655e-06
-3.06768e-07
3.98819e-06
-2.48461e-08
3.99522e-06
2.10188e-07
3.99782e-06
3.16848e-07
3.98964e-06
1.60126e-07
4.0017e-06
2.68498e-07
4.00116e-06
3.32965e-07
4.00723e-06
3.07101e-07
4.00108e-06
3.2576e-07
4.00153e-06
3.26728e-07
3.99931e-06
2.97121e-07
3.99972e-06
2.59977e-07
4.00464e-06
2.3299e-07
4.01838e-06
2.09378e-07
1.85153e-07
4.01972e-06
4.14823e-06
-2.27816e-07
4.17174e-06
2.92789e-07
4.1423e-06
-2.48345e-07
4.17755e-06
6.67498e-07
4.17135e-06
-2.23806e-08
4.13944e-06
-2.74862e-07
4.13939e-06
-2.47972e-08
4.14746e-06
2.02119e-07
4.1504e-06
3.1391e-07
4.14046e-06
1.7006e-07
4.15454e-06
2.54425e-07
4.14308e-06
3.44422e-07
4.14385e-06
3.06335e-07
4.14992e-06
3.19683e-07
4.15356e-06
3.23096e-07
4.15111e-06
2.99563e-07
4.15098e-06
2.60113e-07
4.15494e-06
2.29027e-07
4.17071e-06
1.93613e-07
1.83654e-07
4.1722e-06
4.30626e-06
-2.16887e-07
4.32902e-06
2.70023e-07
4.30138e-06
-2.20705e-07
4.33425e-06
6.34635e-07
4.32935e-06
-1.74873e-08
4.29887e-06
-2.44373e-07
4.29539e-06
-2.1317e-08
4.30663e-06
1.90875e-07
4.30658e-06
3.13963e-07
4.30043e-06
1.76209e-07
4.30478e-06
2.50069e-07
4.31967e-06
3.29539e-07
4.32153e-06
3.04476e-07
4.33569e-06
3.05518e-07
4.34484e-06
3.13942e-07
4.35436e-06
2.90046e-07
4.36048e-06
2.53998e-07
4.35706e-06
2.32445e-07
4.33241e-06
2.18261e-07
1.86486e-07
4.32958e-06
4.47044e-06
-2.0624e-07
4.49201e-06
2.48454e-07
4.46675e-06
-1.95447e-07
4.49661e-06
6.04771e-07
4.49373e-06
-1.46022e-08
4.46347e-06
-2.14115e-07
4.45942e-06
-1.72694e-08
4.46887e-06
1.81423e-07
4.47318e-06
3.09657e-07
4.45931e-06
1.90075e-07
4.47431e-06
2.3507e-07
4.46725e-06
3.36599e-07
4.46545e-06
3.06274e-07
4.46843e-06
3.02544e-07
4.47436e-06
3.08008e-07
4.47143e-06
2.92974e-07
4.47239e-06
2.53042e-07
4.47645e-06
2.28387e-07
4.49209e-06
2.02616e-07
1.83849e-07
4.49473e-06
4.64088e-06
-1.95908e-07
4.66124e-06
2.28093e-07
4.63821e-06
-1.72424e-07
4.66572e-06
5.77268e-07
4.66352e-06
-1.24053e-08
4.6352e-06
-1.85792e-07
4.62847e-06
-1.05393e-08
4.63867e-06
1.71215e-07
4.64402e-06
3.04314e-07
4.62693e-06
2.07165e-07
4.6373e-06
2.24699e-07
4.63709e-06
3.36809e-07
4.63704e-06
3.06325e-07
4.6374e-06
3.02178e-07
4.6436e-06
3.01812e-07
4.64107e-06
2.95504e-07
4.64233e-06
2.51788e-07
4.64555e-06
2.25167e-07
4.66243e-06
1.85737e-07
1.81379e-07
4.6649e-06
4.81782e-06
-1.85939e-07
4.83692e-06
2.08989e-07
4.81602e-06
-1.51523e-07
4.84186e-06
5.51426e-07
4.83891e-06
-9.44919e-09
4.81459e-06
-1.61471e-07
4.80255e-06
1.49785e-09
4.81703e-06
1.56736e-07
4.81674e-06
3.046e-07
4.81096e-06
2.12952e-07
4.80799e-06
2.2766e-07
4.8151e-06
3.29707e-07
4.81136e-06
3.10058e-07
4.83189e-06
2.81648e-07
4.85411e-06
2.79598e-07
4.87549e-06
2.74118e-07
4.88135e-06
2.45927e-07
4.87464e-06
2.31878e-07
4.8448e-06
2.15574e-07
1.86297e-07
4.83989e-06
5.00161e-06
-1.76476e-07
5.01907e-06
1.91527e-07
5.00081e-06
-1.33265e-07
5.02425e-06
5.27987e-07
5.02201e-06
-7.20526e-09
4.99848e-06
-1.37947e-07
4.98699e-06
1.29947e-08
4.9976e-06
1.46125e-07
5.00194e-06
3.00258e-07
4.98785e-06
2.27037e-07
4.99093e-06
2.24584e-07
4.9976e-06
3.23032e-07
4.99592e-06
3.11743e-07
4.99684e-06
2.80727e-07
5.00068e-06
2.75754e-07
5.00352e-06
2.71286e-07
5.00167e-06
2.47775e-07
5.00527e-06
2.28272e-07
5.02225e-06
1.98595e-07
1.84104e-07
5.02445e-06
5.19233e-06
-1.67495e-07
5.20842e-06
1.75439e-07
5.19218e-06
-1.17024e-07
5.2145e-06
5.05663e-07
5.21131e-06
-4.01279e-09
5.18979e-06
-1.16426e-07
5.17814e-06
2.46419e-08
5.18465e-06
1.39619e-07
5.19432e-06
2.90582e-07
5.17676e-06
2.44597e-07
5.18103e-06
2.20319e-07
5.18641e-06
3.17648e-07
5.18691e-06
3.11251e-07
5.18512e-06
2.82515e-07
5.1916e-06
2.69276e-07
5.19354e-06
2.6934e-07
5.19842e-06
2.42896e-07
5.20484e-06
2.21849e-07
5.21001e-06
1.93423e-07
1.78794e-07
5.21532e-06
5.39033e-06
-1.59049e-07
5.40505e-06
1.60719e-07
5.39054e-06
-1.02512e-07
5.4127e-06
4.83504e-07
5.40706e-06
1.63025e-09
5.38902e-06
-9.8392e-08
5.37523e-06
3.84384e-08
5.38121e-06
1.33632e-07
5.38927e-06
2.8252e-07
5.37563e-06
2.58244e-07
5.37559e-06
2.20357e-07
5.38348e-06
3.09758e-07
5.38412e-06
3.10613e-07
5.38276e-06
2.8387e-07
5.38828e-06
2.6376e-07
5.39333e-06
2.64284e-07
5.39875e-06
2.3748e-07
5.40422e-06
2.16374e-07
5.40675e-06
1.90895e-07
1.7272e-07
5.41283e-06
5.59587e-06
-1.51182e-07
5.60918e-06
1.47408e-07
5.59632e-06
-8.9648e-08
5.61848e-06
4.6134e-07
5.61059e-06
9.52306e-09
5.59513e-06
-8.29329e-08
5.5803e-06
5.32742e-08
5.58484e-06
1.29084e-07
5.59271e-06
2.7465e-07
5.58148e-06
2.69477e-07
5.57865e-06
2.23187e-07
5.58786e-06
3.00544e-07
5.589e-06
3.09476e-07
5.58869e-06
2.84183e-07
5.593e-06
2.59444e-07
5.60005e-06
2.57244e-07
5.60401e-06
2.33511e-07
5.60799e-06
2.12395e-07
5.61175e-06
1.87141e-07
1.66945e-07
5.61752e-06
5.80915e-06
-1.43855e-07
5.82132e-06
1.35239e-07
5.80959e-06
-7.79153e-08
5.83245e-06
4.38479e-07
5.82184e-06
2.01281e-08
5.80874e-06
-6.98327e-08
5.79317e-06
6.88491e-08
5.79638e-06
1.25875e-07
5.80412e-06
2.66907e-07
5.79498e-06
2.78614e-07
5.79017e-06
2.28005e-07
5.79977e-06
2.9094e-07
5.80198e-06
3.0727e-07
5.80273e-06
2.83425e-07
5.80584e-06
2.56335e-07
5.81347e-06
2.49615e-07
5.8178e-06
2.29181e-07
5.82332e-06
2.06875e-07
5.82504e-06
1.85418e-07
1.62229e-07
5.82976e-06
6.03053e-06
-1.37087e-07
6.04164e-06
1.24134e-07
6.03077e-06
-6.70445e-08
6.05435e-06
4.14892e-07
6.04153e-06
3.29465e-08
6.02986e-06
-5.81608e-08
6.01446e-06
8.4253e-08
6.01581e-06
1.24519e-07
6.02377e-06
2.58951e-07
6.0165e-06
2.8588e-07
6.01038e-06
2.34124e-07
6.01964e-06
2.81686e-07
6.02322e-06
3.0369e-07
6.02485e-06
2.81799e-07
6.02707e-06
2.54107e-07
6.0343e-06
2.42388e-07
6.03801e-06
2.25474e-07
6.04046e-06
2.04425e-07
6.04658e-06
1.79295e-07
1.58603e-07
6.05021e-06
6.26027e-06
-1.30858e-07
6.27042e-06
1.13985e-07
6.2602e-06
-5.68227e-08
6.28442e-06
3.90676e-07
6.27008e-06
4.72777e-08
6.25902e-06
-4.70917e-08
6.24432e-06
9.8945e-08
6.24356e-06
1.25286e-07
6.25176e-06
2.50745e-07
6.24648e-06
2.91163e-07
6.23949e-06
2.4111e-07
6.24798e-06
2.73202e-07
6.25291e-06
2.9876e-07
6.25521e-06
2.79491e-07
6.2569e-06
2.52423e-07
6.26344e-06
2.35849e-07
6.26905e-06
2.19863e-07
6.27603e-06
1.97448e-07
6.27649e-06
1.78833e-07
1.55768e-07
6.27932e-06
6.4987e-06
-1.25153e-07
6.508e-06
1.04686e-07
6.49825e-06
-4.70747e-08
6.52279e-06
3.66139e-07
6.50798e-06
6.20861e-08
6.4965e-06
-3.56167e-08
6.48303e-06
1.12422e-07
6.48019e-06
1.28127e-07
6.48852e-06
2.42407e-07
6.48518e-06
2.94507e-07
6.47779e-06
2.48503e-07
6.48511e-06
2.65874e-07
6.49114e-06
2.92738e-07
6.49402e-06
2.76605e-07
6.49574e-06
2.50709e-07
6.50132e-06
2.30262e-07
6.50606e-06
2.15131e-07
6.50844e-06
1.95063e-07
6.51488e-06
1.72395e-07
1.53208e-07
6.51744e-06
6.74612e-06
-1.19939e-07
6.75464e-06
9.61672e-08
6.74523e-06
-3.76648e-08
6.76996e-06
3.41409e-07
6.75542e-06
7.66314e-08
6.74299e-06
-2.31843e-08
6.73076e-06
1.24649e-07
6.72616e-06
1.32722e-07
6.73422e-06
2.34356e-07
6.73279e-06
2.95928e-07
6.72544e-06
2.55858e-07
6.73146e-06
2.59852e-07
6.73829e-06
2.85909e-07
6.74189e-06
2.73003e-07
6.74393e-06
2.48669e-07
6.74862e-06
2.25574e-07
6.75484e-06
2.08914e-07
6.76103e-06
1.88869e-07
6.76229e-06
1.71133e-07
1.50752e-07
6.76475e-06
7.00289e-06
-1.15183e-07
7.01071e-06
8.83516e-08
7.00155e-06
-2.85023e-08
7.02621e-06
3.16748e-07
7.01261e-06
9.0231e-08
6.99897e-06
-9.54093e-09
6.98775e-06
1.35861e-07
6.98189e-06
1.38581e-07
6.98933e-06
2.26924e-07
6.98981e-06
2.95444e-07
6.98286e-06
2.6281e-07
6.98747e-06
2.55236e-07
6.9948e-06
2.78579e-07
6.99906e-06
2.6875e-07
7.0016e-06
2.46123e-07
7.0054e-06
2.21771e-07
7.01034e-06
2.03974e-07
7.01261e-06
1.86604e-07
7.019e-06
1.64746e-07
1.48156e-07
7.02159e-06
7.26935e-06
-1.10842e-07
7.27644e-06
8.12567e-08
7.26755e-06
-1.96076e-08
7.29195e-06
2.92345e-07
7.28041e-06
1.01777e-07
7.26491e-06
5.95454e-09
7.25448e-06
1.46294e-07
7.24776e-06
1.45294e-07
7.25414e-06
2.20551e-07
7.25639e-06
2.93193e-07
7.25013e-06
2.69067e-07
7.25336e-06
2.52004e-07
7.26104e-06
2.70898e-07
7.26583e-06
2.63961e-07
7.26903e-06
2.42925e-07
7.2722e-06
2.18603e-07
7.27804e-06
1.98129e-07
7.28393e-06
1.80714e-07
7.28562e-06
1.63056e-07
1.45397e-07
7.28838e-06
7.54586e-06
-1.06874e-07
7.55226e-06
7.48569e-08
7.54362e-06
-1.09621e-08
7.56763e-06
2.68333e-07
7.55809e-06
1.11314e-07
7.54066e-06
2.33897e-08
7.53127e-06
1.5568e-07
7.52399e-06
1.52575e-07
7.52919e-06
2.1535e-07
7.53306e-06
2.89327e-07
7.52787e-06
2.74255e-07
7.5298e-06
2.50077e-07
7.53748e-06
2.63219e-07
7.54267e-06
2.58764e-07
7.54652e-06
2.39078e-07
7.54929e-06
2.1583e-07
7.55373e-06
1.93695e-07
7.55624e-06
1.78197e-07
7.56221e-06
1.57092e-07
1.42364e-07
7.56524e-06
7.83277e-06
-1.0319e-07
7.83871e-06
6.89144e-08
7.82986e-06
-2.11098e-09
7.85403e-06
2.44162e-07
7.84365e-06
1.21693e-07
7.82654e-06
4.05051e-08
7.81888e-06
1.63335e-07
7.81094e-06
1.60516e-07
7.81486e-06
2.11432e-07
7.82002e-06
2.84172e-07
7.81616e-06
2.78114e-07
7.81694e-06
2.4929e-07
7.82441e-06
2.55755e-07
7.82996e-06
2.5321e-07
7.83444e-06
2.34595e-07
7.8371e-06
2.13177e-07
7.84188e-06
1.88909e-07
7.8474e-06
1.72678e-07
7.84949e-06
1.55002e-07
1.39116e-07
7.85274e-06
8.13049e-06
-9.97224e-08
8.13605e-06
6.33525e-08
8.12684e-06
7.10297e-09
8.15139e-06
2.19618e-07
8.14723e-06
1.25845e-07
8.13628e-06
5.14555e-08
8.11888e-06
1.80733e-07
8.10864e-06
1.70757e-07
8.11162e-06
2.08454e-07
8.11781e-06
2.77979e-07
8.11547e-06
2.80463e-07
8.11532e-06
2.4944e-07
8.12228e-06
2.48785e-07
8.12818e-06
2.47319e-07
8.13309e-06
2.29682e-07
8.13593e-06
2.10338e-07
8.13946e-06
1.85379e-07
8.14251e-06
1.69621e-07
8.14769e-06
1.49821e-07
1.3574e-07
8.15107e-06
8.4395e-06
-9.64625e-08
8.44391e-06
5.89416e-08
8.4358e-06
1.52112e-08
8.45887e-06
1.9655e-07
8.45476e-06
1.2996e-07
8.43431e-06
7.19038e-08
8.42602e-06
1.89026e-07
8.41827e-06
1.78502e-07
8.42017e-06
2.0656e-07
8.42689e-06
2.71255e-07
8.42605e-06
2.81301e-07
8.42535e-06
2.50142e-07
8.43166e-06
2.42477e-07
8.43776e-06
2.41219e-07
8.44293e-06
2.24516e-07
8.44618e-06
2.07082e-07
8.4497e-06
1.81857e-07
8.45454e-06
1.64787e-07
8.45736e-06
1.46996e-07
1.32224e-07
8.46088e-06
8.7601e-06
-9.3281e-08
8.76393e-06
5.5117e-08
8.75595e-06
2.31856e-08
8.77652e-06
1.75986e-07
8.77095e-06
1.35529e-07
8.75456e-06
8.82919e-08
8.74668e-06
1.96905e-07
8.7395e-06
1.85678e-07
8.7407e-06
2.0536e-07
8.74768e-06
2.64277e-07
8.74847e-06
2.80517e-07
8.74756e-06
2.51046e-07
8.75292e-06
2.37116e-07