/*--------------------------------*- C++ -*----------------------------------*\
| =========                 |                                                 |
| \\      /  F ield         | OpenFOAM: The Open Source CFD Toolbox           |
|  \\    /   O peration     | Version:  v2012                                 |
|   \\  /    A nd           | Website:  www.openfoam.com                      |
|    \\/     M anipulation  |                                                 |
\*---------------------------------------------------------------------------*/
FoamFile
{
    version     2.0;
    format      ascii;
    class       volVectorField;
    location    "6";
    object      U;
}
// * * * * * * * * * * * * * * * * * * * * * * * * * * * * * * * * * * * * * //

dimensions      [0 1 -1 0 0 0 0];


internalField   nonuniform List<vector> 
7000
(
(0.93624 -0.000569715 0)
(1.16144 -0.00179882 0)
(0.597222 0.00162208 0)
(1.46459 0.024155 0)
(0.516994 -0.0184274 0)
(1.27871 -0.00484665 0)
(0.909447 -0.00133335 0)
(1.10729 0.00727429 0)
(0.81718 0.00852614 0)
(1.16305 -0.00132811 0)
(0.856116 0.00862145 0)
(1.17299 0.00619614 0)
(0.84814 0.0140926 0)
(1.15195 0.0115824 0)
(0.830052 0.0184815 0)
(1.13352 0.0150689 0)
(0.832913 0.0166529 0)
(1.11807 0.012795 0)
(0.843991 0.0118214 0)
(1.10212 0.00868545 0)
(0.938231 -0.00107631 0)
(1.15832 0.000134001 0)
(0.605289 -0.000432906 0)
(1.45453 0.0246291 0)
(0.61148 -0.0176188 0)
(1.26992 -0.00779256 0)
(0.932347 4.62253e-05 0)
(1.10943 0.00858211 0)
(0.837042 0.00774578 0)
(1.15566 -0.00142161 0)
(0.872338 0.00814926 0)
(1.15849 0.00664383 0)
(0.86884 0.0140909 0)
(1.12664 0.0121573 0)
(0.863493 0.0186162 0)
(1.09078 0.0151506 0)
(0.887147 0.0170077 0)
(1.05456 0.0122311 0)
(0.921331 0.0128161 0)
(1.01655 0.00739145 0)
(0.942252 -0.00150981 0)
(1.15195 0.0017871 0)
(0.626418 -0.00246571 0)
(1.43331 0.0252398 0)
(0.71692 -0.0169614 0)
(1.24366 -0.00945013 0)
(0.970475 0.00092561 0)
(1.11018 0.00971067 0)
(0.879893 0.00686977 0)
(1.13744 -0.0014898 0)
(0.911032 0.0077377 0)
(1.1284 0.0071123 0)
(0.915728 0.014366 0)
(1.08196 0.0126218 0)
(0.920465 0.0191162 0)
(1.03577 0.0148515 0)
(0.947221 0.0177202 0)
(1.00367 0.0113925 0)
(0.971418 0.0137651 0)
(0.983624 0.00685786 0)
(0.948192 -0.00191206 0)
(1.14167 0.00329573 0)
(0.662189 -0.00419947 0)
(1.39952 0.025187 0)
(0.819646 -0.0161046 0)
(1.19922 -0.0107415 0)
(1.01285 0.00166655 0)
(1.10644 0.010613 0)
(0.936392 0.00645792 0)
(1.10898 -0.00160431 0)
(0.960923 0.00766479 0)
(1.09309 0.00727001 0)
(0.969896 0.0150533 0)
(1.04343 0.0126984 0)
(0.970535 0.0199722 0)
(1.00478 0.0143562 0)
(0.984066 0.0184492 0)
(0.989227 0.0107443 0)
(0.99277 0.0143862 0)
(0.983705 0.00683756 0)
(0.955714 -0.00230457 0)
(1.12725 0.00468157 0)
(0.711183 -0.00581005 0)
(1.35354 0.0245112 0)
(0.906473 -0.0149962 0)
(1.14305 -0.0118196 0)
(1.04784 0.00213195 0)
(1.0989 0.0113883 0)
(0.990361 0.00650671 0)
(1.07777 -0.00175679 0)
(1.00329 0.00779617 0)
(1.06521 0.00719233 0)
(1.01156 0.015885 0)
(1.02674 0.0127289 0)
(1.00273 0.0208133 0)
(1.00183 0.0140698 0)
(1.00326 0.0189425 0)
(0.995921 0.0104272 0)
(1.00247 0.0147733 0)
(0.993371 0.00704394 0)
(0.96421 -0.00266965 0)
(1.10923 0.00587615 0)
(0.768661 -0.00724044 0)
(1.29814 0.0235416 0)
(0.969246 -0.01369 0)
(1.08617 -0.0126684 0)
(1.06679 0.00223419 0)
(1.09017 0.011961 0)
(1.02932 0.00687678 0)
(1.05205 -0.00184125 0)
(1.0272 0.00793023 0)
(1.04836 0.00704669 0)
(1.03426 0.0165586 0)
(1.02708 0.0128746 0)
(1.02093 0.0214381 0)
(1.01223 0.0140111 0)
(1.01448 0.0192964 0)
(1.00719 0.0103504 0)
(1.00821 0.0151356 0)
(1.00182 0.00740575 0)
(0.972867 -0.00298862 0)
(1.08903 0.00681916 0)
(0.827719 -0.00841317 0)
(1.23797 0.0224998 0)
(1.00694 -0.0123047 0)
(1.03914 -0.0132715 0)
(1.0673 0.00197372 0)
(1.08111 0.0122839 0)
(1.04978 0.00745852 0)
(1.03511 -0.00177333 0)
(1.03342 0.00798122 0)
(1.0382 0.00687113 0)
(1.04119 0.0169492 0)
(1.03203 0.0130159 0)
(1.03011 0.0218729 0)
(1.02283 0.0140613 0)
(1.02118 0.0196752 0)
(1.0151 0.0104712 0)
(1.01132 0.0155881 0)
(1.0061 0.00794269 0)
(0.98085 -0.0032509 0)
(1.0688 0.00749366 0)
(0.881589 -0.00929921 0)
(1.17841 0.0215277 0)
(1.02408 -0.0109687 0)
(1.00739 -0.0136354 0)
(1.05345 0.0014225 0)
(1.07026 0.0123659 0)
(1.0551 0.00813872 0)
(1.0254 -0.00154732 0)
(1.02886 0.00797568 0)
(1.02976 0.0066418 0)
(1.03811 0.0170863 0)
(1.0334 0.0130352 0)
(1.03247 0.0222006 0)
(1.0277 0.0141528 0)
(1.02342 0.0201435 0)
(1.01775 0.0107583 0)
(1.01172 0.0161295 0)
(1.00669 0.00861337 0)
(0.987534 -0.00345411 0)
(1.05068 0.00791917 0)
(0.925749 -0.00990781 0)
(1.12443 0.0207291 0)
(1.02753 -0.00979503 0)
(0.990269 -0.0137856 0)
(1.03282 0.000721942 0)
(1.05627 0.0122355 0)
(1.05089 0.00879504 0)
(1.01982 -0.00122051 0)
(1.02034 0.00798119 0)
(1.02126 0.00637363 0)
(1.02988 0.0170727 0)
(1.02921 0.0129227 0)
(1.02917 0.0224646 0)
(1.02622 0.0142502 0)
(1.02137 0.0206627 0)
(1.01605 0.0111432 0)
(1.00981 0.0166835 0)
(1.00507 0.00933074 0)
(0.992659 -0.00360341 0)
(1.0361 0.00813743 0)
(0.958681 -0.0102669 0)
(1.07965 0.0201446 0)
(1.02385 -0.00885099 0)
(0.983454 -0.0137646 0)
(1.01274 2.85085e-05 0)
(1.03987 0.0119318 0)
(1.04212 0.00932681 0)
(1.0162 -0.000861704 0)
(1.01197 0.00805107 0)
(1.01325 0.00611558 0)
(1.01995 0.0170161 0)
(1.02108 0.0127248 0)
(1.02191 0.0226707 0)
(1.02026 0.0143202 0)
(1.01625 0.0211435 0)
(1.01184 0.0115544 0)
(1.00658 0.017162 0)
(1.00262 0.0100136 0)
(0.99632 -0.0037088 0)
(1.02537 0.00819827 0)
(0.981286 -0.0104148 0)
(1.04573 0.0197549 0)
(1.01784 -0.00814647 0)
(0.982225 -0.0136289 0)
(0.997631 -0.000549362 0)
(1.02355 0.0115082 0)
(1.0322 0.00968089 0)
(1.0136 -0.000522185 0)
(1.00532 0.0082023 0)
(1.00664 0.00590654 0)
(1.01059 0.0169929 0)
(1.01162 0.0124968 0)
(1.01295 0.0228122 0)
(1.01242 0.0143453 0)
(1.00987 0.0215001 0)
(1.00691 0.0119349 0)
(1.0031 0.0175038 0)
(1.00029 0.0106145 0)
(0.998825 -0.00378119 0)
(1.01787 0.00814875 0)
(0.995718 -0.0103988 0)
(1.02231 0.019513 0)
(1.01226 -0.00764985 0)
(0.983268 -0.0134303 0)
(0.988558 -0.000969449 0)
(1.00996 0.011028 0)
(1.02317 0.00985593 0)
(1.01168 -0.000231081 0)
(1.00058 0.00842402 0)
(1.00179 0.00575832 0)
(1.00312 0.0170424 0)
(1.00306 0.0122847 0)
(1.00444 0.0228904 0)
(1.00494 0.0143255 0)
(1.00387 0.0216847 0)
(1.00258 0.012255 0)
(1.00016 0.0176809 0)
(0.998619 0.011112 0)
(1.00052 -0.00382908 0)
(1.01258 0.0080261 0)
(1.00433 -0.0102665 0)
(1.00753 0.0193685 0)
(1.00819 -0.00730623 0)
(0.98492 -0.0132122 0)
(0.984351 -0.00124763 0)
(1.0005 0.0105441 0)
(1.01602 0.00988648 0)
(1.01029 7.29707e-06 0)
(0.997468 0.00869765 0)
(0.998487 0.0056647 0)
(0.997984 0.0171677 0)
(0.996692 0.0121209 0)
(0.997798 0.0229087 0)
(0.999201 0.0142764 0)
(0.999306 0.0216919 0)
(0.999531 0.0125143 0)
(0.998218 0.0176996 0)
(0.997769 0.0115091 0)
(1.00166 -0.00385725 0)
(1.00857 0.00785662 0)
(1.00905 -0.0100595 0)
(0.998989 0.0192794 0)
(1.00577 -0.00706347 0)
(0.9866 -0.0129984 0)
(0.983124 -0.0014207 0)
(0.994948 0.0100862 0)
(1.01087 0.0098221 0)
(1.00922 0.000195962 0)
(0.995631 0.00900823 0)
(0.996321 0.00561156 0)
(0.995007 0.0173417 0)
(0.992874 0.012022 0)
(0.993592 0.0228632 0)
(0.995703 0.0142262 0)
(0.996574 0.0215421 0)
(0.997938 0.0127296 0)
(0.997348 0.017595 0)
(0.997691 0.0118281 0)
(1.00237 -0.00386741 0)
(1.00528 0.00765792 0)
(1.01117 -0.0098099 0)
(0.994506 0.0192138 0)
(1.00474 -0.00688048 0)
(0.9882 -0.0127954 0)
(0.983271 -0.00152337 0)
(0.992145 0.00966305 0)
(1.00736 0.00970822 0)
(1.00825 0.000335649 0)
(0.994767 0.0093433 0)
(0.994958 0.00558519 0)
(0.993695 0.0175224 0)
(0.99131 0.0119871 0)
(0.991696 0.0227496 0)
(0.994295 0.0141993 0)
(0.995567 0.0212671 0)
(0.997614 0.012922 0)
(0.997408 0.0174097 0)
(0.998207 0.0120952 0)
(1.00273 -0.00385972 0)
(1.0025 0.00744222 0)
(1.01146 -0.00954021 0)
(0.992536 0.0191467 0)
(1.00482 -0.00672772 0)
(0.989712 -0.0125995 0)
(0.983788 -0.00157843 0)
(0.990793 0.00926992 0)
(1.00492 0.00957554 0)
(1.00722 0.000433934 0)
(0.994592 0.00968912 0)
(0.994201 0.00557764 0)
(0.993474 0.0176693 0)
(0.991389 0.0120042 0)
(0.991614 0.0225689 0)
(0.994493 0.0142106 0)
(0.995914 0.0209019 0)
(0.99822 0.0131101 0)
(0.998145 0.0171806 0)
(0.999101 0.0123306 0)
(1.00276 -0.00383448 0)
(1.00029 0.00721896 0)
(1.01039 -0.00926517 0)
(0.99217 0.0190573 0)
(1.00576 -0.00658469 0)
(0.99111 -0.0124007 0)
(0.984198 -0.00159501 0)
(0.989972 0.00889785 0)
(1.00313 0.0094416 0)
(1.006 0.000492994 0)
(0.994828 0.0100283 0)
(0.993942 0.00558882 0)
(0.993852 0.017749 0)
(0.992433 0.012062 0)
(0.992741 0.0223175 0)
(0.995718 0.0142695 0)
(0.997165 0.0204821 0)
(0.999393 0.0133068 0)
(0.999287 0.0169417 0)
(1.00017 0.0125557 0)
(1.00253 -0.00379299 0)
(0.998688 0.00699606 0)
(1.00834 -0.00899414 0)
(0.992914 0.0189274 0)
(1.00731 -0.00643668 0)
(0.992348 -0.0121865 0)
(0.984378 -0.00157548 0)
(0.989248 0.00853844 0)
(1.00173 0.00931438 0)
(1.0046 0.000514017 0)
(0.995211 0.0103424 0)
(0.994078 0.00562484 0)
(0.994477 0.0177406 0)
(0.993846 0.0121474 0)
(0.994492 0.0219915 0)
(0.997421 0.014377 0)
(0.998874 0.0200389 0)
(1.0008 0.0135214 0)
(1.00058 0.016721 0)
(1.00126 0.0127869 0)
(1.00216 -0.00373763 0)
(0.997683 0.00678001 0)
(1.00572 -0.008733 0)
(0.99443 0.0187419 0)
(1.00922 -0.00627193 0)
(0.993397 -0.0119483 0)
(0.984402 -0.00152082 0)
(0.98855 0.00818314 0)
(1.00067 0.00919765 0)
(1.00313 0.000503014 0)
(0.99553 0.010612 0)
(0.994476 0.00569168 0)
(0.995148 0.0176437 0)
(0.995198 0.0122456 0)
(0.996361 0.0215897 0)
(0.999143 0.0145265 0)
(1.00064 0.0195969 0)
(1.00217 0.0137555 0)
(1.00182 0.0165324 0)
(1.00223 0.013029 0)
(1.00181 -0.0036713 0)
(0.997123 0.00657522 0)
(1.00295 -0.0084852 0)
(0.996378 0.0184914 0)
(1.01117 -0.00608225 0)
(0.994262 -0.0116813 0)
(0.984417 -0.00143494 0)
(0.987968 0.00782564 0)
(0.999927 0.00909201 0)
(1.00177 0.000471517 0)
(0.995671 0.0108224 0)
(0.99498 0.00579103 0)
(0.995772 0.0174698 0)
(0.996252 0.0123559 0)
(0.997973 0.0211151 0)
(1.00056 0.0146997 0)
(1.00213 0.0191691 0)
(1.00328 0.0139989 0)
(1.00285 0.0163826 0)
(1.003 0.0132858 0)
(1.00156 -0.00359667 0)
(0.996814 0.00638352 0)
(1.00042 -0.00825188 0)
(0.99839 0.018174 0)
(1.01289 -0.0058631 0)
(0.994975 -0.0113856 0)
(0.984557 -0.00132084 0)
(0.987607 0.0074635 0)
(0.999473 0.00899427 0)
(1.00069 0.000434802 0)
(0.995631 0.0109675 0)
(0.995452 0.0059237 0)
(0.996325 0.0172245 0)
(0.996955 0.012491 0)
(0.999123 0.0205896 0)
(1.00152 0.0148793 0)
(1.00318 0.0187598 0)
(1.00404 0.014233 0)
(1.00357 0.0162618 0)
(1.00353 0.0135547 0)
(1.00148 -0.00351585 0)
(0.996615 0.00620431 0)
(0.998354 -0.0080316 0)
(1.00014 0.0177943 0)
(1.01418 -0.00561267 0)
(0.995576 -0.0110673 0)
(0.984891 -0.00118341 0)
(0.987508 0.00709804 0)
(0.9992 0.00890067 0)
(0.999944 0.000405329 0)
(0.995484 0.0110463 0)
(0.995806 0.00609875 0)
(0.996799 0.0169125 0)
(0.997373 0.0126448 0)
(0.999784 0.0200373 0)
(1.00202 0.0150652 0)
(1.00375 0.0183839 0)
(1.00443 0.0144552 0)
(1.00399 0.0161508 0)
(1.00382 0.0138147 0)
(1.00152 -0.00343038 0)
(0.996482 0.00603516 0)
(0.996816 -0.00782055 0)
(1.00145 0.017361 0)
(1.01495 -0.00533363 0)
(0.996092 -0.0107339 0)
(0.985422 -0.00103023 0)
(0.987652 0.0067305 0)
(0.998982 0.00881094 0)
(0.999469 0.000393599 0)
(0.995314 0.0110571 0)
(0.996016 0.00631559 0)
(0.997179 0.016556 0)
(0.997607 0.0128164 0)
(1.00005 0.0194596 0)
(1.00217 0.0152377 0)
(1.00392 0.0180467 0)
(1.00453 0.0146757 0)
(1.00416 0.0160564 0)
(1.00391 0.0140552 0)
(1.00161 -0.00334158 0)
(0.996444 0.00587322 0)
(0.995722 -0.00761354 0)
(1.00227 0.0168851 0)
(1.01522 -0.00503241 0)
(0.996531 -0.0103914 0)
(0.986112 -0.000864746 0)
(0.987999 0.00636781 0)
(0.998728 0.00871409 0)
(0.999134 0.000413974 0)
(0.995165 0.0110091 0)
(0.996101 0.00655697 0)
(0.997451 0.016158 0)
(0.997739 0.0130242 0)
(1.00008 0.018892 0)
(1.0021 0.0153727 0)
(1.00385 0.0177221 0)
(1.00443 0.0148738 0)
(1.00417 0.0159783 0)
(1.00387 0.0142788 0)
(1.00169 -0.00325082 0)
(0.996542 0.00571621 0)
(0.99495 -0.00740509 0)
(1.00272 0.0163758 0)
(1.01506 -0.00471342 0)
(0.996891 -0.0100474 0)
(0.986911 -0.000697295 0)
(0.98852 0.00603011 0)
(0.998416 0.00860469 0)
(0.998827 0.000461237 0)
(0.995024 0.0109108 0)
(0.996086 0.00683563 0)
(0.997613 0.0157169 0)
(0.997814 0.0132325 0)
(0.999976 0.0183603 0)
(1.00195 0.0154997 0)
(1.00367 0.0174189 0)
(1.00424 0.0150348 0)
(1.00409 0.0159049 0)
(1.00376 0.0144775 0)
(1.00171 -0.00315947 0)
(0.996787 0.00556214 0)
(0.994398 -0.00718981 0)
(1.00291 0.0158403 0)
(1.01457 -0.00438116 0)
(0.997172 -0.00970965 0)
(0.987777 -0.000531091 0)
(0.98919 0.00570861 0)
(0.998077 0.00850066 0)
(0.998499 0.000543656 0)
(0.99486 0.0107533 0)
(0.995992 0.00714534 0)
(0.997675 0.0152655 0)
(0.997847 0.013442 0)
(0.999834 0.0178363 0)
(1.00177 0.0155963 0)
(1.00345 0.0171545 0)
(1.00404 0.0151552 0)
(1.00398 0.0158257 0)
(1.00364 0.0146582 0)
(1.00165 -0.00306821 0)
(0.997158 0.00540881 0)
(0.994011 -0.00696495 0)
(1.00296 0.0152874 0)
(1.01384 -0.00404061 0)
(0.997383 -0.00938154 0)
(0.988663 -0.000371616 0)
(0.98998 0.00542721 0)
(0.997763 0.00835748 0)
(0.998159 0.000692714 0)
(0.994659 0.0105412 0)
(0.995834 0.00748632 0)
(0.997663 0.0147717 0)
(0.99784 0.0136544 0)
(0.999681 0.0173634 0)
(1.00161 0.0156516 0)
(1.00325 0.0169301 0)
(1.00386 0.0152441 0)
(1.00389 0.0156953 0)
(1.00354 0.0147841 0)
(1.00152 -0.00297789 0)
(0.99762 0.00525534 0)
(0.993763 -0.00672833 0)
(1.00293 0.014721 0)
(1.01294 -0.00368984 0)
(0.997539 -0.0090596 0)
(0.989528 -0.000248532 0)
(0.990837 0.00521031 0)
(0.997514 0.00820979 0)
(0.997848 0.000850471 0)
(0.99444 0.0103082 0)
(0.995626 0.00781661 0)
(0.997601 0.0143308 0)
(0.997814 0.0137626 0)
(0.999532 0.0169535 0)
(1.00149 0.0156482 0)
(1.00308 0.0167724 0)
(1.00372 0.0153405 0)
(1.0038 0.0155669 0)
(1.00348 0.0148743 0)
(1.00131 -0.00288897 0)
(0.998143 0.00509761 0)
(0.993646 -0.00647227 0)
(1.00284 0.0141373 0)
(1.01195 -0.00333168 0)
(0.997655 -0.00876493 0)
(0.990333 -0.000109915 0)
(0.9917 0.00495389 0)
(0.99734 0.00813313 0)
(0.997598 0.00102424 0)
(0.994241 0.0100571 0)
(0.995406 0.00812545 0)
(0.997513 0.0139025 0)
(0.997771 0.0138868 0)
(0.999391 0.016571 0)
(1.00141 0.0156181 0)
(1.00294 0.0165847 0)
(1.00362 0.0154688 0)
(1.00374 0.0154203 0)
(1.00345 0.0149203 0)
(1.00103 -0.00280291 0)
(0.9987 0.00494051 0)
(0.993652 -0.00621314 0)
(1.0027 0.0135686 0)
(1.01095 -0.00299258 0)
(0.997742 -0.00844937 0)
(0.991042 -6.17316e-05 0)
(0.992501 0.00486193 0)
(0.997242 0.00788051 0)
(0.997418 0.00136903 0)
(0.994105 0.00968645 0)
(0.9952 0.00852848 0)
(0.997434 0.0133581 0)
(0.997742 0.0140418 0)
(0.999261 0.0161365 0)
(1.00135 0.0156476 0)
(1.00283 0.016327 0)
(1.00353 0.0156601 0)
(1.00366 0.0153102 0)
(1.00345 0.0149192 0)
(1.00071 -0.00271394 0)
(0.999255 0.00476952 0)
(0.993774 -0.00592698 0)
(1.00252 0.0129825 0)
(1.01 -0.00262539 0)
(0.997805 -0.00817204 0)
(0.991646 9.07274e-06 0)
(0.993192 0.00470559 0)
(0.997197 0.00777511 0)
(0.99731 0.00157925 0)
(0.994058 0.00944624 0)
(0.995049 0.00876649 0)
(0.997379 0.0130088 0)
(0.997738 0.0140319 0)
(0.999164 0.0158084 0)
(1.00133 0.0155319 0)
(1.00275 0.0160964 0)
(1.00347 0.0157005 0)
(1.00358 0.0153078 0)
(1.00345 0.0149993 0)
(1.00036 -0.00263452 0)
(0.999768 0.00460364 0)
(0.994002 -0.00562945 0)
(1.00228 0.0124089 0)
(1.00917 -0.00229997 0)
(0.997856 -0.00784401 0)
(0.992136 -8.51608e-06 0)
(0.993759 0.00463005 0)
(0.997179 0.00760222 0)
(0.997254 0.00188544 0)
(0.994104 0.00913709 0)
(0.994971 0.00905094 0)
(0.997386 0.0126209 0)
(0.99777 0.0139919 0)
(0.999097 0.0155996 0)
(1.00132 0.0153712 0)
(1.00273 0.0159038 0)
(1.00345 0.0156325 0)
(1.00355 0.0152648 0)
(1.00346 0.0150133 0)
(1.00002 -0.00255235 0)
(1.0002 0.00442667 0)
(0.994322 -0.00532831 0)
(1.00201 0.0118606 0)
(1.00847 -0.00198075 0)
(0.997887 -0.00753371 0)
(0.992547 -1.92643e-05 0)
(0.994187 0.00457676 0)
(0.99717 0.00739165 0)
(0.997237 0.00223639 0)
(0.994236 0.00886951 0)
(0.994971 0.00919358 0)
(0.997443 0.0123588 0)
(0.997872 0.0137578 0)
(0.999086 0.0154955 0)
(1.00134 0.01514 0)
(1.00273 0.0157908 0)
(1.00343 0.0155307 0)
(1.00352 0.0152913 0)
(1.00348 0.0150212 0)
(0.999721 -0.00245713 0)
(1.00052 0.00421042 0)
(0.994714 -0.00497507 0)
(1.00171 0.0112564 0)
(1.00791 -0.00162054 0)
(0.997915 -0.0072607 0)
(0.992886 2.36986e-05 0)
(0.994509 0.00439807 0)
(0.997158 0.00739576 0)
(0.997244 0.0023342 0)
(0.99442 0.00884552 0)
(0.995048 0.00923437 0)
(0.99757 0.012185 0)
(0.998025 0.0135777 0)
(0.999125 0.0152664 0)
(1.00138 0.014963 0)
(1.00279 0.0155816 0)
(1.00346 0.0155352 0)
(1.00355 0.0153379 0)
(1.00349 0.0150338 0)
(0.999479 -0.00239236 0)
(1.00071 0.00404727 0)
(0.995154 -0.00467074 0)
(1.0014 0.0107503 0)
(1.00748 -0.00140015 0)
(0.997928 -0.00681527 0)
(0.993208 -0.000150134 0)
(0.994746 0.00454268 0)
(0.997118 0.00700669 0)
(0.997265 0.00288718 0)
(0.994669 0.00823003 0)
(0.995157 0.00981428 0)
(0.997753 0.0114612 0)
(0.998206 0.013866 0)
(0.999221 0.0147457 0)
(1.00147 0.0151561 0)
(1.00292 0.0151646 0)
(1.00354 0.0157323 0)
(1.00357 0.0152314 0)
(1.00349 0.0148666 0)
(0.999302 -0.00230258 0)
(1.00079 0.00383592 0)
(0.995604 -0.00433825 0)
(1.00111 0.0102417 0)
(1.00715 -0.00114908 0)
(0.997953 -0.00645084 0)
(0.993516 -0.000183265 0)
(0.994928 0.00440899 0)
(0.997093 0.00691437 0)
(0.997264 0.00308395 0)
(0.994948 0.00812136 0)
(0.995303 0.00978633 0)
(0.997974 0.0112834 0)
(0.99845 0.0135118 0)
(0.999341 0.0147722 0)
(1.00154 0.0149136 0)
(1.00302 0.0150882 0)
(1.00361 0.0154926 0)
(1.00353 0.0152226 0)
(1.00348 0.0148588 0)
(0.999191 -0.00219922 0)
(1.00078 0.00357675 0)
(0.996034 -0.00393796 0)
(1.00086 0.00962399 0)
(1.00688 -0.000814051 0)
(0.997983 -0.00614891 0)
(0.993824 -0.00016855 0)
(0.995112 0.00416812 0)
(0.997024 0.00709213 0)
(0.997309 0.00295058 0)
(0.995221 0.00832012 0)
(0.995461 0.00956876 0)
(0.998193 0.0113926 0)
(0.998718 0.0129737 0)
(0.999507 0.0148883 0)
(1.00164 0.0146486 0)
(1.00319 0.0150517 0)
(1.00372 0.0152061 0)
(1.00361 0.015197 0)
(1.00346 0.0148737 0)
(0.99914 -0.00214029 0)
(1.0007 0.00341832 0)
(0.996429 -0.00364988 0)
(1.00065 0.00921835 0)
(1.00664 -0.000744369 0)
(0.998014 -0.00556784 0)
(0.99415 -0.000368007 0)
(0.995295 0.00438463 0)
(0.996956 0.00660126 0)
(0.997322 0.00362557 0)
(0.995517 0.00752481 0)
(0.995635 0.010281 0)
(0.998416 0.0105916 0)
(0.998996 0.0132553 0)
(0.999683 0.0143936 0)
(1.0017 0.0150207 0)
(1.00331 0.0146631 0)
(1.0038 0.0152817 0)
(1.00365 0.014987 0)
(1.00343 0.014699 0)
(0.999129 -0.00204385 0)
(1.00059 0.0031902 0)
(0.99677 -0.00332319 0)
(1.00049 0.00876573 0)
(1.0064 -0.000584212 0)
(0.998049 -0.00514143 0)
(0.994487 -0.00040454 0)
(0.99548 0.00419987 0)
(0.996908 0.00663971 0)
(0.997339 0.00362715 0)
(0.995825 0.00747496 0)
(0.995793 0.0102018 0)
(0.998611 0.0106064 0)
(0.999315 0.0128376 0)
(0.999883 0.014374 0)
(1.00174 0.0147229 0)
(1.00336 0.0145853 0)
(1.00386 0.0148587 0)
(1.0036 0.0150148 0)
(1.00335 0.0148698 0)
(0.999148 -0.00192855 0)
(1.00048 0.00290283 0)
(0.997048 -0.0029177 0)
(1.00039 0.00818064 0)
(1.00616 -0.000306349 0)
(0.998095 -0.0048416 0)
(0.994799 -0.000280688 0)
(0.99573 0.00371215 0)
(0.996835 0.00705146 0)
(0.997377 0.00334084 0)
(0.996123 0.00778248 0)
(0.995989 0.00976456 0)
(0.998783 0.0109493 0)
(0.999594 0.012199 0)
(1.00006 0.0145626 0)
(1.00178 0.0143973 0)
(1.00345 0.0145694 0)
(1.00397 0.0144614 0)
(1.00376 0.0148843 0)
(1.0033 0.0149039 0)
(0.999195 -0.00188098 0)
(1.00037 0.00278119 0)
(0.997289 -0.00270341 0)
(1.00032 0.00791277 0)
(1.00592 -0.000401587 0)
(0.998116 -0.00414471 0)
(0.995121 -0.000516662 0)
(0.995994 0.00405253 0)
(0.996779 0.00643567 0)
(0.997415 0.00414244 0)
(0.99644 0.00676671 0)
(0.996168 0.0105136 0)
(0.998951 0.0102106 0)
(0.999913 0.012588 0)
(1.0003 0.0139946 0)
(1.00181 0.0149059 0)
(1.00348 0.0142329 0)
(1.00402 0.0147128 0)
(1.00382 0.0144989 0)
(1.00324 0.0146244 0)
(0.999247 -0.00177706 0)
(1.00027 0.0025424 0)
(0.997486 -0.00239925 0)
(1.00029 0.00748744 0)
(1.00566 -0.000272583 0)
(0.998141 -0.00378843 0)
(0.995438 -0.000392534 0)
(0.996253 0.00372251 0)
(0.996772 0.0065467 0)
(0.99741 0.00418588 0)
(0.996781 0.00659731 0)
(0.996399 0.0103601 0)
(0.999091 0.0103183 0)
(1.00021 0.0120894 0)
(1.00052 0.013839 0)
(1.00182 0.0146235 0)
(1.00344 0.0143265 0)
(1.00402 0.0144213 0)
(1.00378 0.0145345 0)
(1.00319 0.0148424 0)
(0.999303 -0.00165978 0)
(1.0002 0.00227052 0)
(0.997642 -0.00204694 0)
(1.0003 0.00701054 0)
(1.00539 -0.000109689 0)
(0.998166 -0.00343447 0)
(0.995702 -0.000233075 0)
(0.996575 0.00317136 0)
(0.996753 0.00692134 0)
(0.997455 0.00401953 0)
(0.997108 0.00689146 0)
(0.996633 0.0097783 0)
(0.999211 0.010777 0)
(1.00052 0.0113078 0)
(1.00081 0.0138391 0)
(1.00191 0.0142542 0)
(1.00348 0.0144527 0)
(1.00409 0.0141717 0)
(1.004 0.0144378 0)
(1.00317 0.0148414 0)
(0.999374 -0.00164004 0)
(1.00013 0.00221875 0)
(0.997791 -0.00193077 0)
(1.00031 0.00687569 0)
(1.00515 -0.000270042 0)
(0.998166 -0.00281795 0)
(0.995972 -0.000348253 0)
(0.996887 0.00351297 0)
(0.996773 0.00625011 0)
(0.997457 0.0049504 0)
(0.997446 0.00590216 0)
(0.996924 0.0104222 0)
(0.999335 0.0102551 0)
(1.00079 0.0116756 0)
(1.00112 0.0129618 0)
(1.00201 0.0146404 0)
(1.0035 0.0139469 0)
(1.00409 0.0147024 0)
(1.00406 0.014009 0)
(1.00318 0.0144296 0)
(0.999431 -0.00150618 0)
(1.00007 0.00193804 0)
(0.997927 -0.00162435 0)
(1.00032 0.00646865 0)
(1.0049 -0.000140411 0)
(0.998174 -0.00253245 0)
(0.996227 -5.62317e-05 0)
(0.997175 0.0030721 0)
(0.996855 0.00636811 0)
(0.997454 0.00507983 0)
(0.997798 0.00594182 0)
(0.997226 0.0102197 0)
(0.999429 0.0104372 0)
(1.00103 0.0113073 0)
(1.00145 0.0125727 0)
(1.00213 0.0140636 0)
(1.00354 0.0138034 0)
(1.00409 0.0144053 0)
(1.00396 0.0141827 0)
(1.00317 0.0146719 0)
(0.999477 -0.00143392 0)
(1.00004 0.00177095 0)
(0.998047 -0.00140559 0)
(1.00036 0.00613439 0)
(1.00465 -3.95627e-05 0)
(0.998196 -0.002238 0)
(0.996418 0.000205047 0)
(0.997514 0.0026269 0)
(0.996941 0.0065874 0)
(0.997466 0.00506551 0)
(0.998127 0.00617768 0)
(0.997577 0.00962514 0)
(0.99953 0.010945 0)
(1.00122 0.0107741 0)
(1.00174 0.0124063 0)
(1.00231 0.0132748 0)
(1.00365 0.0136967 0)
(1.00422 0.013881 0)
(1.00421 0.0143704 0)
(1.00318 0.0149125 0)
(0.999539 -0.0014032 0)
(1 0.00171943 0)
(0.998177 -0.00132885 0)
(1.00038 0.00601136 0)
(1.00441 -0.000139598 0)
(0.998205 -0.00181907 0)
(0.996628 0.000260042 0)
(0.997812 0.00269791 0)
(0.997074 0.00616418 0)
(0.997463 0.00569465 0)
(0.998436 0.00578287 0)
(0.99797 0.00978959 0)
(0.999636 0.0107195 0)
(1.00137 0.0109246 0)
(1.00203 0.0117651 0)
(1.0025 0.0132003 0)
(1.00378 0.0133586 0)
(1.00438 0.0139832 0)
(1.00439 0.0141099 0)
(1.0032 0.0145484 0)
(0.999589 -0.00126746 0)
(0.999972 0.00145643 0)
(0.998317 -0.00107743 0)
(1.00039 0.00566481 0)
(1.00418 -2.3189e-05 0)
(0.998226 -0.00156082 0)
(0.996809 0.000507101 0)
(0.998117 0.00253156 0)
(0.997259 0.0060593 0)
(0.997464 0.00595902 0)
(0.998752 0.00585226 0)
(0.998369 0.00959879 0)
(0.999753 0.0106597 0)
(1.00148 0.0109663 0)
(1.0023 0.0114294 0)
(1.00275 0.0130422 0)
(1.00394 0.0132961 0)
(1.00451 0.0139053 0)
(1.00448 0.0138426 0)
(1.0032 0.014055 0)
(0.999632 -0.00125752 0)
(0.999952 0.00140947 0)
(0.998453 -0.000992042 0)
(1.00041 0.00542054 0)
(1.00395 8.04678e-05 0)
(0.998255 -0.00130967 0)
(0.996985 0.00075739 0)
(0.998412 0.00250102 0)
(0.997467 0.00582103 0)
(0.997489 0.00628003 0)
(0.99902 0.00594518 0)
(0.998774 0.00920253 0)
(0.999908 0.0106432 0)
(1.00158 0.0109414 0)
(1.00257 0.0112489 0)
(1.00303 0.0127997 0)
(1.0041 0.0132223 0)
(1.00461 0.0136871 0)
(1.00452 0.0135502 0)
(1.00319 0.0135633 0)
(0.999669 -0.00116858 0)
(0.999933 0.00127354 0)
(0.998592 -0.00085338 0)
(1.00042 0.00520479 0)
(1.00373 0.000174375 0)
(0.998295 -0.00113077 0)
(0.997146 0.00104439 0)
(0.998689 0.00233051 0)
(0.997717 0.00566484 0)
(0.997532 0.00657033 0)
(0.999251 0.00601969 0)
(0.999195 0.00891115 0)
(1.0001 0.0105967 0)
(1.00166 0.0109351 0)
(1.00282 0.0111323 0)
(1.00333 0.0125124 0)
(1.00427 0.0130257 0)
(1.00468 0.01333 0)
(1.0045 0.0131913 0)
(1.00316 0.0130832 0)
(0.999702 -0.00112114 0)
(0.999918 0.00116674 0)
(0.998735 -0.000741526 0)
(1.00044 0.00490183 0)
(1.0035 0.000330925 0)
(0.998349 -0.000927817 0)
(0.9973 0.00128873 0)
(0.998962 0.00231239 0)
(0.998003 0.0055472 0)
(0.997588 0.00675498 0)
(0.999451 0.0061461 0)
(0.999619 0.00862144 0)
(1.00033 0.0104744 0)
(1.00174 0.0109077 0)
(1.00303 0.0111193 0)
(1.00361 0.012167 0)
(1.00442 0.0127367 0)
(1.00473 0.0129422 0)
(1.00448 0.0128925 0)
(1.00315 0.0127607 0)
(0.999734 -0.00107011 0)
(0.999902 0.00107607 0)
(0.998871 -0.000633157 0)
(1.00046 0.00463247 0)
(1.00329 0.000534913 0)
(0.998404 -0.000765919 0)
(0.997452 0.00151202 0)
(0.999217 0.00230766 0)
(0.9983 0.00534795 0)
(0.997665 0.00687826 0)
(0.999621 0.00634833 0)
(1.00004 0.00835891 0)
(1.0006 0.0103271 0)
(1.00186 0.0108907 0)
(1.00321 0.0110756 0)
(1.00387 0.0117484 0)
(1.00458 0.012389 0)
(1.0048 0.0125837 0)
(1.00449 0.0126684 0)
(1.00315 0.0125441 0)
(0.999765 -0.00101885 0)
(0.999887 0.000986952 0)
(0.99901 -0.000529112 0)
(1.00049 0.00434691 0)
(1.00308 0.000706448 0)
(0.998468 -0.000618235 0)
(0.997601 0.00176009 0)
(0.999458 0.00234622 0)
(0.998625 0.00518877 0)
(0.997784 0.00699839 0)
(0.999768 0.0065725 0)
(1.00044 0.00809965 0)
(1.00091 0.0101306 0)
(1.00198 0.0108011 0)
(1.00333 0.0109524 0)
(1.00409 0.0113824 0)
(1.00477 0.0120673 0)
(1.00492 0.0123199 0)
(1.00454 0.0124788 0)
(1.00314 0.0123624 0)
(0.999795 -0.000980426 0)
(0.999869 0.000910825 0)
(0.999138 -0.000440962 0)
(1.00052 0.00406296 0)
(1.00289 0.000908741 0)
(0.998541 -0.000428194 0)
(0.997755 0.00197111 0)
(0.99968 0.00242591 0)
(0.998957 0.00500304 0)
(0.997923 0.00703583 0)
(0.999878 0.00674554 0)
(1.00081 0.00788717 0)
(1.00124 0.0099049 0)
(1.00213 0.0106766 0)
(1.00344 0.0108953 0)
(1.0043 0.0111794 0)
(1.00499 0.0118026 0)
(1.00506 0.0120837 0)
(1.00459 0.0122291 0)
(1.00312 0.0121647 0)
(0.999824 -0.00093387 0)
(0.999853 0.000828913 0)
(0.999268 -0.000332344 0)
(1.00055 0.00377861 0)
(1.00271 0.00109374 0)
(0.998613 -0.00025263 0)
(0.997905 0.00212828 0)
(0.999885 0.0025069 0)
(0.999304 0.00485186 0)
(0.998105 0.00708046 0)
(0.999987 0.0069723 0)
(1.00116 0.00775827 0)
(1.00159 0.00964979 0)
(1.00231 0.0104894 0)
(1.00355 0.0108088 0)
(1.00448 0.0109835 0)
(1.00518 0.0114512 0)
(1.00518 0.0117595 0)
(1.00466 0.0118959 0)
(1.00312 0.0119299 0)
(0.999853 -0.000909569 0)
(0.999834 0.000776431 0)
(0.999384 -0.000254696 0)
(1.00058 0.00347411 0)
(1.00255 0.00126115 0)
(0.998693 -1.63682e-05 0)
(0.998065 0.00231681 0)
(1.00008 0.00262866 0)
(0.999657 0.00469392 0)
(0.998315 0.00703321 0)
(1.00006 0.00715569 0)
(1.00146 0.00763995 0)
(1.00195 0.00937112 0)
(1.00251 0.0103087 0)
(1.00367 0.010721 0)
(1.00462 0.0108446 0)
(1.00537 0.0111481 0)
(1.00535 0.0115121 0)
(1.00477 0.0116138 0)
(1.00315 0.011732 0)
(0.999879 -0.000854722 0)
(0.999818 0.000684442 0)
(0.999497 -0.000150124 0)
(1.00062 0.00322682 0)
(1.0024 0.00138482 0)
(0.998775 0.000211755 0)
(0.998215 0.00249551 0)
(1.00026 0.00276069 0)
(1.00001 0.0045475 0)
(0.998569 0.00692505 0)
(1.00016 0.00730592 0)
(1.00174 0.00755712 0)
(1.00232 0.00911754 0)
(1.00276 0.0101404 0)
(1.0038 0.0105835 0)
(1.00473 0.0107158 0)
(1.00555 0.0108869 0)
(1.0055 0.0112623 0)
(1.00488 0.0113162 0)
(1.00319 0.0114944 0)
(0.999905 -0.000854372 0)
(0.999799 0.000681985 0)
(0.999598 -8.33054e-05 0)
(1.00067 0.00292993 0)
(1.00226 0.00151112 0)
(0.998865 0.000498189 0)
(0.998378 0.00267046 0)
(1.00042 0.00291483 0)
(1.00035 0.00445577 0)
(0.998849 0.00682716 0)
(1.00024 0.00742075 0)
(1.00196 0.00751638 0)
(1.00268 0.00884329 0)
(1.00302 0.00988825 0)
(1.00394 0.0103469 0)
(1.00484 0.0105899 0)
(1.00571 0.0106266 0)
(1.00565 0.0109777 0)
(1.00502 0.0110051 0)
(1.00326 0.0112184 0)
(0.999928 -0.00080189 0)
(0.999782 0.00058375 0)
(0.999695 2.5766e-05 0)
(1.00071 0.00265179 0)
(1.00215 0.00162805 0)
(0.998958 0.000684526 0)
(0.998525 0.00283739 0)
(1.00056 0.00307053 0)
(1.00068 0.00439444 0)
(0.999154 0.0066872 0)
(1.00035 0.00751523 0)
(1.00216 0.00752295 0)
(1.00302 0.0085885 0)
(1.0033 0.00966096 0)
(1.00412 0.0101705 0)
(1.00493 0.0104937 0)
(1.00583 0.0104104 0)
(1.00579 0.0107195 0)
(1.00514 0.0107485 0)
(1.00335 0.0109646 0)
(0.99995 -0.000778156 0)
(0.999767 0.000538372 0)
(0.99978 0.000121775 0)
(1.00075 0.00237569 0)
(1.00205 0.00166638 0)
(0.999056 0.000883455 0)
(0.998699 0.00303021 0)
(1.0007 0.00325948 0)
(1.001 0.00437851 0)
(0.999493 0.00655838 0)
(1.00046 0.00758805 0)
(1.00231 0.00754697 0)
(1.00334 0.00836887 0)
(1.0036 0.00945898 0)
(1.00432 0.00995701 0)
(1.00503 0.0103336 0)
(1.00593 0.0102333 0)
(1.00594 0.0104964 0)
(1.00529 0.010536 0)
(1.00345 0.0107162 0)
(0.999971 -0.000770284 0)
(0.999752 0.000544129 0)
(0.999848 0.000187688 0)
(1.0008 0.00213399 0)
(1.00198 0.00172538 0)
(0.999158 0.00116815 0)
(0.998847 0.00318246 0)
(1.00082 0.00338937 0)
(1.00131 0.00433588 0)
(0.999852 0.0063878 0)
(1.00062 0.00758961 0)
(1.00246 0.00759408 0)
(1.00365 0.00817851 0)
(1.0039 0.00920237 0)
(1.00454 0.00969283 0)
(1.00515 0.0101571 0)
(1.00603 0.0100755 0)
(1.00607 0.0102588 0)
(1.0054 0.0102791 0)
(1.00353 0.0104057 0)
(0.99999 -0.000719976 0)
(0.999733 0.000471117 0)
(0.999914 0.000282936 0)
(1.00085 0.00191065 0)
(1.00193 0.00175703 0)
(0.999262 0.00139564 0)
(0.999002 0.00334402 0)
(1.00093 0.00355926 0)
(1.00159 0.00432479 0)
(1.00022 0.00620665 0)
(1.00079 0.00752583 0)
(1.00256 0.0076067 0)
(1.00391 0.00796434 0)
(1.0042 0.00891567 0)
(1.00479 0.00944921 0)
(1.0053 0.00995019 0)
(1.0061 0.00990295 0)
(1.00617 0.0100248 0)
(1.00551 0.0100336 0)
(1.00363 0.0101297 0)
(1.00001 -0.000713228 0)
(0.999719 0.000460441 0)
(0.999969 0.000388133 0)
(1.0009 0.00170949 0)
(1.0019 0.0017855 0)
(0.999379 0.00163564 0)
(0.999149 0.00349285 0)
(1.00101 0.00365152 0)
(1.00184 0.00427293 0)
(1.00059 0.00600202 0)
(1.00099 0.00743179 0)
(1.00266 0.00764323 0)
(1.00415 0.00785968 0)
(1.00451 0.00871719 0)
(1.00505 0.00923402 0)
(1.00545 0.00972516 0)
(1.00618 0.00976307 0)
(1.00626 0.00982893 0)
(1.0056 0.00981871 0)
(1.00372 0.00988401 0)