/*--------------------------------*- C++ -*----------------------------------*\
| =========                 |                                                 |
| \\      /  F ield         | OpenFOAM: The Open Source CFD Toolbox           |
|  \\    /   O peration     | Version:  v2012                                 |
|   \\  /    A nd           | Website:  www.openfoam.com                      |
|    \\/     M anipulation  |                                                 |
\*---------------------------------------------------------------------------*/
FoamFile
{
    version     2.0;
    format      ascii;
    class       volVectorField;
    location    "9.4";
    object      U;
}
// * * * * * * * * * * * * * * * * * * * * * * * * * * * * * * * * * * * * * //

dimensions      [0 1 -1 0 0 0 0];


internalField   nonuniform List<vector> 
7000
(
(0.979304 -0.00566123 0)
(0.977254 0.00590743 0)
(0.994042 -0.00972604 0)
(1.0025 -0.0119473 0)
(1.0158 -0.00188999 0)
(1.03739 0.000776238 0)
(1.01296 0.0247908 0)
(1.08265 0.0321543 0)
(1.02656 0.0188738 0)
(1.04103 0.0178674 0)
(1.04433 0.00109157 0)
(1.03347 -0.00452674 0)
(1.0308 -0.0224408 0)
(1.0114 -0.0296584 0)
(0.997651 -0.0335635 0)
(0.998398 -0.0457165 0)
(0.945606 -0.0348748 0)
(1.01397 -0.0481044 0)
(0.878701 -0.0315496 0)
(1.04156 -0.0463459 0)
(0.982658 -0.00548612 0)
(0.976874 0.0058561 0)
(0.994681 -0.00986431 0)
(1.00231 -0.0120883 0)
(1.01744 -0.00213695 0)
(1.0366 0.000824695 0)
(1.01474 0.0245882 0)
(1.07793 0.031954 0)
(1.03551 0.0192847 0)
(1.03309 0.01762 0)
(1.05177 0.00132719 0)
(1.02667 -0.0044578 0)
(1.03978 -0.0217401 0)
(0.998418 -0.0291548 0)
(1.01833 -0.0328273 0)
(0.966869 -0.044615 0)
(0.994036 -0.034941 0)
(0.953729 -0.0466215 0)
(0.958818 -0.0314707 0)
(0.960235 -0.0456017 0)
(0.98786 -0.00531011 0)
(0.976244 0.00578246 0)
(0.994547 -0.00999623 0)
(1.00061 -0.0122385 0)
(1.02036 -0.00237758 0)
(1.03473 0.00086621 0)
(1.01981 0.0241953 0)
(1.06848 0.031708 0)
(1.04478 0.0198376 0)
(1.03178 0.0173523 0)
(1.04794 0.00150815 0)
(1.03397 -0.00439144 0)
(1.03051 -0.0211377 0)
(1.01121 -0.0290351 0)
(1.00612 -0.0319074 0)
(0.983028 -0.0445741 0)
(0.986761 -0.0341991 0)
(0.961274 -0.0460604 0)
(0.970782 -0.0317115 0)
(0.949335 -0.0431412 0)
(0.993645 -0.00516293 0)
(0.975701 0.00574001 0)
(0.993325 -0.0101123 0)
(0.996852 -0.0124118 0)
(1.02361 -0.0026021 0)
(1.03236 0.000854167 0)
(1.02704 0.0238757 0)
(1.0584 0.0314741 0)
(1.05009 0.0202481 0)
(1.03458 0.0172467 0)
(1.04597 0.00159915 0)
(1.03697 -0.0042701 0)
(1.03156 -0.0205888 0)
(1.01357 -0.0286928 0)
(1.00805 -0.031093 0)
(0.986031 -0.0442453 0)
(0.986032 -0.0331715 0)
(0.964574 -0.046081 0)
(0.970612 -0.0306146 0)
(0.949426 -0.0419278 0)
(0.99892 -0.00503307 0)
(0.975747 0.00573669 0)
(0.991504 -0.010209 0)
(0.991454 -0.0126237 0)
(1.02593 -0.00284676 0)
(1.03042 0.000799644 0)
(1.03395 0.0236958 0)
(1.05113 0.0312459 0)
(1.05209 0.0205115 0)
(1.0387 0.0172105 0)
(1.04535 0.00172522 0)
(1.03938 -0.00419179 0)
(1.03173 -0.0199884 0)
(1.01574 -0.0284101 0)
(1.00803 -0.0302876 0)
(0.989073 -0.0438267 0)
(0.984486 -0.0324054 0)
(0.968619 -0.0457883 0)
(0.967991 -0.0295859 0)
(0.953333 -0.041016 0)
(1.0028 -0.00491864 0)
(0.976955 0.00576438 0)
(0.990007 -0.0102724 0)
(0.985312 -0.0128687 0)
(1.02642 -0.00312787 0)
(1.02915 0.000713733 0)
(1.03904 0.0235686 0)
(1.04706 0.0310311 0)
(1.05319 0.0206889 0)
(1.0421 0.0171823 0)
(1.04604 0.00189249 0)
(1.04022 -0.0041303 0)
(1.03298 -0.0193549 0)
(1.01647 -0.0281185 0)
(1.00966 -0.0294285 0)
(0.990747 -0.0433862 0)
(0.985036 -0.0315989 0)
(0.971122 -0.0453663 0)
(0.966968 -0.0286998 0)
(0.95626 -0.0401184 0)
(1.00481 -0.0048219 0)
(0.979708 0.00581322 0)
(0.989789 -0.0102873 0)
(0.979311 -0.0131295 0)
(1.02488 -0.00345616 0)
(1.02792 0.000585413 0)
(1.04234 0.0234375 0)
(1.04493 0.030831 0)
(1.05459 0.0208166 0)
(1.04451 0.0171469 0)
(1.04697 0.00211424 0)
(1.04037 -0.00408559 0)
(1.03388 -0.018685 0)
(1.01676 -0.0278358 0)
(1.011 -0.0285741 0)
(0.991869 -0.0428936 0)
(0.986104 -0.0308229 0)
(0.972744 -0.0448177 0)
(0.967282 -0.0279268 0)
(0.958073 -0.0391181 0)
(1.00502 -0.00474419 0)
(0.983916 0.00586791 0)
(0.991389 -0.0102413 0)
(0.974095 -0.0133825 0)
(1.02166 -0.0038313 0)
(1.02575 0.000401494 0)
(1.0446 0.0233002 0)
(1.04362 0.0306319 0)
(1.05627 0.0209132 0)
(1.0461 0.0171103 0)
(1.04761 0.00239078 0)
(1.04004 -0.00405243 0)
(1.03429 -0.0179825 0)
(1.01691 -0.0275639 0)
(1.01199 -0.0277039 0)
(0.99307 -0.0423639 0)
(0.987275 -0.0300684 0)
(0.974281 -0.0441542 0)
(0.968217 -0.0272281 0)
(0.959507 -0.0380183 0)
(1.004 -0.00468576 0)
(0.988916 0.00590972 0)
(0.994678 -0.0101284 0)
(0.970133 -0.0136027 0)
(1.01726 -0.00423632 0)
(1.02193 0.000152478 0)
(1.04633 0.0231499 0)
(1.04267 0.0304219 0)
(1.05776 0.020992 0)
(1.04694 0.0170819 0)
(1.04762 0.00271732 0)
(1.03931 -0.00402669 0)
(1.03413 -0.0172588 0)
(1.0169 -0.0273001 0)
(1.01252 -0.0268427 0)
(0.994271 -0.0417959 0)
(0.98826 -0.0293494 0)
(0.975885 -0.0433741 0)
(0.969264 -0.0265865 0)
(0.960951 -0.0368357 0)
(1.00254 -0.0046453 0)
(0.993696 0.00592334 0)
(0.998927 -0.00995161 0)
(0.967818 -0.0137677 0)
(1.01209 -0.00464339 0)
(1.01608 -0.000170301 0)
(1.0474 0.0229598 0)
(1.04183 0.0301986 0)
(1.0585 0.0210655 0)
(1.04691 0.0170664 0)
(1.04686 0.0030921 0)
(1.03816 -0.00400895 0)
(1.03345 -0.0165228 0)
(1.01666 -0.0270409 0)
(1.01267 -0.0260016 0)
(0.9954 -0.0411825 0)
(0.989045 -0.0286792 0)
(0.97753 -0.042478 0)
(0.970294 -0.0259942 0)
(0.962488 -0.0355886 0)
(1.00133 -0.00461939 0)
(0.997333 0.00590172 0)
(1.00314 -0.00972578 0)
(0.967406 -0.0138623 0)
(1.00651 -0.00501776 0)
(1.00813 -0.000569414 0)
(1.04711 0.0227009 0)
(1.04067 0.0299634 0)
(1.05796 0.0211449 0)
(1.04582 0.0170623 0)
(1.04524 0.00350653 0)
(1.03659 -0.00400351 0)
(1.03232 -0.0157835 0)
(1.01618 -0.0267843 0)
(1.01248 -0.025197 0)
(0.99638 -0.0405172 0)
(0.989638 -0.0280742 0)
(0.979109 -0.0414737 0)
(0.971291 -0.0254452 0)
(0.964061 -0.0342938 0)
(1.00066 -0.0046028 0)
(0.999387 0.00584694 0)
(1.00645 -0.00947397 0)
(0.968849 -0.013882 0)
(1.00098 -0.00531843 0)
(0.998384 -0.0010321 0)
(1.04446 0.0223539 0)
(1.03841 0.0297137 0)
(1.05563 0.0212344 0)
(1.04356 0.0170608 0)
(1.0428 0.00394284 0)
(1.03466 -0.00401844 0)
(1.03088 -0.0150498 0)
(1.01551 -0.026526 0)
(1.01203 -0.0244445 0)
(0.997171 -0.039789 0)
(0.990033 -0.0275414 0)
(0.980525 -0.0403752 0)
(0.972237 -0.0249339 0)
(0.965583 -0.0329698 0)
(1.0005 -0.0045898 0)
(1.00003 0.00576749 0)
(1.00837 -0.0092202 0)
(0.971705 -0.0138336 0)
(0.996043 -0.00550948 0)
(0.987845 -0.00152579 0)
(1.03861 0.0219147 0)
(1.03428 0.0294389 0)
(1.05125 0.021327 0)
(1.04021 0.0170427 0)
(1.03975 0.0043849 0)
(1.03253 -0.00405986 0)
(1.02924 -0.0143334 0)
(1.01471 -0.026255 0)
(1.01137 -0.0237602 0)
(0.997777 -0.0389905 0)
(0.990238 -0.0270795 0)
(0.981712 -0.0391995 0)
(0.973114 -0.0244537 0)
(0.966983 -0.0316378 0)
(1.00058 -0.00457577 0)
(0.999855 0.00567371 0)
(1.00888 -0.00898244 0)
(0.975259 -0.0137321 0)
(0.992167 -0.00557414 0)
(0.978186 -0.00200472 0)
(1.02952 0.0213991 0)
(1.02806 0.0291216 0)
(1.04505 0.0214035 0)
(1.03612 0.0169822 0)
(1.03642 0.00481159 0)
(1.03035 -0.00413024 0)
(1.02757 -0.0136471 0)
(1.01388 -0.0259561 0)
(1.01057 -0.0231535 0)
(0.998213 -0.0381197 0)
(0.990288 -0.0266825 0)
(0.982627 -0.0379635 0)
(0.973911 -0.0239939 0)
(0.968203 -0.0303178 0)
(1.00064 -0.00455831 0)
(0.999521 0.00557449 0)
(1.00831 -0.00876917 0)
(0.97878 -0.0135964 0)
(0.989539 -0.00551894 0)
(0.971212 -0.00242534 0)
(1.01824 0.020841 0)
(1.02051 0.0287428 0)
(1.03783 0.0214386 0)
(1.03187 0.0168547 0)
(1.03319 0.00520671 0)
(1.02829 -0.00422869 0)
(1.02597 -0.0130001 0)
(1.0131 -0.0256156 0)
(1.00971 -0.0226267 0)
(0.998501 -0.0371768 0)
(0.990254 -0.0263407 0)
(0.983261 -0.036689 0)
(0.974645 -0.0235426 0)
(0.96922 -0.0290256 0)
(1.00059 -0.00453751 0)
(0.999454 0.00547545 0)
(1.00716 -0.00857817 0)
(0.981756 -0.0134446 0)
(0.988003 -0.00537525 0)
(0.968012 -0.0027477 0)
(1.00669 0.0202836 0)
(1.01316 0.0282882 0)
(1.03076 0.0214137 0)
(1.02804 0.0166454 0)
(1.03037 0.00556225 0)
(1.02645 -0.00434932 0)
(1.02452 -0.0124023 0)
(1.0124 -0.0252195 0)
(1.00886 -0.022179 0)
(0.998658 -0.0361654 0)
(0.990218 -0.0260338 0)
(0.983642 -0.0354023 0)
(0.975349 -0.0230919 0)
(0.97005 -0.0277732 0)
(1.00043 -0.00451479 0)
(0.999741 0.00537853 0)
(1.00592 -0.00840023 0)
(0.983991 -0.0132891 0)
(0.987188 -0.00518866 0)
(0.968432 -0.00295855 0)
(0.996848 0.0197628 0)
(1.0075 0.0277556 0)
(1.02485 0.0213285 0)
(1.02499 0.0163544 0)
(1.02812 0.00588065 0)
(1.02485 -0.00447391 0)
(1.02326 -0.0118673 0)
(1.01178 -0.0247539 0)
(1.00811 -0.0218063 0)
(0.998698 -0.0350976 0)
(0.990252 -0.0257347 0)
(0.983831 -0.034121 0)
(0.976053 -0.0226425 0)
(0.970748 -0.0265686 0)
(1.00025 -0.0044917 0)
(1.00022 0.00528327 0)
(1.0049 -0.00822583 0)
(0.985544 -0.0131326 0)
(0.986706 -0.00499892 0)
(0.971252 -0.00307272 0)
(0.989838 0.0192959 0)
(1.00422 0.0271557 0)
(1.02059 0.0212012 0)
(1.02275 0.015998 0)
(1.02644 0.00616448 0)
(1.02346 -0.00458243 0)
(1.02219 -0.0114058 0)
(1.01124 -0.0242109 0)
(1.00749 -0.021496 0)
(0.998647 -0.0339952 0)
(0.990391 -0.0254257 0)
(0.983914 -0.0328481 0)
(0.976767 -0.0221924 0)
(0.97139 -0.0254153 0)
(1.00014 -0.00446891 0)
(1.00065 0.00518741 0)
(1.00425 -0.00804853 0)
(0.986594 -0.0129724 0)
(0.986301 -0.00482913 0)
(0.974901 -0.00311542 0)
(0.985643 0.0188819 0)
(1.00296 0.0265065 0)
(1.0178 0.021056 0)
(1.02111 0.0156002 0)
(1.02518 0.00641521 0)
(1.02224 -0.0046605 0)
(1.0213 -0.0110227 0)
(1.01075 -0.0235962 0)
(1.00701 -0.0212251 0)
(0.998542 -0.0328764 0)
(0.990628 -0.0251004 0)
(0.983983 -0.0315873 0)
(0.977484 -0.0217336 0)
(0.972047 -0.0243122 0)
(1.00014 -0.00444576 0)
(1.00087 0.00508762 0)
(1.00397 -0.00786551 0)
(0.987319 -0.0128058 0)
(0.985886 -0.00468476 0)
(0.978161 -0.00311619 0)
(0.983433 0.0185087 0)
(1.00273 0.0258264 0)
(1.01599 0.0209083 0)
(1.01976 0.0151827 0)
(1.02421 0.00663286 0)
(1.02116 -0.00469038 0)
(1.02056 -0.0107146 0)
(1.01031 -0.0229288 0)
(1.00667 -0.0209796 0)
(0.998422 -0.0317412 0)
(0.990928 -0.024751 0)
(0.984105 -0.0303554 0)
(0.978185 -0.0212648 0)
(0.97276 -0.0232525 0)
(1.00022 -0.00442097 0)
(1.00083 0.00498116 0)
(1.00398 -0.00767629 0)
(0.987844 -0.0126305 0)
(0.985474 -0.00456099 0)
(0.980486 -0.00309224 0)
(0.982235 0.018161 0)
(1.00257 0.0251328 0)
(1.01462 0.0207599 0)
(1.0185 0.0147614 0)
(1.02339 0.00680166 0)
(1.02021 -0.0046616 0)
(1.01992 -0.0104728 0)
(1.00992 -0.0222153 0)
(1.00643 -0.0207604 0)
(0.998325 -0.0305989 0)
(0.99125 -0.0243564 0)
(0.984317 -0.0291659 0)
(0.978864 -0.0207998 0)
(0.973536 -0.0222305 0)
(1.00035 -0.00439286 0)
(1.00058 0.0048658 0)
(1.00415 -0.00748169 0)
(0.988248 -0.0124448 0)
(0.985109 -0.00444913 0)
(0.981901 -0.0030525 0)
(0.981408 0.0178284 0)
(1.00197 0.0244309 0)
(1.01342 0.020607 0)
(1.01727 0.0143465 0)
(1.02266 0.00691364 0)
(1.01938 -0.00457463 0)
(1.01935 -0.0102961 0)
(1.0096 -0.0214493 0)
(1.00623 -0.0205451 0)
(0.998273 -0.0294909 0)
(0.991567 -0.0239018 0)
(0.984614 -0.0279871 0)
(0.979524 -0.0203538 0)
(0.974357 -0.0212621 0)
(1.00048 -0.00435988 0)
(1.0002 0.00473962 0)
(1.00439 -0.00728224 0)
(0.988595 -0.012249 0)
(0.984817 -0.00434051 0)
(0.982692 -0.00300192 0)
(0.98074 0.017509 0)
(1.00093 0.0237203 0)
(1.0123 0.0204361 0)
(1.0161 0.0139433 0)
(1.02196 0.00696286 0)
(1.01868 -0.00442295 0)
(1.01882 -0.0101861 0)
(1.00933 -0.0206587 0)
(1.00605 -0.0202804 0)
(0.998268 -0.0284282 0)
(0.991878 -0.0234337 0)
(0.98497 -0.0267847 0)
(0.980171 -0.0198846 0)
(0.975199 -0.0203549 0)
(1.0006 -0.00432082 0)
(0.999769 0.00460146 0)
(1.00459 -0.00707807 0)
(0.988946 -0.0120436 0)
(0.984607 -0.00422909 0)
(0.983159 -0.00294368 0)
(0.980279 0.0172012 0)
(0.999701 0.0230111 0)
(1.01131 0.0202242 0)
(1.01505 0.0135605 0)
(1.02128 0.00693083 0)
(1.01809 -0.00420301 0)
(1.01828 -0.010107 0)
(1.00911 -0.0198834 0)
(1.00587 -0.0199632 0)
(0.998299 -0.0273554 0)
(0.992189 -0.0229856 0)
(0.985367 -0.0256308 0)
(0.98081 -0.019354 0)
(0.97603 -0.0194636 0)
(1.00069 -0.00427498 0)
(0.999347 0.00445129 0)
(1.00469 -0.00687027 0)
(0.989358 -0.0118297 0)
(0.984483 -0.00411147 0)
(0.983492 -0.00287897 0)
(0.980112 0.0168987 0)
(0.998516 0.022316 0)
(1.01048 0.0199557 0)
(1.01414 0.0132204 0)
(1.02059 0.00681831 0)
(1.01758 -0.00394646 0)
(1.01773 -0.0100365 0)
(1.00892 -0.019099 0)
(1.00569 -0.0196325 0)
(0.998353 -0.0262657 0)
(0.992497 -0.0224829 0)
(0.985793 -0.0245656 0)
(0.981453 -0.01884 0)
(0.976838 -0.0185961 0)
(1.00076 -0.0042221 0)
(0.998974 0.00429006 0)
(1.00464 -0.00665994 0)
(0.989866 -0.011609 0)
(0.984453 -0.00398764 0)
(0.983774 -0.00280556 0)
(0.980249 0.0165922 0)
(0.997512 0.02164 0)
(1.00978 0.0196221 0)
(1.01336 0.0129276 0)
(1.01986 0.00665068 0)
(1.01712 -0.00365955 0)
(1.01715 -0.0100037 0)
(1.00875 -0.018322 0)
(1.00549 -0.0192449 0)
(0.998431 -0.0252137 0)
(0.9928 -0.0219146 0)
(0.986226 -0.0234997 0)
(0.982096 -0.018337 0)
(0.977628 -0.0178004 0)
(1.00081 -0.00416222 0)
(0.998677 0.00411913 0)
(1.0044 -0.00644755 0)
(0.990476 -0.0113845 0)
(0.984529 -0.00385653 0)
(0.984023 -0.00272701 0)
(0.980623 0.0162853 0)
(0.996704 0.0209792 0)
(1.00917 0.0192353 0)
(1.01267 0.0126517 0)
(1.01908 0.00643655 0)
(1.01667 -0.00334435 0)
(1.01655 -0.00992262 0)
(1.00861 -0.0176444 0)
(1.00528 -0.0187788 0)
(0.998525 -0.0241842 0)
(0.993101 -0.0213207 0)
(0.986668 -0.0224536 0)
(0.982719 -0.0177914 0)
(0.9784 -0.0170255 0)
(1.00083 -0.00409531 0)
(0.998475 0.00393901 0)
(1.00398 -0.00623244 0)
(0.991161 -0.0111636 0)
(0.984719 -0.00370688 0)
(0.984234 -0.00266094 0)
(0.981125 0.0159875 0)
(0.996049 0.0203426 0)
(1.00856 0.0188067 0)
(1.01204 0.0123998 0)
(1.01826 0.00618855 0)
(1.01623 -0.00307377 0)
(1.01592 -0.00977118 0)
(1.00847 -0.0169772 0)
(1.00506 -0.0182834 0)
(0.998636 -0.0232011 0)
(0.993391 -0.0206823 0)
(0.987137 -0.0214099 0)
(0.983347 -0.0172504 0)
(0.979178 -0.0162954 0)
(1.00084 -0.00402251 0)
(0.99838 0.00375356 0)
(1.00341 -0.00601974 0)
(0.991872 -0.0109423 0)
(0.985015 -0.00354585 0)
(0.984407 -0.00257643 0)
(0.981662 0.0156488 0)
(0.995498 0.0197743 0)
(1.00792 0.018292 0)
(1.01145 0.01222 0)
(1.01741 0.00587557 0)
(1.01578 -0.00272064 0)
(1.01527 -0.00974917 0)
(1.00834 -0.0162662 0)
(1.00482 -0.017744 0)
(0.998763 -0.0221961 0)
(0.993678 -0.020141 0)
(0.987591 -0.0203577 0)
(0.98389 -0.0165836 0)
(0.979909 -0.0155614 0)
(1.00082 -0.00394472 0)
(0.998393 0.00356581 0)
(1.00273 -0.00580859 0)
(0.992556 -0.0107225 0)
(0.985394 -0.00338422 0)
(0.984551 -0.00246217 0)
(0.982172 0.0152711 0)
(0.995023 0.0192495 0)
(1.00725 0.0177048 0)
(1.0109 0.0120784 0)
(1.01656 0.00550646 0)
(1.01532 -0.0023739 0)
(1.01462 -0.00957556 0)
(1.00823 -0.0156982 0)
(1.00459 -0.0172463 0)
(0.99888 -0.0210565 0)
(0.993951 -0.0195553 0)
(0.988109 -0.0194742 0)
(0.984436 -0.0159966 0)
(0.980651 -0.0148136 0)
(1.00078 -0.00386016 0)
(0.998503 0.00336919 0)
(1.002 -0.00558574 0)
(0.993164 -0.0105349 0)
(0.985817 -0.00317182 0)
(0.984687 -0.00239206 0)
(0.982634 0.0149358 0)
(0.994627 0.0187229 0)
(1.00657 0.0171308 0)
(1.01038 0.0118707 0)
(1.01572 0.00525737 0)
(1.01486 -0.00232964 0)
(1.01396 -0.00918071 0)
(1.0081 -0.0151609 0)
(1.00437 -0.0167057 0)
(0.999018 -0.0201253 0)
(0.994194 -0.0187497 0)
(0.988659 -0.0185809 0)
(0.985032 -0.0154807 0)
(0.98145 -0.0141623 0)
(1.00072 -0.00377904 0)
(0.998686 0.00318739 0)
(1.00129 -0.00538246 0)
(0.993659 -0.0103094 0)
(0.986247 -0.00301615 0)
(0.984831 -0.00221204 0)
(0.983061 0.0144658 0)
(0.994326 0.0183044 0)
(1.00592 0.0164899 0)
(1.00992 0.0116904 0)
(1.01492 0.00493295 0)
(1.0144 -0.0021225 0)
(1.01332 -0.00900294 0)
(1.00796 -0.0146623 0)
(1.00414 -0.0159187 0)
(0.999149 -0.0193325 0)
(0.994422 -0.0181306 0)
(0.989119 -0.0176627 0)
(0.985477 -0.0146937 0)
(0.982129 -0.0134156 0)
(1.00066 -0.00368577 0)
(0.998908 0.00298099 0)
(1.00065 -0.005133 0)
(0.994026 -0.010147 0)
(0.986653 -0.00279826 0)
(0.984999 -0.00206903 0)
(0.983488 0.0140745 0)
(0.994136 0.0177961 0)
(1.00536 0.0159161 0)
(1.00951 0.0114321 0)
(1.01419 0.00473735 0)
(1.01395 -0.00216983 0)
(1.01267 -0.00842358 0)
(1.00785 -0.0143243 0)
(1.00393 -0.0152923 0)
(0.999245 -0.0183896 0)
(0.994691 -0.0173813 0)
(0.989751 -0.0169943 0)
(0.986093 -0.0140074 0)
(0.982916 -0.0126699 0)
(1.00058 -0.00358787 0)
(0.999138 0.00277093 0)
(1.00009 -0.00490003 0)
(0.994276 -0.0099821 0)
(0.987013 -0.00256258 0)
(0.985204 -0.00194351 0)
(0.983939 0.0136685 0)
(0.994075 0.0173755 0)
(1.00491 0.0152231 0)
(1.00918 0.0112888 0)
(1.0135 0.00445979 0)
(1.01353 -0.0021219 0)
(1.01206 -0.00810983 0)
(1.00765 -0.0136128 0)
(1.00375 -0.014912 0)
(0.999363 -0.0173911 0)
(0.994868 -0.0164995 0)
(0.990208 -0.0161655 0)
(0.986563 -0.0134341 0)
(0.983528 -0.0119905 0)
(1.00051 -0.00350981 0)
(0.999345 0.00260637 0)
(0.999633 -0.00471968 0)
(0.994433 -0.00971631 0)
(0.987321 -0.00247999 0)
(0.985447 -0.00159651 0)
(0.984437 0.0129391 0)
(0.994131 0.0171664 0)
(1.00458 0.0143769 0)
(1.0089 0.0111911 0)
(1.01289 0.00404079 0)
(1.01309 -0.00170579 0)
(1.01147 -0.00827414 0)
(1.00748 -0.0127926 0)
(1.00355 -0.0143606 0)
(0.999442 -0.0164123 0)
(0.99505 -0.0159785 0)
(0.990693 -0.0150491 0)
(0.987095 -0.0128329 0)
(0.984229 -0.0114795 0)
(1.00045 -0.00339962 0)
(0.999512 0.00237099 0)
(0.999273 -0.00439551 0)
(0.994535 -0.00962308 0)
(0.987578 -0.00221696 0)
(0.985736 -0.0014654 0)
(0.984973 0.0125709 0)
(0.994294 0.0165817 0)
(1.00433 0.0139418 0)
(1.00867 0.0106393 0)
(1.01233 0.00415491 0)
(1.01265 -0.00214761 0)
(1.0109 -0.00737469 0)
(1.00729 -0.0126093 0)
(1.00338 -0.0136444 0)
(0.999531 -0.0155493 0)
(0.995349 -0.015118 0)
(0.991313 -0.0143968 0)
(0.987675 -0.012157 0)
(0.984965 -0.0108112 0)
(1.0004 -0.00328823 0)
(0.999623 0.00214445 0)
(0.999001 -0.0041504 0)
(0.994597 -0.00943338 0)
(0.987804 -0.0020281 0)
(0.986071 -0.0012672 0)
(0.98554 0.0120893 0)
(0.994513 0.0161631 0)
(1.00416 0.0133336 0)
(1.00847 0.0103416 0)
(1.01177 0.00398617 0)
(1.01226 -0.00215241 0)
(1.01034 -0.00692158 0)
(1.00704 -0.011995 0)
(1.00325 -0.0131156 0)
(0.999573 -0.0146955 0)
(0.995449 -0.0141284 0)
(0.991676 -0.0136965 0)
(0.988131 -0.0115436 0)
(0.985485 -0.0101109 0)
(1.00037 -0.0032143 0)
(0.999681 0.00198582 0)
(0.998791 -0.00398307 0)
(0.994643 -0.0091274 0)
(0.988026 -0.00201714 0)
(0.986429 -0.000767977 0)
(0.986135 0.0111373 0)
(0.994743 0.0160683 0)
(1.00404 0.0124197 0)
(1.00827 0.0102585 0)
(1.01127 0.00357985 0)
(1.01182 -0.00167638 0)
(1.00982 -0.00717966 0)
(1.00681 -0.0108725 0)
(1.00309 -0.012647 0)
(0.99967 -0.0137681 0)
(0.995679 -0.0135848 0)
(0.99213 -0.0125566 0)
(0.988663 -0.0111195 0)
(0.986131 -0.00976942 0)
(1.00035 -0.00307978 0)
(0.999704 0.00171708 0)
(0.998613 -0.00360886 0)
(0.994704 -0.00902496 0)
(0.988245 -0.00180381 0)
(0.986821 -0.000624701 0)
(0.986721 0.0108364 0)
(0.994985 0.0153715 0)
(1.00391 0.0121486 0)
(1.00806 0.00950517 0)
(1.01075 0.00388901 0)
(1.01137 -0.00219038 0)
(1.00932 -0.00620717 0)
(1.00657 -0.0107893 0)
(1.00295 -0.0118123 0)
(0.999747 -0.0129961 0)
(0.995976 -0.0127785 0)
(0.992658 -0.0121733 0)
(0.989228 -0.0104704 0)
(0.986851 -0.00907618 0)
(1.00034 -0.00295606 0)
(0.999692 0.00147745 0)
(0.998465 -0.00335544 0)
(0.994769 -0.00880775 0)
(0.988476 -0.001682 0)
(0.987245 -0.000362511 0)
(0.987292 0.0102939 0)
(0.995199 0.0148783 0)
(1.00377 0.0117298 0)
(1.00784 0.00894592 0)
(1.01022 0.0039067 0)
(1.01095 -0.00214723 0)
(1.00882 -0.00577773 0)
(1.00628 -0.0102899 0)
(1.00289 -0.0111934 0)
(0.99978 -0.0123094 0)
(0.996055 -0.0119001 0)
(0.992978 -0.01149 0)
(0.989723 -0.00965519 0)
(0.987305 -0.00829275 0)
(1.00034 -0.00287986 0)
(0.999657 0.00131066 0)
(0.99833 -0.00322562 0)
(0.994835 -0.00838759 0)
(0.988746 -0.00179795 0)
(0.987654 0.000246557 0)
(0.987871 0.00927189 0)
(0.99538 0.0147854 0)
(1.00361 0.0108232 0)
(1.00759 0.00896214 0)
(1.00973 0.00329511 0)
(1.01045 -0.00149085 0)
(1.00834 -0.00621039 0)
(1.006 -0.00895709 0)
(1.00274 -0.0108662 0)
(0.999823 -0.0113679 0)
(0.996281 -0.0114615 0)
(0.99338 -0.0102272 0)
(0.990213 -0.0094144 0)
(0.987856 -0.00811112 0)
(1.00034 -0.00272052 0)
(0.999634 0.00103131 0)
(0.998186 -0.00283749 0)
(0.994925 -0.00825325 0)
(0.989025 -0.00164043 0)
(0.988095 0.000297095 0)
(0.988417 0.00906929 0)
(0.995534 0.0139585 0)
(1.00343 0.0106831 0)
(1.00731 0.00815835 0)
(1.00921 0.00363571 0)
(1.00996 -0.00193964 0)
(1.00793 -0.00522557 0)
(1.00577 -0.00886067 0)
(1.00267 -0.0100608 0)
(0.999945 -0.0106994 0)
(0.996631 -0.0104863 0)
(0.993877 -0.0098677 0)
(0.990752 -0.00873908 0)
(0.988584 -0.00737992 0)
(1.00035 -0.0025821 0)
(0.999607 0.000771723 0)
(0.998045 -0.00258858 0)
(0.99502 -0.0079769 0)
(0.989324 -0.00159436 0)
(0.988539 0.00057688 0)
(0.988946 0.00855047 0)
(0.995689 0.0133457 0)
(1.00322 0.0104133 0)
(1.00703 0.0075451 0)
(1.00869 0.00368523 0)
(1.0095 -0.00186515 0)
(1.00747 -0.00485031 0)
(1.00542 -0.00848622 0)
(1.00258 -0.00934923 0)
(0.99997 -0.0101348 0)
(0.996694 -0.00964661 0)
(0.994103 -0.00920217 0)
(0.99121 -0.00776163 0)
(0.988939 -0.00653289 0)
(1.00035 -0.00251606 0)
(0.999581 0.000623804 0)
(0.997916 -0.00253541 0)
(0.995096 -0.00739726 0)
(0.989665 -0.00184267 0)
(0.988965 0.00126502 0)
(0.989484 0.00761841 0)
(0.995814 0.0132357 0)
(1.00301 0.00947826 0)
(1.00672 0.00771438 0)
(1.00822 0.00296378 0)
(1.00897 -0.000976417 0)
(1.00707 -0.00528223 0)
(1.00519 -0.00712948 0)
(1.00249 -0.00915708 0)
(1.00004 -0.00910147 0)
(0.996977 -0.00940394 0)
(0.994521 -0.00792968 0)
(0.991671 -0.0077082 0)
(0.989442 -0.00648236 0)
(1.00034 -0.00230698 0)
(0.999591 0.000315273 0)
(0.997766 -0.00214 0)
(0.995203 -0.00729105 0)
(0.990007 -0.00163559 0)
(0.989404 0.00117881 0)
(0.989998 0.00750006 0)
(0.99593 0.0123051 0)
(1.0028 0.00945835 0)
(1.00643 0.0068625 0)
(1.00776 0.00335297 0)
(1.00848 -0.00141495 0)
(1.0067 -0.00430733 0)
(1.00495 -0.00710092 0)
(1.00248 -0.00858623 0)
(1.00022 -0.00869908 0)
(0.997383 -0.00849728 0)
(0.994982 -0.00757273 0)
(0.992163 -0.00684187 0)
(0.990165 -0.00556384 0)
(1.00033 -0.00219889 0)
(0.999611 0.000100818 0)
(0.997627 -0.00199038 0)
(0.995308 -0.0068319 0)
(0.990351 -0.00173941 0)
(0.989845 0.00141406 0)
(0.990496 0.0072044 0)
(0.996092 0.0114944 0)
(1.00257 0.00935638 0)
(1.00613 0.00625483 0)
(1.00727 0.00338805 0)
(1.00803 -0.00140529 0)
(1.00632 -0.00398252 0)
(1.00461 -0.00703271 0)
(1.00239 -0.00773473 0)
(1.00029 -0.00834095 0)
(0.997524 -0.00776702 0)
(0.995264 -0.0072135 0)
(0.992617 -0.00562369 0)
(0.990393 -0.00446685 0)
(1.00033 -0.00210002 0)
(0.999617 -7.41566e-05 0)
(0.997525 -0.00193253 0)
(0.995377 -0.00628932 0)
(0.990737 -0.00189237 0)
(0.990273 0.00187595 0)
(0.990981 0.00654569 0)
(0.996228 0.0111872 0)
(1.00237 0.00873552 0)
(1.00582 0.00620516 0)
(1.00688 0.00303033 0)
(1.00754 -0.000756114 0)
(1.00592 -0.00408353 0)
(1.00444 -0.00594773 0)
(1.00236 -0.00744072 0)
(1.00037 -0.00759378 0)
(0.997819 -0.00732919 0)
(0.995776 -0.00631914 0)
(0.993211 -0.00546999 0)
(0.990831 -0.00441715 0)
(1.00031 -0.00187382 0)
(0.999653 -0.0004066 0)
(0.997417 -0.00161509 0)
(0.995468 -0.00606219 0)
(0.99112 -0.00173784 0)
(0.990678 0.00182983 0)
(0.991471 0.0063393 0)
(0.996382 0.0105141 0)
(1.00215 0.00846768 0)
(1.00556 0.00581029 0)
(1.00648 0.00310302 0)
(1.00709 -0.000744079 0)
(1.00563 -0.00352877 0)
(1.00416 -0.00549836 0)
(1.00228 -0.00708951 0)
(1.00059 -0.00681347 0)
(0.99818 -0.00664026 0)
(0.996153 -0.00585911 0)
(0.993622 -0.00521636 0)
(0.991248 -0.00423429 0)
(1.00029 -0.00181776 0)
(0.999698 -0.000490142 0)
(0.997327 -0.00160749 0)
(0.99555 -0.00547759 0)
(0.991507 -0.00192012 0)
(0.991104 0.00210122 0)
(0.991925 0.00600699 0)
(0.996539 0.00989314 0)
(1.00197 0.0081806 0)
(1.00529 0.00558226 0)
(1.00611 0.00294155 0)
(1.00666 -0.000430903 0)
(1.00527 -0.00323443 0)
(1.00393 -0.00509118 0)
(1.00234 -0.00621889 0)
(1.00076 -0.00618222 0)
(0.998391 -0.00627846 0)
(0.996542 -0.0054384 0)
(0.994137 -0.00475768 0)
(0.991683 -0.00400281 0)
(1.00027 -0.00162689 0)
(0.999748 -0.00076065 0)
(0.997254 -0.00143866 0)
(0.995634 -0.00512827 0)
(0.991903 -0.0017965 0)
(0.991514 0.00213453 0)
(0.99236 0.00571219 0)
(0.996722 0.00937576 0)
(1.00179 0.0079046 0)
(1.00502 0.00525135 0)
(1.00576 0.00292628 0)
(1.00625 -0.000350685 0)
(1.00498 -0.00287126 0)
(1.00378 -0.00440236 0)
(1.0023 -0.00567029 0)
(1.00085 -0.00592318 0)
(0.998726 -0.00568505 0)
(0.996986 -0.00483345 0)
(0.994502 -0.00453877 0)
(0.992037 -0.00391912 0)
(1.00024 -0.00150754 0)
(0.999807 -0.000924311 0)
(0.997198 -0.00136609 0)
(0.995718 -0.00465639 0)
(0.992292 -0.00182345 0)
(0.991925 0.00219735 0)
(0.992793 0.00557998 0)
(0.996897 0.00874948 0)
(1.00161 0.00757918 0)
(1.00478 0.00505449 0)
(1.00544 0.00285903 0)
(1.00587 -0.000184897 0)
(1.00472 -0.00246049 0)
(1.00357 -0.00402425 0)
(1.00225 -0.0052639 0)
(1.00105 -0.00533911 0)
(0.99906 -0.00505563 0)
(0.997255 -0.00463683 0)
(0.99484 -0.00439701 0)
(0.992473 -0.00359178 0)
(1.00022 -0.00136543 0)
(0.999867 -0.00110685 0)
(0.997166 -0.00127814 0)
(0.995794 -0.00427108 0)
(0.992685 -0.0017282 0)
(0.992351 0.0022571 0)
(0.99319 0.00535622 0)
(0.997078 0.00816839 0)
(1.00147 0.00734313 0)
(1.00453 0.00482444 0)
(1.00513 0.00277179 0)
(1.00552 -2.11527e-05 0)
(1.00445 -0.0021413 0)
(1.0034 -0.00358291 0)
(1.00226 -0.0046537 0)
(1.00122 -0.00480258 0)
(0.999276 -0.0047542 0)
(0.997552 -0.004337 0)
(0.995297 -0.00389426 0)
(0.992928 -0.00321661 0)
(1.00019 -0.00123024 0)
(0.999934 -0.00126856 0)
(0.997147 -0.00121825 0)
(0.99588 -0.00385254 0)
(0.993073 -0.00164073 0)
(0.992759 0.0022436 0)
(0.993591 0.00520068 0)
(0.997271 0.00767131 0)
(1.00133 0.00702471 0)
(1.0043 0.00458102 0)
(1.00484 0.00273049 0)
(1.00519 0.000160974 0)
(1.00424 -0.00182923 0)
(1.00325 -0.00314533 0)
(1.00223 -0.00418018 0)
(1.00134 -0.00442353 0)
(0.999558 -0.00434909 0)
(0.997928 -0.00381692 0)
(0.995686 -0.00348841 0)
(0.993288 -0.00299872 0)
(1.00017 -0.00110205 0)
(0.999997 -0.0014127 0)
(0.997156 -0.00116513 0)
(0.995958 -0.00344739 0)
(0.993453 -0.00157805 0)
(0.993192 0.00227187 0)
(0.993966 0.00507365 0)
(0.997449 0.00719057 0)
(1.00122 0.00671055 0)
(1.00408 0.00441392 0)
(1.00459 0.00267391 0)
(1.00489 0.000291023 0)
(1.004 -0.00159476 0)
(1.00311 -0.00273007 0)
(1.00223 -0.00368992 0)
(1.00149 -0.0039205 0)
(0.999847 -0.00389016 0)
(0.998243 -0.00345829 0)
(0.996034 -0.00321083 0)
(0.99368 -0.00276802 0)
(1.00014 -0.000971355 0)
(1.00007 -0.00155218 0)
(0.997174 -0.00112338 0)
(0.996047 -0.00307852 0)
(0.993832 -0.00142748 0)
(0.993609 0.00223822 0)
(0.99434 0.00493245 0)
(0.997637 0.00674366 0)
(1.00111 0.00640294 0)
(1.00387 0.00421352 0)
(1.00433 0.00261066 0)
(1.0046 0.000413723 0)
(1.00385 -0.00129807 0)
(1.00302 -0.00226023 0)
(1.00222 -0.00322691 0)
(1.00162 -0.00352848 0)
(1.00009 -0.0035426 0)
(0.998568 -0.00313617 0)
(0.996391 -0.0028546 0)
(0.994039 -0.00248519 0)
(1.00012 -0.000848181 0)
(1.00013 -0.00165135 0)
(0.99722 -0.0011314 0)
(0.996135 -0.00268125 0)
(0.994199 -0.0013506 0)
(0.994045 0.00222569 0)
(0.994694 0.00483625 0)
(0.997809 0.00636704 0)
(1.00104 0.00610109 0)
(1.00367 0.00404001 0)
(1.00412 0.00252727 0)
(1.00435 0.00057718 0)
(1.00368 -0.00107943 0)
(1.00291 -0.00194228 0)
(1.0022 -0.00287174 0)
(1.00174 -0.00315183 0)
(1.00037 -0.00312573 0)
(0.99891 -0.00277631 0)
(0.996738 -0.00249866 0)
(0.994401 -0.002199 0)
(1.0001 -0.000737874 0)
(1.0002 -0.00172618 0)
(0.997276 -0.00112636 0)
(0.996234 -0.00231309 0)
(0.994562 -0.0012486 0)
(0.99447 0.00216717 0)
(0.995053 0.0046908 0)
(0.997989 0.0060135 0)
(1.00096 0.0058202 0)
(1.00348 0.0038846 0)
(1.00392 0.0024789 0)
(1.00409 0.000722588 0)
(1.00354 -0.000882152 0)
(1.00285 -0.00159633 0)
(1.0022 -0.00239884 0)
(1.00189 -0.00269561 0)
(1.00062 -0.00271635 0)
(0.999223 -0.0024794 0)
(0.997073 -0.00218714 0)
(0.994721 -0.00193295 0)
(1.00007 -0.000637264 0)
(1.00026 -0.00177931 0)
(0.997365 -0.00116786 0)
(0.99633 -0.00195285 0)
(0.994897 -0.00111175 0)
(0.994908 0.00220813 0)
(0.995409 0.00459808 0)
(0.998171 0.0056677 0)
(1.00092 0.00549449 0)
(1.00332 0.00372793 0)
(1.00375 0.00240086 0)
(1.00387 0.000884194 0)
(1.0034 -0.000664084 0)
(1.0028 -0.00127903 0)
(1.00219 -0.00196178 0)
(1.00198 -0.00235773 0)
(1.00084 -0.00240124 0)
(0.999539 -0.00220243 0)
(0.997418 -0.00190944 0)
(0.995054 -0.00166436 0)
(1.00005 -0.000521963 0)
(1.00033 -0.00185862 0)
(0.997449 -0.00114187 0)
(0.996441 -0.00172025 0)
(0.995255 -0.000892485 0)
(0.995341 0.00206778 0)
(0.995736 0.0044755 0)
(0.998316 0.00543385 0)
(1.00086 0.00526893 0)
(1.00315 0.00361726 0)
(1.00359 0.00234618 0)
(1.00367 0.00101627 0)
(1.00331 -0.000459477 0)
(1.00281 -0.00103451 0)
(1.00221 -0.00158776 0)
(1.00211 -0.00201823 0)
(1.0011 -0.00203788 0)
(0.999874 -0.00189848 0)
(0.997788 -0.00162773 0)
(0.995389 -0.00138645 0)
(1.00003 -0.000426465 0)
(1.00039 -0.00187352 0)
(0.997561 -0.00118938 0)
(0.996564 -0.00143445 0)
(0.995572 -0.000777282 0)
(0.995766 0.00194022 0)
(0.9961 0.00440149 0)
(0.998499 0.00523945 0)
(1.00085 0.00503373 0)
(1.00302 0.00350124 0)
(1.00347 0.00224739 0)
(1.00349 0.00115139 0)
(1.00318 -0.000236708 0)
(1.00279 -0.00082031 0)
(1.00221 -0.00121198 0)
(1.00218 -0.00163829 0)
(1.00129 -0.00168309 0)
(1.00014 -0.00159188 0)
(0.998111 -0.0013579 0)
(0.995688 -0.00112087 0)
(1.00001 -0.000352152 0)
(1.00045 -0.00184046 0)
(0.997681 -0.00124478 0)
(0.996692 -0.00116439 0)
(0.99589 -0.000586312 0)
(0.996198 0.0019519 0)
(0.996462 0.00429641 0)
(0.998666 0.00498684 0)
(1.00083 0.00478167 0)
(1.00289 0.00338028 0)
(1.00336 0.00217823 0)
(1.00334 0.00125578 0)
(1.00307 1.7104e-05 0)
(1.00282 -0.0005917 0)
(1.00225 -0.000863122 0)
(1.00227 -0.00127911 0)
(1.00148 -0.0013557 0)
(1.00041 -0.00129817 0)
(0.998448 -0.00111968 0)
(0.995991 -0.000894968 0)
(0.999992 -0.000279427 0)
(1.0005 -0.00177608 0)
(0.997812 -0.00129674 0)
(0.996827 -0.000877777 0)
(0.996194 -0.000398562 0)
(0.996622 0.00190113 0)
(0.996817 0.00409624 0)
(0.998835 0.00472615 0)
(1.00083 0.00454839 0)
(1.00277 0.00329605 0)
(1.00328 0.0021182 0)
(1.00323 0.00134743 0)
(1.00297 0.000270647 0)
(1.00284 -0.000418066 0)
(1.00231 -0.000604825 0)