/*--------------------------------*- C++ -*----------------------------------*\
| =========                 |                                                 |
| \\      /  F ield         | OpenFOAM: The Open Source CFD Toolbox           |
|  \\    /   O peration     | Version:  v2012                                 |
|   \\  /    A nd           | Website:  www.openfoam.com                      |
|    \\/     M anipulation  |                                                 |
\*---------------------------------------------------------------------------*/
FoamFile
{
    version     2.0;
    format      ascii;
    class       volScalarField;
    location    "2.2";
    object      p;
}
// * * * * * * * * * * * * * * * * * * * * * * * * * * * * * * * * * * * * * //

dimensions      [0 2 -2 0 0 0 0];


internalField   nonuniform List<scalar> 
7000
(
-5.23968e-11
0.000983061
-0.000958859
-0.000720368
-0.000683227
-0.000115937
-0.000793453
-0.000435193
0.000793146
0.00146365
0.00286223
0.00393214
0.0050469
0.00674882
0.00721633
0.00912885
0.0101428
0.0127244
0.0146338
0.0206414
1.74973e-06
0.000974906
-0.000951037
-0.000722486
-0.000689761
-9.9647e-05
-0.000795456
-0.000434189
0.000795262
0.00145674
0.00286793
0.00391634
0.00505057
0.0067228
0.00722022
0.00907734
0.010153
0.0126877
0.014753
0.0203799
3.55191e-06
0.00096381
-0.0009386
-0.000722935
-0.000696672
-8.52019e-05
-0.000801256
-0.000433095
0.000796683
0.00144541
0.00287638
0.00388909
0.00505361
0.00668389
0.00722286
0.00902596
0.0101593
0.0126412
0.0148216
0.019963
4.84296e-06
0.00095113
-0.000927072
-0.000717615
-0.000705306
-7.59379e-05
-0.000808155
-0.00043341
0.000797373
0.00143196
0.00288152
0.003857
0.00505035
0.00664167
0.00721797
0.00897413
0.0101585
0.0125901
0.0148561
0.019547
5.78592e-06
0.000936282
-0.000916654
-0.000707091
-0.000716364
-6.99638e-05
-0.000815118
-0.00043528
0.000798232
0.00141633
0.00288435
0.00382139
0.00504503
0.00659571
0.00721313
0.00891883
0.0101617
0.0125324
0.0148634
0.0191561
6.45319e-06
0.000919043
-0.000906457
-0.000692538
-0.000729908
-6.60191e-05
-0.000821883
-0.000437435
0.000799466
0.0013991
0.00288695
0.00378289
0.00504084
0.00654615
0.00721218
0.0088584
0.0101705
0.0124647
0.0148465
0.0187873
6.86374e-06
0.000899582
-0.000896074
-0.000675158
-0.000745782
-6.33135e-05
-0.000828025
-0.000438329
0.000800995
0.00138141
0.00288999
0.00374194
0.00503822
0.00649281
0.00721381
0.00879247
0.0101803
0.0123871
0.0148065
0.0184343
7.04898e-06
0.000878159
-0.000885389
-0.000655961
-0.000763552
-6.13545e-05
-0.000833035
-0.000437042
0.000803023
0.00136387
0.00289365
0.00369833
0.00503703
0.00643493
0.00721703
0.00872138
0.0101877
0.0123023
0.0147427
0.0180928
7.036e-06
0.000855008
-0.000874302
-0.000635535
-0.00078262
-5.99477e-05
-0.000836461
-0.000433294
0.000805967
0.00134632
0.00289814
0.00365157
0.00503729
0.00637251
0.00722164
0.00864597
0.0101902
0.0122126
0.014654
0.0177596
6.83637e-06
0.000830315
-0.00086271
-0.000614096
-0.000802414
-5.90894e-05
-0.000837988
-0.000427172
0.000810156
0.00132818
0.00290379
0.00360131
0.00503901
0.00630641
0.00722689
0.00856752
0.0101854
0.0121193
0.0145406
0.0174318
6.45334e-06
0.000804218
-0.000850542
-0.000591669
-0.000822479
-5.88533e-05
-0.000837479
-0.000418921
0.000815738
0.00130895
0.00291106
0.00354741
0.00504205
0.00623763
0.00723147
0.00848743
0.0101707
0.0120227
0.0144032
0.0171063
5.89299e-06
0.00077682
-0.000837764
-0.000568258
-0.000842445
-5.93052e-05
-0.000834972
-0.000408838
0.000822789
0.00128852
0.00292031
0.00348992
0.00504602
0.00616696
0.00723391
0.00840704
0.010144
0.0119226
0.0142431
0.0167805
5.17237e-06
0.000748217
-0.00082436
-0.000543954
-0.000861967
-6.04647e-05
-0.000830623
-0.000397245
0.000831404
0.00126705
0.00293159
0.00342902
0.00505042
0.00609508
0.00723242
0.0083274
0.0101035
0.0118184
0.0140622
0.0164518
4.32291e-06
0.000718526
-0.000810322
-0.000518958
-0.000880666
-6.2308e-05
-0.000824666
-0.000384551
0.000841688
0.00124471
0.00294458
0.00336495
0.00505482
0.00602289
0.00722502
0.00824881
0.0100479
0.0117092
0.0138623
0.0161182
3.38839e-06
0.000687896
-0.00079564
-0.000493543
-0.000898106
-6.47805e-05
-0.000817388
-0.000371307
0.000853715
0.00122143
0.00295869
0.00329823
0.00505847
0.00595137
0.00720999
0.00817143
0.00997616
0.0115936
0.0136457
0.0157782
2.41842e-06
0.000656504
-0.000780301
-0.000468015
-0.000913832
-6.7813e-05
-0.00080908
-0.000358211
0.000867543
0.00119678
0.00297319
0.00322987
0.00506
0.00588159
0.0071859
0.0080977
0.00988806
0.0114694
0.0134143
0.0154311
1.4589e-06
0.000624528
-0.000764287
-0.000442669
-0.000927472
-7.1358e-05
-0.000799968
-0.000346009
0.000883224
0.00117013
0.00298738
0.00316119
0.00505767
0.00581471
0.00715138
0.00802359
0.00978409
0.0113344
0.0131694
0.0150764
5.41185e-07
0.000592114
-0.000747573
-0.000417768
-0.000938821
-7.54208e-05
-0.000790182
-0.000335362
0.000900799
0.00114099
0.00300056
0.00309372
0.00504983
0.00575158
0.00710516
0.00794951
0.00966519
0.0111871
0.0129122
0.0147141
-3.25382e-07
0.000559345
-0.00073013
-0.000393523
-0.000947861
-8.00651e-05
-0.000779747
-0.000326762
0.000920305
0.00110922
0.00301205
0.00302902
0.00503473
0.00569269
0.00704648
0.00787347
0.00953238
0.0110272
0.0126442
0.0143443
-1.15478e-06
0.00052623
-0.000711924
-0.000370092
-0.000954737
-8.53979e-05
-0.000768594
-0.000320557
0.000941772
0.0010751
0.00302099
0.00296862
0.00501056
0.00563797
0.00697524
0.00779359
0.00938652
0.0108536
0.0123672
0.013968
-1.97908e-06
0.000492713
-0.000692913
-0.000347588
-0.000959668
-9.15525e-05
-0.000756619
-0.000316968
0.000965192
0.00103926
0.0030263
0.00291391
0.00497602
0.00558692
0.00689149
0.00770876
0.0092287
0.0106644
0.0120826
0.0135873
-2.83825e-06
0.000458706
-0.000673059
-0.000326094
-0.000962877
-9.86568e-05
-0.000743759
-0.000316112
0.000990403
0.0010026
0.00302682
0.00286566
0.00493046
0.0055389
0.00679567
0.00761757
0.00906033
0.0104577
0.0117899
0.0132045
-3.7696e-06
0.000424112
-0.000652326
-0.000305669
-0.00096455
-0.000106798
-0.000729983
-0.000318103
0.00101701
0.000966358
0.00302116
0.00282415
0.00487365
0.00549282
0.00668874
0.00751767
0.00888336
0.0102349
0.0114878
0.0128194
-4.80043e-06
0.000388854
-0.000630696
-0.000286365
-0.000964829
-0.000116029
-0.000715312
-0.000323012
0.00104438
0.000931826
0.00300779
0.00278944
0.00480538
0.00544746
0.00657189
0.00740555
0.00869889
0.0100003
0.0111782
0.012431
-5.94459e-06
0.00035288
-0.000608167
-0.000268228
-0.000963827
-0.000126338
-0.000699884
-0.000330741
0.00107168
0.000900192
0.00298545
0.00276116
0.00472587
0.00540155
0.00644677
0.00727873
0.00850603
0.00975584
0.0108629
0.0120405
-7.20326e-06
0.000316156
-0.000584758
-0.000251297
-0.000961684
-0.000137644
-0.00068388
-0.00034103
0.00109781
0.000872566
0.00295322
0.00273894
0.0046359
0.00535214
0.00631521
0.00713749
0.00830447
0.00950092
0.0105417
0.0116501
-8.56853e-06
0.000278662
-0.000560506
-0.000235611
-0.000958546
-0.000149838
-0.000667528
-0.000353451
0.00112165
0.000849742
0.00291034
0.00272236
0.00453721
0.0052953
0.00617716
0.00698339
0.00809505
0.00923618
0.0102152
0.0112601
-1.00279e-05
0.000240377
-0.000535456
-0.000221234
-0.000954591
-0.000162706
-0.000651089
-0.000367539
0.00114219
0.000832678
0.00285631
0.00270977
0.00443104
0.00523027
0.00603154
0.00681566
0.00787999
0.00896244
0.00988299
0.0108707
-1.15575e-05
0.000201262
-0.000509667
-0.000208206
-0.000950078
-0.000176009
-0.000634901
-0.000382464
0.00115803
0.000821877
0.00279225
0.00269883
0.00431711
0.0051566
0.00587787
0.00663446
0.00766106
0.00868336
0.00954723
0.0104768
-1.31286e-05
0.000161311
-0.000483251
-0.000196512
-0.000945292
-0.000189371
-0.000619754
-0.000396832
0.00116846
0.000817001
0.00271836
0.00268922
0.004196
0.00507398
0.00571319
0.00643469
0.00743793
0.0084126
0.00921631
0.0100717
-1.4738e-05
0.000120542
-0.000456297
-0.000186162
-0.000940609
-0.000202201
-0.000606152
-0.000410629
0.00117293
0.000818347
0.00263512
0.00267717
0.00407147
0.00498233
0.00554026
0.00620941
0.00719631
0.00815827
0.00890536
0.00965958
-1.6417e-05
7.89084e-05
-0.00042893
-0.00017695
-0.000936541
-0.000214009
-0.000594274
-0.000423509
0.00117091
0.000824044
0.00254764
0.00265784
0.00394413
0.0048793
0.00536928
0.00597311
0.00692723
0.00789419
0.00858389
0.00926347
-1.80534e-05
3.63229e-05
-0.00040135
-0.000168753
-0.00093312
-0.000224777
-0.000584008
-0.000436023
0.00116351
0.000830408
0.00245975
0.00263123
0.00381354
0.00476379
0.00519669
0.00573747
0.00664666
0.00756236
0.0082255
0.00889961
-1.95273e-05
-7.17428e-06
-0.000373588
-0.000161712
-0.000930693
-0.000234198
-0.000575205
-0.000450414
0.00115132
0.000838428
0.00237249
0.00259285
0.0036862
0.0046346
0.00501938
0.00549304
0.00634375
0.0072226
0.00782912
0.00854638
-2.1209e-05
-5.12583e-05
-0.000346125
-0.000154679
-0.000930499
-0.00024104
-0.000570724
-0.000459601
0.00113206
0.000849382
0.00228464
0.00254695
0.00355196
0.00450006
0.00483158
0.00520299
0.00600293
0.00689949
0.00752625
0.00820966
-2.28664e-05
-9.61497e-05
-0.000319363
-0.000147362
-0.000932118
-0.000245886
-0.00056936
-0.000463785
0.00110593
0.000860736
0.00219547
0.00250026
0.0034008
0.00435132
0.00462358
0.00489718
0.00566091
0.00657951
0.00728089
0.00788155
-2.39797e-05
-0.000142177
-0.000292938
-0.000140829
-0.000935234
-0.000249424
-0.000566452
-0.000480632
0.00108126
0.000867144
0.00210763
0.00244642
0.0032465
0.00416895
0.00440908
0.00461678
0.00534086
0.0062602
0.0068843
0.00753027
-2.55118e-05
-0.000188243
-0.00026785
-0.000132942
-0.00094187
-0.000249614
-0.00056874
-0.000490645
0.00105176
0.000872173
0.0020188
0.00238564
0.00308576
0.00396417
0.00418487
0.00432417
0.00500116
0.00592535
0.00657904
0.00720548
-2.70587e-05
-0.000234675
-0.00024485
-0.00012281
-0.000951388
-0.000248071
-0.000574115
-0.000491913
0.00101566
0.000878478
0.00192208
0.00232383
0.00291174
0.00374443
0.00394679
0.00402912
0.00464359
0.00556525
0.00636664
0.00691198
-2.76132e-05
-0.000282412
-0.000223008
-0.000112891
-0.000962096
-0.000247997
-0.000571281
-0.000525512
0.000990765
0.000874756
0.00181844
0.00225446
0.00273656
0.00350482
0.00371749
0.00376555
0.0043067
0.00518735
0.00592202
0.00658264
-2.90101e-05
-0.000329139
-0.000204293
-9.9836e-05
-0.000976242
-0.000246174
-0.000571818
-0.000550856
0.000960446
0.000868745
0.00171006
0.00217485
0.00255594
0.00326135
0.00348274
0.00346494
0.00394988
0.00481028
0.00557124
0.00626468
-3.02661e-05
-0.000375776
-0.000189413
-8.32954e-05
-0.00099316
-0.000244742
-0.000573377
-0.000567668
0.000919672
0.000869171
0.00158782
0.00208495
0.00237589
0.00302109
0.00322618
0.00314218
0.00356008
0.00441133
0.00534877
0.00598127
-3.03405e-05
-0.000423369
-0.000177188
-6.62512e-05
-0.00100989
-0.000248384
-0.000562094
-0.000620689
0.000883519
0.000861262
0.00145987
0.00197576
0.00221486
0.00276532
0.00297682
0.00291171
0.00318732
0.00393176
0.00480831
0.00566305
-3.17266e-05
-0.000468766
-0.000170397
-4.49212e-05
-0.00102806
-0.000254441
-0.000550752
-0.000664666
0.000837066
0.000844835
0.00133206
0.0018562
0.00205583
0.00249796
0.00273989
0.00265623
0.00280755
0.00341229
0.00428147
0.00535472
-3.2351e-05
-0.00051363
-0.000168981
-2.0456e-05
-0.00104638
-0.000265535
-0.000537457
-0.000708012
0.000774428
0.000832176
0.00119702
0.00172517
0.00189455
0.00224562
0.00247538
0.00236363
0.00241569
0.00291291
0.00384363
0.0050783
-3.25671e-05
-0.000557906
-0.000172485
4.87993e-06
-0.00106178
-0.00028337
-0.000518095
-0.000759409
0.000701518
0.000816202
0.00105641
0.00158169
0.00173786
0.00199783
0.002171
0.00204851
0.00204807
0.002507
0.00345352
0.00475775
-3.39417e-05
-0.000599614
-0.000182564
3.21466e-05
-0.0010736
-0.00030848
-0.00049776
-0.000807465
0.000615322
0.000790083
0.000917928
0.00142806
0.00157805
0.00174232
0.00185841
0.00172758
0.00171445
0.00214929
0.00305349
0.00439
-3.44068e-05
-0.000640034
-0.000199217
6.03925e-05
-0.00108093
-0.000342048
-0.000473964
-0.000859841
0.00051147
0.000761642
0.000783287
0.00125608
0.00141664
0.00149117
0.00153657
0.00141181
0.00139646
0.00177917
0.00264195
0.00404591
-3.55013e-05
-0.000678046
-0.000221983
8.69379e-05
-0.00108215
-0.000381863
-0.000452417
-0.000910787
0.000397632
0.000723703
0.000650108
0.0010767
0.00124826
0.0012381
0.001219
0.00109782
0.0010633
0.00140851
0.00227448
0.00372599
-3.68856e-05
-0.00071344
-0.000251663
0.000111799
-0.00107607
-0.000429491
-0.000435596
-0.000956376
0.000271555
0.000671257
0.000525625
0.000888066
0.00106274
0.000994746
0.000913292
0.000767691
0.000717512
0.00105737
0.00193491
0.00341462
-3.818e-05
-0.000746585
-0.000287225
0.000133879
-0.00106378
-0.000483515
-0.000421986
-0.0010008
0.000132381
0.000607255
0.000407036
0.000687107
0.000870877
0.000762177
0.000602438
0.000425942
0.000377128
0.000726
0.0016134
0.00311162
-4.02755e-05
-0.000776672
-0.000328263
0.00015065
-0.0010454
-0.000541287
-0.000421421
-0.00104023
-1.40616e-05
0.000527684
0.000290714
0.000485914
0.000669624
0.000523399
0.000294137
8.80265e-05
4.66774e-05
0.000404127
0.00129489
0.00280745
-4.24834e-05
-0.0008037
-0.000374716
0.000161581
-0.00102167
-0.00060318
-0.000424498
-0.00107454
-0.00016716
0.000432471
0.000178433
0.000280412
0.000451437
0.000284632
-1.54318e-06
-0.000241693
-0.000282086
6.84631e-05
0.000965169
0.00251962
-4.53901e-05
-0.00082747
-0.000425401
0.00016501
-0.000994515
-0.000666776
-0.000437268
-0.00110403
-0.000323531
0.000318951
6.32701e-05
7.38938e-05
0.00022599
4.79445e-05
-0.000287143
-0.000570451
-0.000622806
-0.000272176
0.000654325
0.00225021
-4.8961e-05
-0.000847582
-0.000480069
0.000159736
-0.000965045
-0.000731437
-0.000460486
-0.00112929
-0.000482039
0.000187171
-5.27852e-05
-0.000127323
-6.28351e-06
-0.000196089
-0.000571505
-0.000898153
-0.000960896
-0.000598347
0.00034764
0.00197284
-5.32812e-05
-0.000864095
-0.000537329
0.000144874
-0.000935378
-0.000796365
-0.000493783
-0.0011521
-0.000639163
4.13044e-05
-0.000172694
-0.000328222
-0.000249227
-0.000450945
-0.000850634
-0.00120962
-0.00128863
-0.000926073
3.03216e-05
0.00169712
-5.88708e-05
-0.000876395
-0.000596567
0.000118992
-0.000907014
-0.000860789
-0.0005379
-0.00117328
-0.000791745
-0.00011942
-0.00030206
-0.000528451
-0.000496471
-0.000709081
-0.0011217
-0.00150871
-0.00161574
-0.00125705
-0.000285097
0.00142183
-6.58872e-05
-0.00088421
-0.000656779
8.15752e-05
-0.000881548
-0.000925231
-0.000592951
-0.00119427
-0.000938681
-0.000292715
-0.000440058
-0.000725773
-0.000744039
-0.000971287
-0.00139663
-0.0018041
-0.00193786
-0.00158385
-0.000600717
0.00114586
-7.48006e-05
-0.0008874
-0.000716115
3.19423e-05
-0.000861295
-0.000989316
-0.000658976
-0.00121696
-0.00107825
-0.000475354
-0.000587322
-0.000922098
-0.000993973
-0.00123847
-0.00167717
-0.00209548
-0.00224768
-0.00189962
-0.000909795
0.00087151
-8.59502e-05
-0.000885613
-0.000773717
-2.99575e-05
-0.000848573
-0.00105408
-0.000734943
-0.00124232
-0.00121067
-0.000664544
-0.000744459
-0.00111984
-0.0012445
-0.00150449
-0.00196124
-0.00238365
-0.00254381
-0.0022042
-0.00121326
0.000593857
-9.95358e-05
-0.000878773
-0.000828435
-0.00010403
-0.000845946
-0.00111988
-0.000817639
-0.00127192
-0.00133615
-0.000858212
-0.000912194
-0.00131885
-0.00149509
-0.00177006
-0.00224517
-0.00266934
-0.00283494
-0.00250535
-0.00150991
0.000322693
-0.000115307
-0.000868823
-0.000879565
-0.000189965
-0.000855689
-0.00118278
-0.000906442
-0.00130913
-0.00145663
-0.00105563
-0.00108989
-0.00151908
-0.00174771
-0.00203404
-0.00252437
-0.00295832
-0.0031273
-0.00279816
-0.00179139
6.08743e-05
-0.000133495
-0.00085681
-0.000928638
-0.000286014
-0.000872916
-0.00124148
-0.00100086
-0.0013568
-0.00157472
-0.00125569
-0.00127667
-0.0017212
-0.00200227
-0.00229698
-0.00280004
-0.00324996
-0.00341686
-0.00308083
-0.00206245
-0.000195789
-0.000154235
-0.000844046
-0.000975424
-0.000388237
-0.000898173
-0.00129818
-0.00110048
-0.00141548
-0.00169213
-0.00145779
-0.00147156
-0.00192511
-0.00225957
-0.0025624
-0.00306876
-0.00353564
-0.00370447
-0.0033623
-0.0023308
-0.000446754
-0.000177496
-0.000831191
-0.00101855
-0.000494341
-0.000934828
-0.00135533
-0.00120453
-0.00148461
-0.00180958
-0.00166125
-0.00167391
-0.00213012
-0.00251805
-0.00283148
-0.00333011
-0.00381328
-0.00399261
-0.00364765
-0.002599
-0.000690658
-0.000203431
-0.000821795
-0.00105778
-0.000603278
-0.000982878
-0.00141308
-0.00131182
-0.00156324
-0.00192763
-0.00186647
-0.00188408
-0.00233541
-0.002775
-0.00310612
-0.00358964
-0.00408236
-0.00427716
-0.00393357
-0.00286638
-0.000930418
-0.000232015
-0.000814819
-0.00109317
-0.000713637
-0.00104225
-0.00147438
-0.00142221
-0.00165147
-0.00204702
-0.00207298
-0.00210221
-0.00254129
-0.00302815
-0.00338601
-0.00385085
-0.00434178
-0.00455172
-0.00421531
-0.00313626
-0.00117311
-0.000263167
-0.000810844
-0.00112512
-0.000824048
-0.00111261
-0.00154047
-0.00153586
-0.00174907
-0.0021674
-0.00227888
-0.00232849
-0.00274905
-0.00327529
-0.00366849
-0.00411648
-0.00459449
-0.00481519
-0.0044922
-0.00340967
-0.00141937
-0.000296751
-0.000810402
-0.0011544
-0.000933525
-0.001193
-0.00161245
-0.00165291
-0.00185565
-0.00228872
-0.00248309
-0.00256344
-0.00296126
-0.00351596
-0.00395025
-0.00438783
-0.00484518
-0.00506971
-0.00476101
-0.00368004
-0.00166638
-0.000332618
-0.000813985
-0.00118189
-0.00104109
-0.00128231
-0.00169122
-0.00177371
-0.00197125
-0.0024118
-0.00268422
-0.00280602
-0.00317999
-0.00375021
-0.00422775
-0.0046644
-0.00509749
-0.00531607
-0.00501784
-0.00394337
-0.00191415
-0.000370612
-0.000822003
-0.00120898
-0.00114591
-0.00137955
-0.00177777
-0.00189839
-0.00209555
-0.00253783
-0.00288027
-0.00305344
-0.00340755
-0.00397997
-0.00449862
-0.00494433
-0.00535356
-0.00555718
-0.00526397
-0.00419804
-0.00216003
-0.00041054
-0.000834822
-0.00123625
-0.00124756
-0.00148343
-0.00187212
-0.00202699
-0.00222868
-0.00266808
-0.00307017
-0.00330322
-0.0036462
-0.00420886
-0.00476093
-0.0052234
-0.00561372
-0.00579732
-0.00550232
-0.00444276
-0.00240086
-0.000452241
-0.000852569
-0.00126482
-0.00134592
-0.00159253
-0.00197424
-0.00215988
-0.00237048
-0.00280396
-0.00325421
-0.00355232
-0.00389518
-0.00443954
-0.00501404
-0.00549824
-0.00587789
-0.00604003
-0.0057361
-0.00467823
-0.00263572
-0.000495659
-0.000875254
-0.00129554
-0.00144112
-0.00170556
-0.00208397
-0.00229731
-0.00252039
-0.00294726
-0.00343334
-0.00379646
-0.00415222
-0.00467591
-0.00526084
-0.00576729
-0.00614417
-0.00628651
-0.00596836
-0.00490723
-0.00286489
-0.000540682
-0.000902839
-0.00132927
-0.00153351
-0.00182149
-0.00220096
-0.00243908
-0.00267783
-0.00309905
-0.00360881
-0.00403341
-0.00441465
-0.00492102
-0.00550523
-0.00602915
-0.00640883
-0.00653571
-0.00620163
-0.00513366
-0.0030905
-0.000587238
-0.000935177
-0.00136673
-0.00162365
-0.00193914
-0.00232472
-0.00258548
-0.00284155
-0.00325993
-0.00378347
-0.00426253
-0.00467845
-0.00517465
-0.00575074
-0.00628451
-0.00666964
-0.00678645
-0.0064378
-0.00536055
-0.00331425
-0.000635343
-0.00097204
-0.00140848
-0.00171232
-0.00205756
-0.00245439
-0.00273665
-0.00301035
-0.00343023
-0.00396018
-0.00448337
-0.00494005
-0.00543517
-0.0059996
-0.00653592
-0.00692694
-0.00703842
-0.00667776
-0.00558984
-0.0035375
-0.000685021
-0.00101315
-0.00145483
-0.00180033
-0.00217618
-0.00258905
-0.00289272
-0.00318334
-0.00360916
-0.00414097
-0.00469713
-0.00519723
-0.00570035
-0.00625361
-0.00678606
-0.00718067
-0.00728951
-0.00692023
-0.00582267
-0.00376331
-0.000736342
-0.00105826
-0.00150585
-0.00188861
-0.0022947
-0.00272715
-0.0030538
-0.00336001
-0.00379503
-0.00432832
-0.00490603
-0.00544811
-0.00596783
-0.00651442
-0.00703789
-0.00743107
-0.00753764
-0.00716294
-0.00605892
-0.00399333
-0.000789356
-0.00110701
-0.00156152
-0.00197796
-0.00241319
-0.00286762
-0.00321948
-0.00354026
-0.00398598
-0.00452322
-0.00511251
-0.00569176
-0.00623426
-0.00678128
-0.00729514
-0.0076821
-0.00778477
-0.00740527
-0.00629615
-0.00422526
-0.000844072
-0.00115918
-0.0016216
-0.0020689
-0.0025318
-0.00300935
-0.00338927
-0.00372438
-0.00418033
-0.00472601
-0.0053193
-0.00592819
-0.00649693
-0.00705122
-0.0075586
-0.00793748
-0.00803475
-0.00764975
-0.00653565
-0.00445925
-0.000900549
-0.00121446
-0.00168587
-0.00216179
-0.0026509
-0.0031515
-0.00356176
-0.00391308
-0.00437663
-0.00493591
-0.00552982
-0.00615855
-0.00675431
-0.00732048
-0.00782614
-0.00819729
-0.00828877
-0.00789835
-0.00678003
-0.00469873
-0.000958823
-0.00127261
-0.00175391
-0.00225676
-0.0027709
-0.00329388
-0.00373519
-0.00410642
-0.00457433
-0.00515014
-0.00574747
-0.00638682
-0.00700684
-0.0075877
-0.00809634
-0.00846053
-0.00854568
-0.00814983
-0.00702824
-0.00494414
-0.00101888
-0.00133338
-0.00182514
-0.00235368
-0.00289223
-0.00343675
-0.00390811
-0.0043037
-0.00477336
-0.00536509
-0.00597268
-0.00661609
-0.00725584
-0.00785316
-0.00836966
-0.00872951
-0.00880825
-0.00840632
-0.00728057
-0.00519337
-0.00108075
-0.00139652
-0.001899
-0.00245235
-0.00301457
-0.00358047
-0.00408001
-0.00450398
-0.00497575
-0.00557811
-0.0062026
-0.0068484
-0.00750229
-0.00811554
-0.00864398
-0.0090048
-0.00907891
-0.00867095
-0.00753967
-0.0054483
-0.00114418
-0.00146177
-0.00197522
-0.00255231
-0.00313753
-0.003725
-0.00424986
-0.00470473
-0.00518378
-0.00578988
-0.00643334
-0.00708503
-0.00774958
-0.00837622
-0.00891737
-0.00928361
-0.00935599
-0.00894369
-0.00780716
-0.00571159
-0.00120916
-0.00152873
-0.00205313
-0.0026533
-0.00326102
-0.0038706
-0.00441777
-0.00490235
-0.00539634
-0.00600218
-0.00666177
-0.00732288
-0.00799771
-0.00863757
-0.00919104
-0.00956673
-0.00964143
-0.00922757
-0.00808639
-0.00598546
-0.00127533
-0.001597
-0.00213231
-0.00275476
-0.00338432
-0.00401661
-0.00458602
-0.00509662
-0.00561083
-0.00621661
-0.00688714
-0.00755955
-0.00824366
-0.00889696
-0.00946342
-0.00985246
-0.0099355
-0.00952517
-0.00838204
-0.00627517
-0.00134268
-0.00166593
-0.00221166
-0.00285552
-0.00350683
-0.00416167
-0.00475357
-0.00528736
-0.00582474
-0.0064335
-0.00711036
-0.00779488
-0.00848772
-0.00915341
-0.00973312
-0.0101374
-0.0102326
-0.00983138
-0.00869299
-0.00658713
-0.00141145
-0.00173494
-0.00229038
-0.00295555
-0.00362948
-0.00430711
-0.00492107
-0.0054741
-0.00603418
-0.00665022
-0.00733016
-0.00802739
-0.00872941
-0.00940733
-0.010001
-0.0104201
-0.0105273
-0.0101376
-0.00901121
-0.00691775
-0.00148121
-0.00180153
-0.00236611
-0.0030539
-0.00375039
-0.0044509
-0.00509134
-0.00566341
-0.00624203
-0.0068669
-0.00754841
-0.00825708
-0.00897004
-0.00966175
-0.0102735
-0.0107106
-0.010832
-0.0104513
-0.00933226
-0.00724714
-0.00155432
-0.00186666
-0.00243316
-0.00314535
-0.0038716
-0.00458999
-0.00525491
-0.00584787
-0.00644393
-0.00707856
-0.00776416
-0.00848341
-0.00920962
-0.00991933
-0.010555
-0.0110189
-0.0111679
-0.0108058
-0.00969261
-0.00759557
-0.00163648
-0.00193419
-0.00249783
-0.00323071
-0.00399509
-0.00473648
-0.00541932
-0.00602405
-0.00662029
-0.0072582
-0.0079526
-0.0086849
-0.00942614
-0.0101581
-0.0108208
-0.0113249
-0.0115317
-0.0112235
-0.0101513
-0.00809314
-0.00167861
-0.00199004
-0.00256003
-0.00330779
-0.00410892
-0.00490305
-0.00562137
-0.00622998
-0.00679691
-0.00740503
-0.00808521
-0.00881177
-0.0095606
-0.0102933
-0.0109519
-0.011468
-0.0117097
-0.0114872
-0.0105451
-0.00863768
-0.0017983
-0.00205134
-0.00263033
-0.00334205
-0.00414502
-0.0050138
-0.00581698
-0.00647425
-0.00707839
-0.00767261
-0.00835941
-0.00908605
-0.00984244
-0.0105719
-0.0111991
-0.0116139
-0.0117269
-0.0113885
-0.0103778
-0.00844257
-0.00174132
-0.00215117
-0.00272632
-0.00349818
-0.0043642
-0.00516173
-0.00582824
-0.0063754
-0.00694114
-0.00756586
-0.0082796
-0.00905523
-0.00986389
-0.0107159
-0.011618
-0.0124705
-0.0130735
-0.0131755
-0.0125004
-0.0108069
-0.00157687
-0.00228207
-0.00293274
-0.00373569
-0.00450002
-0.00537368
-0.00624888
-0.00693095
-0.00744891
-0.00801442
-0.0086957
-0.00941094
-0.00991162
-0.0100392
-0.00974375
-0.00911598
-0.00834176
-0.00772611
-0.00764493
-0.00843978
-0.0016294
-0.00231035
-0.00303015
-0.00377483
-0.00445997
-0.00508237
-0.00561037
-0.00622192
-0.00694567
-0.00774067
-0.00862471
-0.00962438
-0.0107174
-0.0118908
-0.0130732
-0.0141662
-0.0150079
-0.0153623
-0.0149394
-0.0134872
-0.00151236
-0.00239383
-0.00311463
-0.00388449
-0.0045596
-0.00533298
-0.00617324
-0.00706242
-0.00780735
-0.00835886
-0.00894747
-0.00968997
-0.0103983
-0.0108633
-0.0109542
-0.0106811
-0.0101756
-0.00973981
-0.00976924
-0.0106261
-0.00155051
-0.00244106
-0.00318749
-0.00390698
-0.00444624
-0.00491199
-0.00528249
-0.00582398
-0.00658634
-0.00761275
-0.00889719
-0.0104798
-0.0122805
-0.0141539
-0.0159035
-0.0173549
-0.0183316
-0.018645
-0.0180657
-0.0163934
0.0286383
0.00578823
-0.00389436
-0.00469601
-0.00398465
-0.00389199
-0.00450881
-0.00535601
-0.00601043
-0.00651581
-0.00703855
-0.00747394
-0.00777729
-0.00803578
-0.00834107
-0.00873185
-0.00912614
-0.00948541
-0.00991868
-0.0103804
-0.0107907
-0.0112083
-0.0116082
-0.0120033
-0.01242
-0.0128515
-0.0132614
-0.0136864
-0.0141346
-0.0146478
-0.0151709
-0.0156859
-0.0161927
-0.016685
-0.0172751
-0.0178779
-0.0185337
-0.0191728
-0.0198866
-0.0205918
-0.0213546
-0.022168
-0.02299
-0.0238956
-0.0247456
-0.0257192
-0.0266423
-0.0276449
-0.0284018
-0.0290412
0.0278785
0.00583495
-0.00385665
-0.00468031
-0.00397525
-0.00388525
-0.0045036
-0.00535198
-0.00600729
-0.00651326
-0.00703642
-0.00747211
-0.00777568
-0.00803435
-0.00833977
-0.00873071
-0.00912516
-0.00948454
-0.00991793
-0.0103798
-0.0107901
-0.0112078
-0.0116078
-0.0120028
-0.0124196
-0.0128511
-0.013261
-0.0136861
-0.0141344
-0.0146475
-0.0151706
-0.0156856
-0.0161925
-0.0166848
-0.0172749
-0.0178777
-0.0185336
-0.0191726
-0.0198865
-0.0205917
-0.0213544
-0.0221679
-0.0229899
-0.0238955
-0.0247455
-0.0257191
-0.0266422
-0.0276449
-0.0284017
-0.0290411
0.0272126
0.00593681
-0.00379073
-0.00466065
-0.00396521
-0.0038784
-0.0044986
-0.00534819
-0.00600433
-0.0065109
-0.00703453
-0.0074705
-0.00777425
-0.00803307
-0.00833861
-0.00872969
-0.00912429
-0.00948376
-0.00991724
-0.0103792
-0.0107896
-0.0112073
-0.0116074
-0.0120025
-0.0124193
-0.0128508
-0.0132607
-0.0136859
-0.0141341
-0.0146473
-0.0151704
-0.0156854
-0.0161923
-0.0166846
-0.0172747
-0.0178775
-0.0185334
-0.0191725
-0.0198864
-0.0205916
-0.0213543
-0.0221678
-0.0229898
-0.0238954
-0.0247454
-0.025719
-0.0266421
-0.0276448
-0.0284017
-0.0290411
0.0266112
0.00607465
-0.00369194
-0.00463235
-0.00395236
-0.0038703
-0.00449298
-0.00534384
-0.00600087
-0.00650826
-0.00703255
-0.00746887
-0.00777278
-0.00803176
-0.00833742
-0.00872864
-0.0091234
-0.00948294
-0.00991652
-0.0103786
-0.0107891
-0.0112069
-0.0116069
-0.0120021
-0.012419
-0.0128505
-0.0132605
-0.0136856
-0.0141339
-0.014647
-0.0151702
-0.0156852
-0.0161922
-0.0166844
-0.0172746
-0.0178774
-0.0185333
-0.0191724
-0.0198862
-0.0205915
-0.0213542
-0.0221677
-0.0229897
-0.0238954
-0.0247453
-0.0257189
-0.0266421
-0.0276448
-0.0284016
-0.029041
0.0260091
0.00622559
-0.0035683
-0.00459567
-0.00393598
-0.00386031
-0.00448621
-0.00533835
-0.00599637
-0.00650498
-0.00703026
-0.00746697
-0.00777106
-0.00803027
-0.00833611
-0.00872749
-0.0091224
-0.00948199
-0.00991569
-0.010378
-0.0107885
-0.0112064
-0.0116065
-0.0120017
-0.0124186
-0.0128502
-0.0132602
-0.0136853
-0.0141336
-0.0146468
-0.01517
-0.015685
-0.016192
-0.0166842
-0.0172744
-0.0178772
-0.0185331
-0.0191723
-0.0198861
-0.0205913
-0.0213541
-0.0221676
-0.0229896
-0.0238953
-0.0247452
-0.0257189
-0.026642
-0.0276447
-0.0284016
-0.0290409
0.0253917
0.00638138
-0.00342948
-0.00455422
-0.00391718
-0.00384867
-0.00447831
-0.00533157
-0.00599062
-0.00650097
-0.00702759
-0.00746469
-0.00776892
-0.00802846
-0.0083346
-0.0087262
-0.00912125
-0.00948088
-0.00991471
-0.0103772
-0.0107878
-0.0112058
-0.011606
-0.0120012
-0.0124182
-0.0128498
-0.0132598
-0.013685
-0.0141333
-0.0146465
-0.0151697
-0.0156848
-0.0161918
-0.016684
-0.0172742
-0.0178771
-0.018533
-0.0191721
-0.019886
-0.0205912
-0.021354
-0.0221675
-0.0229895
-0.0238952
-0.0247452
-0.0257188
-0.0266419
-0.0276447
-0.0284017
-0.0290407
0.0247627
0.0065396
-0.00328105
-0.00451085
-0.00389735
-0.00383596
-0.00446959
-0.00532373
-0.00598374
-0.00649632
-0.00702466
-0.00746201
-0.00776621
-0.00802617
-0.00833278
-0.00872472
-0.00911996
-0.00947958
-0.00991354
-0.0103763
-0.010787
-0.0112051
-0.0116054
-0.0120007
-0.0124177
-0.0128494
-0.0132594
-0.0136847
-0.014133
-0.0146462
-0.0151695
-0.0156846
-0.0161915
-0.0166838
-0.017274
-0.0178769
-0.0185328
-0.019172
-0.0198858
-0.0205911
-0.0213539
-0.0221674
-0.0229894
-0.0238951
-0.0247451
-0.0257187
-0.0266419
-0.0276446
-0.0284017
-0.0290405
0.0241269
0.00669838
-0.00312535
-0.00446687
-0.00387737
-0.00382265
-0.00446036
-0.00531518
-0.00597603
-0.00649127
-0.00702167
-0.00745908
-0.00776289
-0.00802319
-0.00833045
-0.00872297
-0.00911852
-0.00947811
-0.00991218
-0.0103752
-0.010786
-0.0112043
-0.0116047
-0.0120001
-0.0124172
-0.0128489
-0.013259
-0.0136843
-0.0141326
-0.014646
-0.0151692
-0.0156843
-0.0161913
-0.0166836
-0.0172738
-0.0178767
-0.0185326
-0.0191718
-0.0198857
-0.020591
-0.0213537
-0.0221673
-0.0229893
-0.023895
-0.024745
-0.0257186
-0.0266418
-0.0276446
-0.0284017
-0.0290403
0.0234871
0.00685591
-0.00296286
-0.0044225
-0.00385769
-0.00380902
-0.00445086
-0.00530627
-0.00596783
-0.00648605
-0.00701888
-0.00745614
-0.00775911
-0.00801947
-0.00832744
-0.00872081
-0.00911691
-0.00947653
-0.00991067
-0.0103739
-0.0107849
-0.0112033
-0.0116039
-0.0119994
-0.0124166
-0.0128484
-0.0132586
-0.0136838
-0.0141322
-0.0146456
-0.015169
-0.0156841
-0.0161911
-0.0166833
-0.0172735
-0.0178765
-0.0185324
-0.0191716
-0.0198855
-0.0205908
-0.0213536
-0.0221672
-0.0229892
-0.0238949
-0.0247449
-0.0257185
-0.0266417
-0.0276445
-0.0284018
-0.0290401
0.0228447
0.00701095
-0.00279315
-0.0043775
-0.00383849
-0.0037952
-0.00444121
-0.00529721
-0.00595938
-0.00648083
-0.00701641
-0.00745343
-0.00775512
-0.00801514
-0.00832365
-0.00871809
-0.00911509
-0.00947489
-0.0099091
-0.0103725
-0.0107835
-0.0112021
-0.0116029
-0.0119985
-0.0124158
-0.0128478
-0.013258
-0.0136833
-0.0141317
-0.0146452
-0.0151687
-0.0156838
-0.0161909
-0.0166831
-0.0172733
-0.0178763
-0.0185322
-0.0191714
-0.0198853
-0.0205906
-0.0213534
-0.022167
-0.0229891
-0.0238948