/*--------------------------------*- C++ -*----------------------------------*\
| =========                 |                                                 |
| \\      /  F ield         | OpenFOAM: The Open Source CFD Toolbox           |
|  \\    /   O peration     | Version:  v2012                                 |
|   \\  /    A nd           | Website:  www.openfoam.com                      |
|    \\/     M anipulation  |                                                 |
\*---------------------------------------------------------------------------*/
FoamFile
{
    version     2.0;
    format      ascii;
    class       surfaceScalarField;
    location    "7.8";
    object      phi;
}
// * * * * * * * * * * * * * * * * * * * * * * * * * * * * * * * * * * * * * //

dimensions      [0 3 -1 0 0 0 0];
oriented        oriented;


internalField   nonuniform List<scalar> 
13830
(
9.79068e-07
-1.30955e-06
9.57638e-07
3.02722e-06
9.09862e-07
-7.14551e-07
9.51616e-07
-2.48125e-06
9.94157e-07
-2.95248e-06
9.98575e-07
-1.30518e-06
1.01463e-06
-1.90073e-07
9.5817e-07
1.17628e-07
9.86786e-07
6.68247e-07
9.60126e-07
4.12169e-07
9.5763e-07
1.05483e-07
9.6534e-07
4.14218e-08
9.59284e-07
-2.58294e-07
9.62245e-07
-1.27806e-07
9.6485e-07
-3.85739e-07
9.61624e-07
-2.85065e-07
9.7059e-07
-3.50888e-07
9.64035e-07
-2.86768e-07
9.72162e-07
-2.15232e-07
-2.26096e-07
9.50595e-07
1.01674e-06
-1.35377e-06
1.02591e-06
3.01806e-06
9.5625e-07
-6.44896e-07
9.73429e-07
-2.49843e-06
1.02618e-06
-3.00523e-06
1.03438e-06
-1.31337e-06
1.05264e-06
-2.08333e-07
9.99081e-07
1.71182e-07
1.01999e-06
6.47342e-07
1.00738e-06
4.24778e-07
9.94631e-07
1.18229e-07
1.01294e-06
2.31151e-08
9.9756e-07
-2.42916e-07
1.00783e-06
-1.38077e-07
9.97919e-07
-3.75826e-07
1.00395e-06
-2.91096e-07
9.98699e-07
-3.45638e-07
1.00466e-06
-2.92729e-07
9.98221e-07
-2.08793e-07
-2.23906e-07
9.96031e-07
1.05412e-06
-1.39843e-06
1.08748e-06
2.98471e-06
1.00478e-06
-5.62197e-07
1.00189e-06
-2.49554e-06
1.05464e-06
-3.05798e-06
1.07123e-06
-1.32996e-06
1.08892e-06
-2.26024e-07
1.04788e-06
2.12225e-07
1.05578e-06
6.39439e-07
1.05907e-06
4.21484e-07
1.03775e-06
1.3955e-07
1.05783e-06
3.03971e-09
1.03776e-06
-2.22854e-07
1.04524e-06
-1.45556e-07
1.02952e-06
-3.60103e-07
1.03576e-06
-2.97339e-07
1.02562e-06
-3.35493e-07
1.03433e-06
-3.01446e-07
1.02671e-06
-2.01168e-07
-2.25391e-07
1.02819e-06
1.09096e-06
-1.44161e-06
1.13857e-06
2.93709e-06
1.05135e-06
-4.74973e-07
1.034e-06
-2.47819e-06
1.07957e-06
-3.10355e-06
1.10722e-06
-1.35761e-06
1.12406e-06
-2.42867e-07
1.09918e-06
2.37105e-07
1.09892e-06
6.39707e-07
1.10908e-06
4.11321e-07
1.08652e-06
1.62111e-07
1.09973e-06
-1.01694e-08
1.08024e-06
-2.03369e-07
1.08075e-06
-1.46065e-07
1.06401e-06
-3.43358e-07
1.06701e-06
-3.00341e-07
1.05581e-06
-3.24293e-07
1.06379e-06
-3.09425e-07
1.05711e-06
-1.94489e-07
-2.27628e-07
1.05934e-06
1.12665e-06
-1.48071e-06
1.17894e-06
2.8848e-06
1.0971e-06
-3.93129e-07
1.07015e-06
-2.45124e-06
1.10355e-06
-3.13695e-06
1.14121e-06
-1.39527e-06
1.15887e-06
-2.60523e-07
1.14936e-06
2.46615e-07
1.14803e-06
6.41038e-07
1.15755e-06
4.01792e-07
1.13734e-06
1.82321e-07
1.14164e-06
-1.44641e-08
1.12355e-06
-1.85278e-07
1.11875e-06
-1.41268e-07
1.10156e-06
-3.26164e-07
1.10176e-06
-3.0054e-07
1.08976e-06
-3.12292e-07
1.09593e-06
-3.156e-07
1.08993e-06
-1.8849e-07
-2.2918e-07
1.09148e-06
1.16096e-06
-1.51283e-06
1.21113e-06
2.83463e-06
1.14324e-06
-3.25238e-07
1.11033e-06
-2.41833e-06
1.12982e-06
-3.15644e-06
1.17381e-06
-1.43926e-06
1.19461e-06
-2.81319e-07
1.19759e-06
2.43629e-07
1.19957e-06
6.3906e-07
1.20571e-06
3.95655e-07
1.18737e-06
2.00657e-07
1.18473e-06
-1.18201e-08
1.16681e-06
-1.67365e-07
1.15955e-06
-1.34003e-07
1.14146e-06
-3.08078e-07
1.1398e-06
-2.9888e-07
1.12667e-06
-2.99161e-07
1.13069e-06
-3.19614e-07
1.12477e-06
-1.82575e-07
-2.29391e-07
1.12498e-06
1.19442e-06
-1.53555e-06
1.23903e-06
2.79002e-06
1.1902e-06
-2.7641e-07
1.15426e-06
-2.38239e-06
1.16061e-06
-3.16279e-06
1.20667e-06
-1.48532e-06
1.23215e-06
-3.06791e-07
1.24465e-06
2.31124e-07
1.2507e-06
6.33018e-07
1.25394e-06
3.92413e-07
1.23566e-06
2.18932e-07
1.22879e-06
-4.9493e-09
1.2101e-06
-1.48673e-07
1.2023e-06
-1.26203e-07
1.18319e-06
-2.8897e-07
1.18033e-06
-2.96014e-07
1.16602e-06
-2.84858e-07
1.1678e-06
-3.21394e-07
1.16164e-06
-1.76409e-07
-2.27948e-07
1.16019e-06
1.22838e-06
-1.54775e-06
1.26706e-06
2.75134e-06
1.23831e-06
-2.47652e-07
1.20159e-06
-2.34568e-06
1.1966e-06
-3.1578e-06
1.24138e-06
-1.5301e-06
1.2716e-06
-3.37016e-07
1.29131e-06
2.11421e-07
1.30023e-06
6.24091e-07
1.30191e-06
3.90732e-07
1.28254e-06
2.38301e-07
1.27336e-06
4.23714e-09
1.25374e-06
-1.29056e-07
1.2464e-06
-1.18867e-07
1.22655e-06
-2.6911e-07
1.22281e-06
-2.92283e-07
1.20769e-06
-2.6973e-07
1.20723e-06
-3.20938e-07
1.20082e-06
-1.69996e-07
-2.24738e-07
1.19761e-06
1.26456e-06
-1.54995e-06
1.299e-06
2.71689e-06
1.28779e-06
-2.3644e-07
1.25176e-06
-2.30965e-06
1.23731e-06
-3.14334e-06
1.27879e-06
-1.57159e-06
1.31254e-06
-3.70766e-07
1.33769e-06
1.86276e-07
1.34806e-06
6.13719e-07
1.34904e-06
3.8975e-07
1.3285e-06
2.58841e-07
1.31808e-06
1.46566e-08
1.29794e-06
-1.08916e-07
1.2916e-06
-1.12528e-07
1.27149e-06
-2.48998e-07
1.26705e-06
-2.87841e-07
1.25167e-06
-2.54352e-07
1.249e-06
-3.18266e-07
1.2425e-06
-1.63499e-07
-2.19823e-07
1.23759e-06
1.30445e-06
-1.54412e-06
1.33711e-06
2.68423e-06
1.33884e-06
-2.38174e-07
1.30416e-06
-2.27497e-06
1.2819e-06
-3.12108e-06
1.3191e-06
-1.60879e-06
1.35436e-06
-4.06026e-07
1.38346e-06
1.57179e-07
1.39421e-06
6.02961e-07
1.39479e-06
3.89178e-07
1.37372e-06
2.79909e-07
1.36278e-06
2.55891e-08
1.34278e-06
-8.89154e-08
1.3378e-06
-1.0755e-07
1.31803e-06
-2.29228e-07
1.31299e-06
-2.82798e-07
1.29799e-06
-2.39348e-07
1.29317e-06
-3.13445e-07
1.28673e-06
-1.57064e-07
-2.13392e-07
1.2803e-06
1.34886e-06
-1.53296e-06
1.38185e-06
2.65123e-06
1.39146e-06
-2.47779e-07
1.35828e-06
-2.2418e-06
1.32965e-06
-3.09244e-06
1.36204e-06
-1.64118e-06
1.39652e-06
-4.40505e-07
1.42813e-06
1.25568e-07
1.43858e-06
5.92513e-07
1.43884e-06
3.88921e-07
1.41818e-06
3.00565e-07
1.40744e-06
3.63253e-08
1.38833e-06
-6.98037e-08
1.38499e-06
-1.04207e-07
1.36618e-06
-2.10419e-07
1.36069e-06
-2.7731e-07
1.34663e-06
-2.25283e-07
1.3398e-06
-3.06617e-07
1.33351e-06
-1.50777e-07
-2.05677e-07
1.32579e-06
1.39777e-06
-1.51907e-06
1.4323e-06
2.6167e-06
1.44547e-06
-2.60946e-07
1.41382e-06
-2.21015e-06
1.3801e-06
-3.05872e-06
1.40723e-06
-1.66831e-06
1.43875e-06
-4.7203e-07
1.47139e-06
9.29254e-08
1.48105e-06
5.82852e-07
1.48124e-06
3.88732e-07
1.462e-06
3.19809e-07
1.45228e-06
4.60467e-08
1.43479e-06
-5.2311e-08
1.43322e-06
-1.02645e-07
1.41597e-06
-1.93164e-07
1.41022e-06
-2.71563e-07
1.39754e-06
-2.12598e-07
1.38894e-06
-2.98016e-07
1.38286e-06
-1.44698e-07
-1.9689e-07
1.37407e-06
1.45054e-06
-1.50437e-06
1.48688e-06
2.58036e-06
1.50068e-06
-2.74748e-07
1.47066e-06
-2.18012e-06
1.43301e-06
-3.02106e-06
1.45435e-06
-1.68965e-06
1.48115e-06
-4.98833e-07
1.51328e-06
6.08029e-08
1.52185e-06
5.74276e-07
1.52252e-06
3.88063e-07
1.50561e-06
3.36716e-07
1.49778e-06
5.38812e-08
1.48251e-06
-3.70448e-08
1.4827e-06
-1.02829e-07
1.46752e-06
-1.77989e-07
1.46166e-06
-2.65699e-07
1.45065e-06
-2.01589e-07
1.44059e-06
-2.87959e-07
1.43479e-06
-1.38895e-07
-1.87228e-07
1.42512e-06
1.50631e-06
-1.48981e-06
1.54414e-06
2.54253e-06
1.55704e-06
-2.87644e-07
1.52881e-06
-2.1519e-06
1.48827e-06
-2.98053e-06
1.50337e-06
-1.70475e-06
1.52426e-06
-5.19726e-07
1.55432e-06
3.07479e-08
1.56171e-06
5.66883e-07
1.56366e-06
3.86108e-07
1.54983e-06
3.50545e-07
1.54465e-06
5.90675e-08
1.53202e-06
-2.44176e-08
1.5337e-06
-1.0451e-07
1.52102e-06
-1.6531e-07
1.51508e-06
-2.59752e-07
1.50585e-06
-1.92358e-07
1.49471e-06
-2.7682e-07
1.48924e-06
-1.3343e-07
-1.76897e-07
1.47891e-06
1.56441e-06
-1.4756e-06
1.60321e-06
2.50373e-06
1.61466e-06
-2.99091e-07
1.58833e-06
-2.12556e-06
1.54584e-06
-2.93804e-06
1.55454e-06
-1.71345e-06
1.56902e-06
-5.34205e-07
1.59563e-06
4.13931e-09
1.60191e-06
5.606e-07
1.60603e-06
3.81996e-07
1.59574e-06
3.60835e-07
1.59365e-06
6.11523e-08
1.58387e-06
-1.46316e-08
1.58661e-06
-1.07252e-07
1.5767e-06
-1.55401e-07
1.5706e-06
-2.53656e-07
1.56306e-06
-1.84815e-07
1.55123e-06
-2.64989e-07
1.54611e-06
-1.28309e-07
-1.66137e-07
1.53535e-06
1.62449e-06
-1.46155e-06
1.66388e-06
2.46434e-06
1.67382e-06
-3.09034e-07
1.64931e-06
-2.10106e-06
1.60567e-06
-2.8944e-06
1.60837e-06
-1.71615e-06
1.61662e-06
-5.42452e-07
1.63879e-06
-1.80321e-08
1.64412e-06
5.5527e-07
1.65106e-06
3.75052e-07
1.64443e-06
3.67463e-07
1.64545e-06
6.01379e-08
1.63855e-06
-7.72858e-09
1.64179e-06
-1.10495e-07
1.63474e-06
-1.48352e-07
1.6284e-06
-2.47318e-07
1.62229e-06
-1.78705e-07
1.61013e-06
-2.52833e-07
1.60528e-06
-1.23452e-07
-1.55199e-07
1.59434e-06
1.68658e-06
-1.44739e-06
1.72635e-06
2.42457e-06
1.73484e-06
-3.17516e-07
1.71192e-06
-2.07814e-06
1.66774e-06
-2.85022e-06
1.66535e-06
-1.71376e-06
1.66811e-06
-5.45218e-07
1.68541e-06
-3.53311e-08
1.68994e-06
5.50747e-07
1.69997e-06
3.65016e-07
1.69683e-06
3.70607e-07
1.70047e-06
5.64943e-08
1.69641e-06
-3.66572e-09
1.69957e-06
-1.13661e-07
1.69528e-06
-1.4406e-07
1.68866e-06
-2.40691e-07
1.68363e-06
-1.73675e-07
1.67145e-06
-2.40656e-07
1.66672e-06
-1.18724e-07
-1.44298e-07
1.65582e-06
1.75086e-06
-1.43293e-06
1.79098e-06
2.38444e-06
1.79797e-06
-3.24506e-07
1.77633e-06
-2.0565e-06
1.73205e-06
-2.80594e-06
1.72582e-06
-1.70753e-06
1.72421e-06
-5.436e-07
1.73678e-06
-4.79007e-08
1.74058e-06
5.46944e-07
1.75348e-06
3.52116e-07
1.75345e-06
3.70632e-07
1.75891e-06
5.10406e-08
1.7576e-06
-2.35914e-09
1.76021e-06
-1.16273e-07
1.7584e-06
-1.42246e-07
1.75152e-06
-2.33809e-07
1.7472e-06
-1.69357e-07
1.73523e-06
-2.28688e-07
1.7305e-06
-1.13989e-07
-1.33591e-07
1.71979e-06
1.81753e-06
-1.41812e-06
1.85806e-06
2.34391e-06
1.86345e-06
-3.29903e-07
1.84279e-06
-2.03584e-06
1.79868e-06
-2.76182e-06
1.78994e-06
-1.6988e-06
1.78515e-06
-5.38802e-07
1.79358e-06
-5.63336e-08
1.79671e-06
5.43817e-07
1.81182e-06
3.36998e-07
1.81449e-06
3.67962e-07
1.82078e-06
4.47519e-08
1.82208e-06
-3.65319e-09
1.82385e-06
-1.18052e-07
1.82409e-06
-1.42483e-07
1.81707e-06
-2.26786e-07
1.81316e-06
-1.65446e-07
1.80154e-06
-2.17071e-07
1.79673e-06
-1.09179e-07
-1.23172e-07
1.78631e-06
1.88676e-06
-1.40298e-06
1.92777e-06
2.3029e-06
1.93148e-06
-3.3361e-07
1.91154e-06
-2.0159e-06
1.86775e-06
-2.71803e-06
1.85768e-06
-1.68873e-06
1.85083e-06
-5.31957e-07
1.85598e-06
-6.14779e-08
1.85848e-06
5.41311e-07
1.87491e-06
3.20573e-07
1.87991e-06
3.62966e-07
1.88607e-06
3.85922e-08
1.88974e-06
-7.32514e-09
1.89055e-06
-1.18862e-07
1.89232e-06
-1.44251e-07
1.88532e-06
-2.19794e-07
1.88158e-06
-1.61701e-07
1.87041e-06
-2.05903e-07
1.86553e-06
-1.04302e-07
-1.13113e-07
1.85547e-06
1.95863e-06
-1.38751e-06
2.00023e-06
2.2613e-06
2.00223e-06
-3.3561e-07
1.98283e-06
-1.99649e-06
1.93939e-06
-2.67459e-06
1.92891e-06
-1.67825e-06
1.92099e-06
-5.24043e-07
1.92378e-06
-6.42701e-08
1.9258e-06
5.39289e-07
1.94252e-06
3.03853e-07
1.94958e-06
3.55909e-07
1.95484e-06
3.3329e-08
1.96053e-06
-1.30068e-08
1.96031e-06
-1.18643e-07
1.96306e-06
-1.47002e-07
1.95625e-06
-2.12987e-07
1.95253e-06
-1.57977e-07
1.94185e-06
-1.95229e-07
1.93699e-06
-9.94356e-08
-1.03484e-07
1.92736e-06
2.03322e-06
-1.37169e-06
2.07553e-06
2.21899e-06
2.0759e-06
-3.35977e-07
2.0569e-06
-1.97749e-06
2.01375e-06
-2.63144e-06
2.00343e-06
-1.66793e-06
1.99524e-06
-5.15845e-07
1.9966e-06
-6.56301e-08
1.99841e-06
5.3747e-07
2.01445e-06
2.87819e-07
2.02341e-06
3.4695e-07
2.02719e-06
2.95448e-08
2.03443e-06
-2.02471e-08
2.03318e-06
-1.1739e-07
2.03636e-06
-1.50184e-07
2.02985e-06
-2.06473e-07
2.02606e-06
-1.54185e-07
2.01587e-06
-1.85042e-07
2.01112e-06
-9.46904e-08
-9.4367e-08
2.00201e-06
2.11061e-06
-1.35545e-06
2.15376e-06
2.17584e-06
2.15264e-06
-3.34855e-07
2.13398e-06
-1.95883e-06
2.09094e-06
-2.58841e-06
2.08103e-06
-1.65802e-06
2.07312e-06
-5.07933e-07
2.07389e-06
-6.63959e-08
2.07596e-06
5.35395e-07
2.09046e-06
2.73316e-07
2.10118e-06
3.3623e-07
2.10317e-06
2.75565e-08
2.11149e-06
-2.85604e-08
2.10926e-06
-1.15165e-07
2.11233e-06
-1.53255e-07
2.10616e-06
-2.00303e-07
2.10226e-06
-1.5028e-07
2.09248e-06
-1.75268e-07
2.08797e-06
-9.01765e-08
-8.58402e-08
2.07944e-06
2.19089e-06
-1.33876e-06
2.23502e-06
2.13171e-06
2.23259e-06
-3.32422e-07
2.21426e-06
-1.94049e-06
2.17109e-06
-2.54524e-06
2.16145e-06
-1.64839e-06
2.15416e-06
-5.00644e-07
2.15503e-06
-6.72659e-08
2.158e-06
5.3243e-07
2.17035e-06
2.60971e-07
2.18275e-06
3.23827e-07
2.18285e-06
2.74551e-08
2.19175e-06
-3.74624e-08
2.1887e-06
-1.12109e-07
2.19115e-06
-1.55713e-07
2.18531e-06
-1.94462e-07
2.18127e-06
-1.46234e-07
2.17179e-06
-1.6579e-07
2.16757e-06
-8.59571e-08
-7.79712e-08
2.1597e-06
2.27418e-06
-1.32155e-06
2.31941e-06
2.08647e-06
2.31587e-06
-3.28873e-07
2.29789e-06
-1.92252e-06
2.25428e-06
-2.50163e-06
2.2445e-06
-1.6386e-06
2.23795e-06
-4.94097e-07
2.23942e-06
-6.87364e-08
2.24401e-06
5.27835e-07
2.25396e-06
2.51024e-07
2.26798e-06
3.09807e-07
2.26627e-06
2.91631e-08
2.27531e-06
-4.64992e-08
2.27163e-06
-1.08431e-07
2.27308e-06
-1.5716e-07
2.26745e-06
-1.8883e-07
2.26322e-06
-1.42008e-07
2.25389e-06
-1.56457e-07
2.25001e-06
-8.20801e-08
-7.0793e-08
2.24283e-06
2.36059e-06
-1.30375e-06
2.40704e-06
2.04002e-06
2.40257e-06
-3.24402e-07
2.38497e-06
-1.90491e-06
2.34062e-06
-2.45728e-06
2.33006e-06
-1.62805e-06
2.32423e-06
-4.88262e-07
2.32655e-06
-7.10577e-08
2.33354e-06
5.20846e-07
2.34123e-06
2.43333e-07
2.35678e-06
2.94259e-07
2.3535e-06
3.24451e-08
2.36224e-06
-5.52473e-08
2.3582e-06
-1.0439e-07
2.35835e-06
-1.57309e-07
2.3528e-06
-1.83281e-07
2.34818e-06
-1.37382e-07
2.33874e-06
-1.47022e-07
2.33545e-06
-7.87904e-08
-6.42638e-08
2.32892e-06
2.45022e-06
-1.2853e-06
2.49803e-06
1.99221e-06
2.49283e-06
-3.19203e-07
2.47557e-06
-1.88765e-06
2.4302e-06
-2.41191e-06
2.41821e-06
-1.61605e-06
2.41301e-06
-4.83068e-07
2.41621e-06
-7.426e-08
2.42624e-06
5.10819e-07
2.43208e-06
2.37492e-07
2.44905e-06
2.77293e-07
2.44457e-06
3.69236e-08
2.45266e-06
-6.33364e-08
2.44853e-06
-1.00262e-07
2.44711e-06
-1.55884e-07
2.44171e-06
-1.77885e-07
2.43584e-06
-1.31514e-07
2.42622e-06
-1.37401e-07
2.42412e-06
-7.66904e-08
-5.82434e-08
2.4181e-06
2.54321e-06
-1.2661e-06
2.59251e-06
1.94291e-06
2.58677e-06
-3.13463e-07
2.56975e-06
-1.87063e-06
2.52313e-06
-2.3653e-06
2.5091e-06
-1.60202e-06
2.50455e-06
-4.78517e-07
2.50847e-06
-7.81766e-08
2.522e-06
4.97287e-07
2.52648e-06
2.33013e-07
2.54475e-06
2.59023e-07
2.5395e-06
4.2174e-08
2.54665e-06
-7.04854e-08
2.54268e-06
-9.62914e-08
2.53955e-06
-1.52752e-07
2.53425e-06
-1.72589e-07
2.53255e-06
-1.29817e-07
2.52492e-06
-1.29767e-07
2.51629e-06
-6.80614e-08
-5.25498e-08
2.5106e-06
2.63966e-06
-1.24608e-06
2.69064e-06
1.89193e-06
2.68452e-06
-3.07348e-07
2.66753e-06
-1.85364e-06
2.61953e-06
-2.31729e-06
2.60301e-06
-1.5855e-06
2.59923e-06
-4.74737e-07
2.60359e-06
-8.25333e-08
2.62083e-06
4.8004e-07
2.62444e-06
2.29403e-07
2.64385e-06
2.39618e-07
2.6383e-06
4.77249e-08
2.64425e-06
-7.64384e-08
2.64061e-06
-9.26466e-08
2.63644e-06
-1.48583e-07
2.62856e-06
-1.64717e-07
2.62248e-06
-1.23735e-07
2.61295e-06
-1.20233e-07
2.61172e-06
-6.68314e-08
-4.75311e-08
2.6067e-06
2.73972e-06
-1.22515e-06
2.79254e-06
1.8391e-06
2.7862e-06
-3.01001e-07
2.76898e-06
-1.83643e-06
2.71953e-06
-2.26785e-06
2.70027e-06
-1.56624e-06
2.69742e-06
-4.71885e-07
2.70199e-06
-8.71058e-08
2.72283e-06
4.59204e-07
2.72609e-06
2.2614e-07
2.7462e-06
2.19508e-07
2.74113e-06
5.27995e-08
2.74534e-06
-8.06553e-08
2.74264e-06
-8.99478e-08
2.73711e-06
-1.43053e-07
2.72776e-06
-1.55367e-07
2.72061e-06
-1.16579e-07
2.71104e-06
-1.10669e-07
2.71135e-06
-6.71319e-08
-4.25958e-08
2.70641e-06
2.84353e-06
-1.20322e-06
2.89836e-06
1.78428e-06
2.89189e-06
-2.9453e-07
2.87413e-06
-1.81867e-06
2.82332e-06
-2.21704e-06
2.80121e-06
-1.54413e-06
2.7995e-06
-4.70174e-07
2.80406e-06
-9.16626e-08
2.82813e-06
4.35134e-07
2.83152e-06
2.22754e-07
2.85178e-06
1.99247e-07
2.84806e-06
5.65176e-08
2.8499e-06
-8.24985e-08
2.84859e-06
-8.86394e-08
2.84304e-06
-1.37501e-07
2.84022e-06
-1.5255e-07
2.83811e-06
-1.14465e-07
2.82963e-06
-1.02184e-07
2.81563e-06
-5.31347e-08
-3.68666e-08
2.8099e-06
2.95127e-06
-1.18025e-06
3.00819e-06
1.72737e-06
3.00166e-06
-2.88004e-07
2.98307e-06
-1.80008e-06
2.93112e-06
-2.16509e-06
2.90617e-06
-1.51918e-06
2.90577e-06
-4.69773e-07
2.91015e-06
-9.60409e-08
2.93694e-06
4.08347e-07
2.94072e-06
2.18966e-07
2.96076e-06
1.79211e-07
2.95887e-06
5.84084e-08
2.95843e-06
-8.20621e-08
2.95821e-06
-8.84214e-08
2.94763e-06
-1.26918e-07
2.9381e-06
-1.43023e-07
2.92885e-06
-1.05209e-07
2.92033e-06
-9.36679e-08
2.92279e-06
-5.55896e-08
-3.19521e-08
2.91787e-06
3.06311e-06
-1.1562e-06
3.12215e-06
1.66833e-06
3.1156e-06
-2.81454e-07
3.0959e-06
-1.78038e-06
3.04314e-06
-2.11234e-06
3.01547e-06
-1.4915e-06
3.01644e-06
-4.70739e-07
3.02056e-06
-1.00163e-07
3.04943e-06
3.79477e-07
3.05382e-06
2.14572e-07
3.07349e-06
1.59546e-07
3.07313e-06
5.87626e-08
3.07138e-06
-8.03151e-08
3.07218e-06
-8.92187e-08
3.06658e-06
-1.21316e-07
3.06504e-06
-1.4148e-07
3.06205e-06
-1.02218e-07
3.05351e-06
-8.51278e-08
3.03576e-06
-3.78464e-08
-2.57837e-08
3.0296e-06
3.17923e-06
-1.13107e-06
3.24033e-06
1.60723e-06
3.23377e-06
-2.74899e-07
3.21273e-06
-1.75934e-06
3.15964e-06
-2.05925e-06
3.12933e-06
-1.46119e-06
3.13172e-06
-4.73136e-07
3.13548e-06
-1.03918e-07
3.16594e-06
3.49017e-07
3.17077e-06
2.09737e-07
3.19044e-06
1.39882e-07
3.19009e-06
5.91126e-08
3.19007e-06
-8.0298e-08
3.18895e-06
-8.80995e-08
3.18345e-06
-1.15814e-07
3.1653e-06
-1.23331e-07
3.15606e-06
-9.29769e-08
3.14869e-06
-7.77627e-08
3.15047e-06
-3.96248e-08
-2.19196e-08
3.14661e-06
3.29984e-06
-1.1049e-06
3.36285e-06
1.54422e-06
3.35628e-06
-2.6833e-07
3.33375e-06
-1.73681e-06
3.28075e-06
-2.00625e-06
3.24808e-06
-1.42852e-06
3.25164e-06
-4.76691e-07
3.25535e-06
-1.07634e-07
3.28634e-06
3.18036e-07
3.29255e-06
2.03518e-07
3.3108e-06
1.21641e-07
3.31229e-06
5.76173e-08
3.31133e-06
-7.93325e-08
3.3044e-06
-8.11744e-08
3.2944e-06
-1.05817e-07
3.2839e-06
-1.12828e-07
3.27549e-06
-8.45706e-08
3.26817e-06
-7.04392e-08
3.27133e-06
-4.2783e-08
-1.80999e-08
3.26751e-06
3.42511e-06
-1.07773e-06
3.48984e-06
1.4795e-06
3.48328e-06
-2.61771e-07
3.45912e-06
-1.71266e-06
3.40662e-06
-1.95374e-06
3.37201e-06
-1.39391e-06
3.37619e-06
-4.80873e-07
3.38053e-06
-1.11975e-07
3.41076e-06
2.87807e-07
3.4195e-06
1.94779e-07
3.43452e-06
1.06616e-07
3.43976e-06
5.23812e-08
3.43285e-06
-7.24219e-08
3.44165e-06
-8.99745e-08
3.43651e-06
-1.00681e-07
3.43388e-06
-1.10189e-07
3.42997e-06
-8.06687e-08
3.42161e-06
-6.20751e-08
3.39945e-06
-2.062e-08
-1.08995e-08
3.39225e-06
3.55527e-06
-1.04966e-06
3.62144e-06
1.41333e-06
3.61495e-06
-2.55275e-07
3.58897e-06
-1.68668e-06
3.53752e-06
-1.90229e-06
3.50098e-06
-1.35736e-06
3.50607e-06
-4.85966e-07
3.51028e-06
-1.16185e-07
3.54073e-06
2.57354e-07
3.54927e-06
1.86243e-07
3.56591e-06
8.99704e-08
3.56799e-06
5.0308e-08
3.56554e-06
-6.99806e-08
3.55904e-06
-8.34674e-08
3.54923e-06
-9.08759e-08
3.53648e-06
-9.74343e-08
3.52819e-06
-7.23847e-08
3.52254e-06
-5.64234e-08
3.52656e-06
-2.4637e-08
-7.96194e-09
3.52362e-06
3.6905e-06
-1.02077e-06
3.75784e-06
1.34599e-06
3.75146e-06
-2.48891e-07
3.72361e-06
-1.65884e-06
3.67341e-06
-1.85209e-06
3.63549e-06
-1.31945e-06
3.64077e-06
-4.91243e-07
3.64577e-06
-1.21187e-07
3.67507e-06
2.28052e-07
3.68503e-06
1.7629e-07
3.7006e-06
7.43989e-08
3.70412e-06
4.6785e-08
3.70345e-06
-6.93045e-08
3.69283e-06
-7.28491e-08
3.68333e-06
-8.13785e-08
3.6705e-06
-8.46032e-08
3.66148e-06
-6.33673e-08
3.65581e-06
-5.07492e-08
3.66174e-06
-3.0565e-08
-5.16335e-09
3.65894e-06
3.83098e-06
-9.91165e-07
3.89922e-06
1.27775e-06
3.89305e-06
-2.42718e-07
3.8633e-06
-1.62909e-06
3.81434e-06
-1.80313e-06
3.77582e-06
-1.28092e-06
3.7802e-06
-4.95629e-07
3.78746e-06
-1.2845e-07
3.8136e-06
2.01914e-07
3.82743e-06
1.62462e-07
3.8359e-06
6.59286e-08
3.84536e-06
3.73267e-08
3.83409e-06
-5.80379e-08
3.84975e-06
-8.85096e-08
3.84778e-06
-7.94019e-08
3.84573e-06
-8.25584e-08
3.84083e-06
-5.84689e-08
3.83122e-06
-4.11321e-08
3.80652e-06
-5.86944e-09
3.48733e-09
3.79787e-06
3.97696e-06
-9.60967e-07
4.04575e-06
1.20895e-06
4.04001e-06
-2.3697e-07
4.00807e-06
-1.59716e-06
3.96086e-06
-1.75592e-06
3.92135e-06
-1.24141e-06
3.92618e-06
-5.0046e-07
3.93258e-06
-1.34849e-07
3.96059e-06
1.73896e-07
3.97036e-06
1.527e-07
3.98693e-06
4.93559e-08
3.99479e-06
2.94656e-08
3.99246e-06
-5.57084e-08
3.97516e-06
-7.12044e-08
3.96612e-06
-7.03669e-08
3.95364e-06
-7.00792e-08
3.94555e-06
-5.03752e-08
3.94071e-06
-3.62918e-08
3.94673e-06
-1.18906e-08
4.85179e-09
3.94536e-06
4.12858e-06
-9.30265e-07
4.19768e-06
1.13985e-06
4.19246e-06
-2.31749e-07
4.15849e-06
-1.56319e-06
4.11271e-06
-1.71013e-06
4.07304e-06
-1.20174e-06
4.07714e-06
-5.04562e-07
4.08426e-06
-1.41965e-07
4.11201e-06
1.46144e-07
4.12063e-06
1.44086e-07
4.13762e-06
3.23623e-08
4.13308e-06
3.40028e-08
4.12685e-06
-4.94799e-08
4.12195e-06
-6.62964e-08
4.11586e-06
-6.42807e-08
4.10348e-06
-5.76954e-08
4.09535e-06
-4.22457e-08
4.09022e-06
-3.11688e-08
4.09768e-06
-1.93483e-08
5.86015e-09
4.09667e-06
4.28608e-06
-8.99159e-07
4.35521e-06
1.07072e-06
4.35063e-06
-2.27167e-07
4.31495e-06
-1.52751e-06
4.26986e-06
-1.66504e-06
4.23145e-06
-1.16333e-06
4.23263e-06
-5.0574e-07
4.24342e-06
-1.52753e-07
4.26665e-06
1.22909e-07
4.27979e-06
1.30952e-07
4.28518e-06
2.69707e-08
4.30748e-06
1.17068e-08
4.30417e-06
-4.61733e-08
4.30681e-06
-6.89354e-08
4.30512e-06
-6.25979e-08
4.30624e-06
-5.88118e-08
4.30133e-06
-3.73296e-08
4.29006e-06
-1.99031e-08
4.26116e-06
9.55068e-09
1.5527e-08
4.25149e-06
4.44971e-06
-8.67787e-07
4.51852e-06
1.00191e-06
4.51489e-06
-2.23541e-07
4.47714e-06
-1.48976e-06
4.43351e-06
-1.6214e-06
4.3949e-06
-1.12473e-06
4.39688e-06
-5.07726e-07
4.40441e-06
-1.6028e-07
4.43226e-06
9.50563e-08
4.43876e-06
1.24455e-07
4.45607e-06
9.65946e-09
4.45197e-06
1.58093e-08
4.44625e-06
-4.04509e-08
4.43641e-06
-5.90986e-08
4.43153e-06
-5.77207e-08
4.4208e-06
-4.80808e-08
4.4146e-06
-3.11312e-08
4.40977e-06
-1.50677e-08
4.417e-06
2.32179e-09
1.59633e-08
4.41656e-06
4.61964e-06
-8.36217e-07
4.68792e-06
9.33626e-07
4.6852e-06
-2.20824e-07
4.64608e-06
-1.45063e-06
4.6027e-06
-1.57802e-06
4.56585e-06
-1.08788e-06
4.56518e-06
-5.07053e-07
4.57445e-06
-1.6955e-07
4.60054e-06
6.89684e-08
4.60578e-06
1.19209e-07
4.61415e-06
1.2934e-09
4.619e-06
1.09549e-08
4.61658e-06
-3.80265e-08
4.60272e-06
-4.52394e-08
4.59897e-06
-5.39665e-08
4.58895e-06
-3.80653e-08
4.58304e-06
-2.52257e-08
4.57804e-06
-1.0067e-08
4.5858e-06
-5.43535e-09
1.61369e-08
4.58563e-06
4.7961e-06
-8.04533e-07
4.86367e-06
8.66057e-07
4.86179e-06
-2.18947e-07
4.82204e-06
-1.41087e-06
4.77741e-06
-1.53339e-06
4.74589e-06
-1.05637e-06
4.73747e-06
-4.98626e-07
4.75442e-06
-1.86501e-07
4.7703e-06
5.30849e-08
4.79001e-06
9.94947e-08
4.78392e-06
7.39167e-09
4.80136e-06
-6.48582e-09
4.79611e-06
-3.27778e-08
4.81349e-06
-6.26213e-08
4.81676e-06
-5.72386e-08
4.82161e-06
-4.29122e-08
4.81624e-06
-1.98601e-08
4.80452e-06
1.65317e-09
4.77053e-06
2.85551e-08
2.83526e-08
4.75832e-06
4.97943e-06
-7.72889e-07
5.04582e-06
7.99662e-07
5.04526e-06
-2.18389e-07
5.00403e-06
-1.36964e-06
4.96052e-06
-1.48988e-06
4.92775e-06
-1.0236e-06
4.92267e-06
-4.9354e-07
4.93331e-06
-1.97144e-07
4.95378e-06
3.26136e-08
4.96373e-06
8.95463e-08
4.96607e-06
5.05006e-09
4.9733e-06
-1.372e-08
4.9697e-06
-2.91747e-08
4.9593e-06
-5.22198e-08
4.9526e-06
-5.05368e-08
4.947e-06
-3.73114e-08
4.939e-06
-1.1859e-08
4.93528e-06
5.36837e-09
4.94394e-06
1.98997e-08
2.94301e-08
4.94286e-06
5.16972e-06
-7.41294e-07
5.23499e-06
7.34387e-07
5.23533e-06
-2.18722e-07
5.19364e-06
-1.32795e-06
5.14996e-06
-1.4462e-06
5.11744e-06
-9.91087e-07
5.11452e-06
-4.90614e-07
5.1194e-06
-2.02029e-07
5.14517e-06
6.84556e-09
5.1503e-06
8.44183e-08
5.15574e-06
-3.90002e-10
5.1576e-06
-1.55766e-08
5.15808e-06
-2.96536e-08
5.14732e-06
-4.14603e-08
5.14141e-06
-4.46257e-08
5.13525e-06
-3.11574e-08
5.13395e-06
-1.05543e-08
5.13092e-06
8.39359e-09
5.13198e-06
1.88436e-08
2.94697e-08
5.13194e-06
5.36731e-06
-7.09822e-07
5.43127e-06
6.70422e-07
5.43238e-06
-2.1983e-07
5.39112e-06
-1.28668e-06
5.3455e-06
-1.40059e-06
5.31603e-06
-9.6162e-07
5.31042e-06
-4.84997e-07
5.3165e-06
-2.08115e-07
5.33722e-06
-1.38776e-08
5.34665e-06
7.49969e-08
5.34857e-06
-2.31542e-09
5.35202e-06
-1.90239e-08
5.35165e-06
-2.92804e-08
5.34385e-06
-3.36611e-08
5.33695e-06
-3.77249e-08
5.33259e-06
-2.68029e-08
5.33134e-06
-9.30244e-09
5.33039e-06
9.34493e-09
5.3283e-06
2.09359e-08
2.97074e-08
5.32806e-06
5.57249e-06
-6.78575e-07
5.63492e-06
6.07997e-07
5.63684e-06
-2.21753e-07
5.59603e-06
-1.24588e-06
5.54909e-06
-1.35364e-06
5.52064e-06
-9.33172e-07
5.51469e-06
-4.7905e-07
5.52021e-06
-2.13635e-07
5.53879e-06
-3.24499e-08
5.5497e-06
6.40845e-08
5.55003e-06
-2.64806e-09
5.55377e-06
-2.27609e-08
5.55321e-06
-2.87194e-08
5.5476e-06
-2.80499e-08
5.54051e-06
-3.06353e-08
5.53628e-06
-2.25727e-08
5.53366e-06
-6.68607e-09
5.5314e-06
1.16015e-08
5.53186e-06
2.0478e-08
2.96646e-08
5.5319e-06
5.78548e-06
-6.4758e-07
5.84646e-06
5.47021e-07
5.84875e-06
-2.24047e-07
5.80954e-06
-1.20667e-06
5.76057e-06
-1.30467e-06
5.73307e-06
-9.0568e-07
5.72623e-06
-4.72203e-07
5.73175e-06
-2.19153e-07
5.74816e-06
-4.88676e-08
5.76011e-06
5.21396e-08
5.75979e-06
-2.33042e-09
5.76319e-06
-2.61619e-08
5.76281e-06
-2.83428e-08
5.75877e-06
-2.40016e-08
5.75195e-06
-2.38211e-08
5.7474e-06
-1.80209e-08
5.74586e-06
-5.14435e-09
5.74599e-06
1.14747e-08
5.74355e-06
2.29171e-08
2.97099e-08
5.7435e-06
6.00662e-06
-6.16903e-07
6.06604e-06
4.87608e-07
6.06861e-06
-2.26621e-07
6.03126e-06
-1.16932e-06
5.98082e-06
-1.25422e-06
5.9531e-06
-8.77958e-07
5.94579e-06
-4.64903e-07
5.95116e-06
-2.24519e-07
5.96575e-06
-6.34538e-08
5.97844e-06
3.94425e-08
5.97802e-06
-1.9108e-09
5.9806e-06
-2.87342e-08
5.98066e-06
-2.84049e-08
5.97762e-06
-2.09613e-08
5.97163e-06
-1.7837e-08
5.96663e-06
-1.30117e-08
5.964e-06
-2.51892e-09
5.96127e-06
1.41996e-08
5.96317e-06
2.10201e-08
2.9618e-08
5.96326e-06
6.23622e-06
-5.86626e-07
6.294e-06
4.29829e-07
6.2967e-06
-2.2932e-07
6.26065e-06
-1.13327e-06
6.20997e-06
-1.20354e-06
6.18141e-06
-8.494e-07
6.17386e-06
-4.57351e-07
6.17872e-06
-2.29381e-07
6.19205e-06
-7.67833e-08
6.20503e-06
2.6458e-08
6.20487e-06
-1.74825e-09
6.20635e-06
-3.02114e-08
6.20694e-06
-2.89976e-08
6.20459e-06
-1.86159e-08
6.19953e-06
-1.27743e-08
6.19451e-06
-7.9933e-09
6.1932e-06
-1.20674e-09
6.19445e-06
1.29509e-08
6.19151e-06
2.39618e-08
2.98607e-08
6.19127e-06
6.47459e-06
-5.56808e-07
6.53059e-06
3.73829e-07
6.53346e-06
-2.32198e-07
6.4981e-06
-1.0979e-06
6.44828e-06
-1.15373e-06
6.41859e-06
-8.19707e-07
6.41081e-06
-4.49569e-07
6.41492e-06
-2.33495e-07
6.42729e-06
-8.91538e-08
6.44017e-06
1.35806e-08
6.44061e-06
-2.1874e-09
6.4409e-06
-3.05002e-08
6.44196e-06
-3.00545e-08
6.44005e-06
-1.6708e-08
6.43613e-06
-8.86022e-09
6.43106e-06
-2.92217e-09
6.42798e-06
1.88132e-09
6.42542e-06
1.55111e-08
6.42795e-06
2.14239e-08
2.95999e-08
6.42821e-06
6.72206e-06
-5.2753e-07
6.77614e-06
3.19748e-07
6.77922e-06
-2.35276e-07
6.74415e-06
-1.06284e-06
6.69589e-06
-1.10546e-06
6.66552e-06
-7.89335e-07
6.65708e-06
-4.4113e-07
6.66028e-06
-2.36692e-07
6.67172e-06
-1.0059e-07
6.68417e-06
1.12507e-09
6.68547e-06
-3.48766e-09
6.68463e-06
-2.96629e-08
6.68586e-06
-3.12771e-08
6.68452e-06
-1.53691e-08
6.68142e-06
-5.76466e-09
6.67695e-06
1.55078e-09
6.67481e-06
4.01817e-09
6.67606e-06
1.42653e-08
6.67381e-06
2.36696e-08
2.94302e-08
6.67398e-06
6.97897e-06
-4.98853e-07
7.03088e-06
2.67836e-07
7.03441e-06
-2.38805e-07
6.99934e-06
-1.02776e-06
6.9532e-06
-1.05933e-06
6.92241e-06
-7.58542e-07
6.91295e-06
-4.31668e-07
6.91516e-06
-2.38908e-07
6.92559e-06
-1.11015e-07
6.93748e-06
-1.0761e-08
6.93982e-06
-5.83628e-09
6.93808e-06
-2.79158e-08
6.93909e-06
-3.22867e-08
6.93841e-06
-1.46884e-08
6.93591e-06
-3.268e-09
6.93205e-06
5.41243e-09
6.9286e-06
7.4648e-09
6.9262e-06
1.66686e-08
6.92853e-06
2.13414e-08
2.86937e-08
6.92926e-06
7.24569e-06
-4.70855e-07
7.2952e-06
2.18331e-07
7.29941e-06
-2.43018e-07
7.26413e-06
-9.92486e-07
7.22255e-06
-1.01774e-06
7.18964e-06
-7.25638e-07
7.17889e-06
-4.20913e-07
7.18e-06
-2.4002e-07
7.18927e-06
-1.20287e-07
7.20047e-06
-2.19643e-08
7.20387e-06
-9.23712e-09
7.20151e-06
-2.55541e-08
7.20192e-06
-3.26975e-08
7.20194e-06
-1.47082e-08
7.1999e-06
-1.22523e-09
7.19693e-06
8.37941e-09
7.19446e-06
9.93769e-09
7.19513e-06
1.59993e-08
7.19335e-06
2.31251e-08
2.79359e-08
7.1941e-06
7.52256e-06
-4.43587e-07
7.56961e-06
1.71285e-07
7.57431e-06
-2.4772e-07
7.53912e-06
-9.57295e-07
7.50198e-06
-9.80599e-07
7.46645e-06
-6.90108e-07
7.45536e-06
-4.09822e-07
7.45512e-06
-2.39779e-07
7.4631e-06
-1.28272e-07
7.47357e-06
-3.24357e-08
7.47786e-06
-1.35229e-08
7.47546e-06
-2.31501e-08
7.47492e-06
-3.21637e-08
7.47552e-06
-1.53036e-08
7.474e-06
2.91697e-10
7.4718e-06
1.05822e-08
7.46858e-06
1.31573e-08
7.46609e-06
1.84872e-08
7.468e-06
2.12148e-08
2.68497e-08
7.46909e-06
7.8099e-06
-4.17033e-07
7.85491e-06
1.2628e-07
7.85912e-06
-2.51933e-07
7.82481e-06
-9.22984e-07
7.77995e-06
-9.35743e-07
7.75187e-06
-6.62021e-07
7.74313e-06
-4.01081e-07
7.74094e-06
-2.37593e-07
7.74759e-06
-1.34925e-07
7.75727e-06
-4.21137e-08
7.76221e-06
-1.84579e-08
7.76019e-06
-2.11298e-08
7.75851e-06
-3.04847e-08
7.75939e-06
-1.61826e-08
7.75844e-06
1.23729e-09
7.75688e-06
1.21471e-08
7.75473e-06
1.53017e-08
7.75513e-06
1.80846e-08
7.7534e-06
2.29473e-08
2.59533e-08
7.7543e-06
8.10823e-06
-3.91298e-07
8.15076e-06
8.37456e-08
8.15426e-06
-2.55438e-07
8.12265e-06
-8.9137e-07
8.08827e-06
-9.01358e-07
8.06966e-06
-6.43413e-07
8.04449e-06
-3.75916e-07
8.0372e-06
-2.30299e-07
8.04295e-06
-1.40676e-07
8.05192e-06
-5.10814e-08
8.05716e-06
-2.37006e-08
8.05598e-06
-1.99479e-08
8.0533e-06
-2.78116e-08
8.05422e-06
-1.71017e-08
8.05387e-06
1.58541e-09
8.05275e-06
1.327e-08
8.05041e-06
1.76441e-08
8.04805e-06
2.04477e-08
8.0495e-06
2.14971e-08
2.49719e-08
8.05048e-06
8.41796e-06
-3.665e-07
8.45697e-06
4.47426e-08
8.46258e-06
-2.61047e-07
8.4287e-06
-8.57495e-07
8.39443e-06
-8.67088e-07
8.36132e-06
-6.10299e-07
8.34976e-06
-3.6436e-07
8.34569e-06
-2.26228e-07
8.35023e-06
-1.45218e-07