/*--------------------------------*- C++ -*----------------------------------*\
| =========                 |                                                 |
| \\      /  F ield         | OpenFOAM: The Open Source CFD Toolbox           |
|  \\    /   O peration     | Version:  v2012                                 |
|   \\  /    A nd           | Website:  www.openfoam.com                      |
|    \\/     M anipulation  |                                                 |
\*---------------------------------------------------------------------------*/
FoamFile
{
    version     2.0;
    format      ascii;
    class       volVectorField;
    location    "7.8";
    object      U;
}
// * * * * * * * * * * * * * * * * * * * * * * * * * * * * * * * * * * * * * //

dimensions      [0 1 -1 0 0 0 0];


internalField   nonuniform List<vector> 
7000
(
(0.82078 -0.0102287 0)
(1.24567 0.0271607 0)
(0.823602 -0.00771734 0)
(1.10088 -0.0281853 0)
(0.939513 -0.037833 0)
(1.16997 -0.019037 0)
(0.970875 -0.00292786 0)
(1.18682 0.00143864 0)
(0.87355 0.0144023 0)
(1.21624 0.00935791 0)
(0.850845 0.00273875 0)
(1.17694 0.00144826 0)
(0.89695 -0.00906904 0)
(1.14078 -0.00481309 0)
(0.920901 -0.0168948 0)
(1.13176 -0.0139469 0)
(0.925675 -0.0193739 0)
(1.14021 -0.0179029 0)
(0.918941 -0.0151282 0)
(1.14961 -0.0181134 0)
(0.832666 -0.0106208 0)
(1.23527 0.0271556 0)
(0.895283 -0.00690214 0)
(1.06066 -0.0286975 0)
(0.947078 -0.0387059 0)
(1.15245 -0.019137 0)
(0.982415 -0.00330547 0)
(1.17401 0.00261948 0)
(0.895221 0.0138992 0)
(1.18676 0.00995273 0)
(0.899924 0.00295118 0)
(1.13327 0.00101456 0)
(0.957833 -0.00860315 0)
(1.08939 -0.00507988 0)
(0.984849 -0.0166276 0)
(1.06716 -0.0141375 0)
(0.995767 -0.0193381 0)
(1.05915 -0.0182251 0)
(1.00266 -0.0147331 0)
(1.05277 -0.018863 0)
(0.852484 -0.0110161 0)
(1.21548 0.0271046 0)
(0.954983 -0.00610663 0)
(1.03076 -0.0287007 0)
(0.95756 -0.0393402 0)
(1.12361 -0.0193095 0)
(1.00336 -0.00362401 0)
(1.14866 0.00365482 0)
(0.937941 0.0134757 0)
(1.14351 0.0101564 0)
(0.96318 0.00342358 0)
(1.08747 0.000395054 0)
(1.01013 -0.00795361 0)
(1.04776 -0.00550924 0)
(1.01981 -0.0160177 0)
(1.02468 -0.0145457 0)
(1.02149 -0.0188685 0)
(1.01576 -0.0186949 0)
(1.0259 -0.0145 0)
(1.014 -0.0182847 0)
(0.877581 -0.0113664 0)
(1.18758 0.0268162 0)
(0.997227 -0.00523622 0)
(1.00868 -0.0285978 0)
(0.966304 -0.0399984 0)
(1.08874 -0.019657 0)
(1.02577 -0.0038872 0)
(1.11775 0.00427906 0)
(0.986041 0.0134078 0)
(1.1065 0.00994893 0)
(1.0134 0.00404163 0)
(1.0601 -0.000145207 0)
(1.03719 -0.00727608 0)
(1.02966 -0.00568932 0)
(1.02803 -0.0153156 0)
(1.00928 -0.0147753 0)
(1.02055 -0.0182929 0)
(1.00067 -0.0192385 0)
(1.02237 -0.0140091 0)
(1.00092 -0.0181699 0)
(0.904827 -0.0116855 0)
(1.1536 0.0263271 0)
(1.02221 -0.00438275 0)
(0.996894 -0.0283312 0)
(0.9712 -0.040491 0)
(1.05496 -0.0201491 0)
(1.0417 -0.00414895 0)
(1.09007 0.00456701 0)
(1.02517 0.0134766 0)
(1.08477 0.00967369 0)
(1.04346 0.00463181 0)
(1.05035 -0.000419191 0)
(1.04579 -0.00663715 0)
(1.02634 -0.00559075 0)
(1.02547 -0.0145837 0)
(1.00671 -0.0148288 0)
(1.01291 -0.0176719 0)
(0.996531 -0.0196612 0)
(1.01258 -0.0135687 0)
(0.996178 -0.0182285 0)
(0.930985 -0.0119638 0)
(1.11636 0.0258023 0)
(1.03398 -0.00362595 0)
(0.994217 -0.0279838 0)
(0.97267 -0.0408237 0)
(1.0276 -0.0207547 0)
(1.04799 -0.00445372 0)
(1.07077 0.00460841 0)
(1.04991 0.0134958 0)
(1.07627 0.00947845 0)
(1.05777 0.00514535 0)
(1.04939 -0.000431458 0)
(1.04591 -0.0060231 0)
(1.02752 -0.00533838 0)
(1.02143 -0.0138093 0)
(1.00709 -0.0147741 0)
(1.0064 -0.0169725 0)
(0.994488 -0.0199645 0)
(1.0038 -0.0131524 0)
(0.99234 -0.0182875 0)
(0.953363 -0.0121784 0)
(1.07954 0.0253432 0)
(1.03725 -0.00303517 0)
(0.99734 -0.0275777 0)
(0.972598 -0.0409806 0)
(1.00819 -0.0214121 0)
(1.04633 -0.00483121 0)
(1.05974 0.00445606 0)
(1.06221 0.0134143 0)
(1.07448 0.00936854 0)
(1.06307 0.00562952 0)
(1.05013 -0.000270168 0)
(1.0435 -0.00539749 0)
(1.02824 -0.00503072 0)
(1.01864 -0.0129893 0)
(1.0069 -0.0146546 0)
(1.00241 -0.0161944 0)
(0.992071 -0.0201428 0)
(0.997482 -0.0127243 0)
(0.987943 -0.0182515 0)
(0.97035 -0.0123133 0)
(1.04693 0.0249616 0)
(1.03638 -0.00264485 0)
(1.00296 -0.0271517 0)
(0.9729 -0.0409845 0)
(0.995398 -0.0220752 0)
(1.04043 -0.00529613 0)
(1.05367 0.00414942 0)
(1.06662 0.01325 0)
(1.07388 0.00931172 0)
(1.06395 0.00613409 0)
(1.04955 -1.58057e-05 0)
(1.04054 -0.00473961 0)
(1.02745 -0.0047265 0)
(1.01692 -0.0121329 0)
(1.00579 -0.0144895 0)
(1.00015 -0.0153634 0)
(0.989509 -0.020181 0)
(0.993047 -0.0122755 0)
(0.983708 -0.0180731 0)
(0.981569 -0.0123671 0)
(1.02146 0.0246351 0)
(1.03448 -0.00244551 0)
(1.0087 -0.0267272 0)
(0.97444 -0.0408562 0)
(0.986961 -0.022708 0)
(1.0334 -0.00583664 0)
(1.04902 0.00372376 0)
(1.06676 0.0130386 0)
(1.07156 0.00928053 0)
(1.06234 0.00667368 0)
(1.04711 0.000286299 0)
(1.03712 -0.00405343 0)
(1.02549 -0.0044583 0)
(1.01556 -0.0112543 0)
(1.00427 -0.0142886 0)
(0.998701 -0.0145099 0)
(0.987419 -0.0200711 0)
(0.989741 -0.0118163 0)
(0.980347 -0.0177469 0)
(0.987708 -0.0123509 0)
(1.00444 0.0243398 0)
(1.03306 -0.0023991 0)
(1.01344 -0.0263188 0)
(0.977084 -0.0406185 0)
(0.981156 -0.023288 0)
(1.02668 -0.00642036 0)
(1.0435 0.00320986 0)
(1.06439 0.0128094 0)
(1.06653 0.00926182 0)
(1.05873 0.00723677 0)
(1.04297 0.000611791 0)
(1.03297 -0.00335889 0)
(1.02276 -0.00424182 0)
(1.01408 -0.0103767 0)
(1.00268 -0.0140557 0)
(0.997569 -0.0136645 0)
(0.986052 -0.0198189 0)
(0.987158 -0.0113596 0)
(0.978028 -0.0172891 0)
(0.990118 -0.0122834 0)
(0.995334 0.0240528 0)
(1.03241 -0.00245656 0)
(1.0169 -0.0259293 0)
(0.980233 -0.040289 0)
(0.977051 -0.0238037 0)
(1.02042 -0.00700902 0)
(1.03628 0.0026352 0)
(1.05987 0.0125805 0)
(1.05874 0.00925064 0)
(1.05312 0.00780197 0)
(1.0374 0.000941607 0)
(1.02805 -0.00268164 0)
(1.01947 -0.0040866 0)
(1.01229 -0.00952701 0)
(1.0011 -0.0137945 0)
(0.996634 -0.0128594 0)
(0.985334 -0.0194388 0)
(0.985186 -0.0109134 0)
(0.976611 -0.0167208 0)
(0.990333 -0.0121846 0)
(0.992194 0.0237554 0)
(1.0321 -0.0025723 0)
(1.01918 -0.025558 0)
(0.983345 -0.0398843 0)
(0.9742 -0.0242455 0)
(1.01424 -0.00756399 0)
(1.02742 0.00202756 0)
(1.05304 0.0123638 0)
(1.04864 0.00924365 0)
(1.04562 0.00834282 0)
(1.03073 0.00125389 0)
(1.02253 -0.00204938 0)
(1.01577 -0.0039968 0)
(1.01018 -0.00873455 0)
(0.999538 -0.0135113 0)
(0.995895 -0.0121251 0)
(0.985074 -0.0189436 0)
(0.983806 -0.0104802 0)
(0.975919 -0.0160623 0)
(0.989664 -0.0120716 0)
(0.992531 0.0234377 0)
(1.03164 -0.00271077 0)
(1.02045 -0.0252043 0)
(0.986119 -0.0394189 0)
(0.972343 -0.0246031 0)
(1.00779 -0.00805141 0)
(1.01749 0.0014165 0)
(1.0438 0.0121682 0)
(1.037 0.00923317 0)
(1.03659 0.00883135 0)
(1.02341 0.0015245 0)
(1.01676 -0.00148449 0)
(1.01183 -0.00397564 0)
(1.00785 -0.00802563 0)
(0.998001 -0.0132154 0)
(0.995315 -0.0114806 0)
(0.985089 -0.0183478 0)
(0.982956 -0.0100608 0)
(0.975804 -0.0153276 0)
(0.988966 -0.0119553 0)
(0.994155 0.0231008 0)
(1.03076 -0.00284939 0)
(1.02089 -0.0248698 0)
(0.98843 -0.0389074 0)
(0.971296 -0.0248678 0)
(1.00104 -0.00844619 0)
(1.00729 0.00083231 0)
(1.03246 0.0119991 0)
(1.02483 0.00920257 0)
(1.02668 0.00924584 0)
(1.01606 0.00172344 0)
(1.01114 -0.00100378 0)
(1.0079 -0.00401887 0)
(1.00545 -0.00742331 0)
(0.996549 -0.0129118 0)
(0.994802 -0.0109324 0)
(0.985245 -0.0176744 0)
(0.982513 -0.00965983 0)
(0.976107 -0.0145287 0)
(0.988618 -0.0118406 0)
(0.995683 0.0227512 0)
(1.0295 -0.00297689 0)
(1.02067 -0.0245566 0)
(0.990228 -0.0383639 0)
(0.970906 -0.0250361 0)
(0.99434 -0.00873499 0)
(0.997655 0.000302851 0)
(1.01983 0.0118571 0)
(1.01319 0.0091315 0)
(1.01671 0.00957095 0)
(1.00926 0.00182926 0)
(1.00604 -0.000618671 0)
(1.00422 -0.00410902 0)
(1.00313 -0.00694275 0)
(0.995264 -0.0126035 0)
(0.994263 -0.0104793 0)
(0.985452 -0.0169477 0)
(0.982335 -0.00928158 0)
(0.976635 -0.0136847 0)
(0.988665 -0.0117275 0)
(0.996583 0.0223949 0)
(1.02802 -0.0030892 0)
(1.01995 -0.0242652 0)
(0.991496 -0.0378018 0)
(0.971025 -0.0251118 0)
(0.988253 -0.00891667 0)
(0.989357 -0.000150918 0)
(1.00712 0.0117387 0)
(1.00296 0.00899999 0)
(1.00754 0.00979966 0)
(1.00343 0.0018406 0)
(1.0017 -0.000333769 0)
(1.00099 -0.00422176 0)
(1.00105 -0.00658636 0)
(0.99421 -0.0122918 0)
(0.993676 -0.0101102 0)
(0.98566 -0.0161895 0)
(0.982321 -0.00892259 0)
(0.977205 -0.0128164 0)
(0.989001 -0.0116146 0)
(0.996892 0.0220356 0)
(1.02652 -0.00318568 0)
(1.0189 -0.0239938 0)
(0.99227 -0.0372309 0)
(0.971496 -0.025107 0)
(0.983294 -0.00900078 0)
(0.982884 -0.000517007 0)
(0.995567 0.0116399 0)
(0.994655 0.00879631 0)
(0.999798 0.00993121 0)
(0.998773 0.00176978 0)
(0.99822 -0.000149414 0)
(0.998321 -0.00433656 0)
(0.999296 -0.0063513 0)
(0.993398 -0.0119676 0)
(0.993091 -0.00980807 0)
(0.985846 -0.0154248 0)
(0.982425 -0.0085755 0)
(0.977704 -0.0119418 0)
(0.989502 -0.0115 0)
(0.996861 0.0216737 0)
(1.02511 -0.00326643 0)
(1.01765 -0.0237393 0)
(0.992632 -0.0366576 0)
(0.972173 -0.0250386 0)
(0.979741 -0.00900451 0)
(0.978381 -0.00079224 0)
(0.986097 0.0115546 0)
(0.988421 0.0085219 0)
(0.993805 0.00997513 0)
(0.995254 0.00162324 0)
(0.995583 -6.35342e-05 0)
(0.996193 -0.00443824 0)
(0.997904 -0.00623284 0)
(0.992782 -0.0116269 0)
(0.992577 -0.00955503 0)
(0.986004 -0.0146749 0)
(0.982632 -0.00823209 0)
(0.978108 -0.0110783 0)
(0.990087 -0.011383 0)
(0.996706 0.0213089 0)
(1.02386 -0.00333102 0)
(1.0163 -0.0234977 0)
(0.992694 -0.0360856 0)
(0.972951 -0.0249258 0)
(0.97759 -0.008947 0)
(0.975702 -0.000985187 0)
(0.979124 0.0114846 0)
(0.984097 0.00818209 0)
(0.989533 0.00994108 0)
(0.992721 0.00143186 0)
(0.993703 -6.73696e-05 0)
(0.99453 -0.0045131 0)
(0.996835 -0.00621894 0)
(0.992286 -0.0112744 0)
(0.99217 -0.00933051 0)
(0.986133 -0.0139562 0)
(0.982925 -0.00788813 0)
(0.97846 -0.0102341 0)
(0.990713 -0.0112636 0)
(0.996528 0.0209406 0)
(1.02276 -0.00337892 0)
(1.01496 -0.023266 0)
(0.992568 -0.0355174 0)
(0.973769 -0.0247867 0)
(0.97663 -0.00884679 0)
(0.974534 -0.00111063 0)
(0.974607 0.01143 0)
(0.981387 0.00779625 0)
(0.986752 0.00983781 0)
(0.990984 0.00123715 0)
(0.992467 -0.000164361 0)
(0.993226 -0.00455089 0)
(0.996016 -0.00627953 0)
(0.991828 -0.010926 0)
(0.991848 -0.00911111 0)
(0.986227 -0.0132656 0)
(0.983265 -0.00754964 0)
(0.978813 -0.00941431 0)
(0.991347 -0.0111414 0)
(0.996351 0.0205676 0)
(1.02179 -0.00340978 0)
(1.01371 -0.0230416 0)
(0.992354 -0.0349539 0)
(0.974594 -0.0246362 0)
(0.976559 -0.00872156 0)
(0.974513 -0.0011832 0)
(0.972226 0.0113847 0)
(0.979983 0.00739339 0)
(0.985168 0.00967558 0)
(0.989876 0.00106609 0)
(0.991766 -0.000347866 0)
(0.992194 -0.00455091 0)
(0.995364 -0.00638686 0)
(0.991357 -0.0105961 0)
(0.99155 -0.00888882 0)
(0.986271 -0.0125832 0)
(0.983595 -0.00721173 0)
(0.979198 -0.00863168 0)
(0.991961 -0.0110164 0)
(0.996172 0.0201886 0)
(1.02095 -0.00342329 0)
(1.01263 -0.0228228 0)
(0.992129 -0.0343948 0)
(0.975393 -0.0244858 0)
(0.977054 -0.00858646 0)
(0.97527 -0.00121998 0)
(0.971543 0.0113472 0)
(0.979606 0.00699858 0)
(0.98452 0.009452 0)
(0.989271 0.000940405 0)
(0.991501 -0.000582436 0)
(0.991388 -0.00452027 0)
(0.994816 -0.00652164 0)
(0.990861 -0.0102823 0)
(0.991218 -0.0086728 0)
(0.986256 -0.0119201 0)
(0.983856 -0.00686654 0)
(0.979601 -0.00788603 0)
(0.992525 -0.0108885 0)
(0.995998 0.0198028 0)
(1.02021 -0.0034201 0)
(1.01176 -0.022608 0)
(0.991955 -0.0338382 0)
(0.976125 -0.0243416 0)
(0.9778 -0.00845152 0)
(0.976443 -0.00123988 0)
(0.972081 0.011311 0)
(0.979989 0.00663694 0)
(0.98459 0.00917997 0)
(0.989075 0.000853329 0)
(0.991576 -0.000851864 0)
(0.990793 -0.00445177 0)
(0.994338 -0.00665556 0)
(0.990366 -0.0099818 0)
(0.990818 -0.00846467 0)
(0.986183 -0.0113058 0)
(0.98401 -0.00653071 0)
(0.979991 -0.00717293 0)
(0.993015 -0.0107571 0)
(0.995844 0.0194092 0)
(1.01954 -0.00340166 0)
(1.01112 -0.0223967 0)
(0.991872 -0.0332813 0)
(0.976751 -0.0242029 0)
(0.978516 -0.00832454 0)
(0.977691 -0.00125499 0)
(0.973364 0.0112608 0)
(0.980868 0.00632063 0)
(0.985188 0.00886969 0)
(0.98921 0.000816357 0)
(0.991902 -0.00115828 0)
(0.99042 -0.00435052 0)
(0.993923 -0.00677733 0)
(0.989926 -0.00968705 0)
(0.990356 -0.00822984 0)
(0.986068 -0.0107349 0)
(0.984053 -0.00623807 0)
(0.980337 -0.00651083 0)
(0.993422 -0.0106218 0)
(0.995723 0.0190064 0)
(1.01892 -0.00337055 0)
(1.0107 -0.022189 0)
(0.991893 -0.0327201 0)
(0.977245 -0.0240639 0)
(0.978991 -0.00821102 0)
(0.978736 -0.00127557 0)
(0.97496 0.0111908 0)
(0.981995 0.00605127 0)
(0.986136 0.00850975 0)
(0.989605 0.000854782 0)
(0.992399 -0.00147877 0)
(0.99028 -0.00421234 0)
(0.99358 -0.00687887 0)
(0.9896 -0.00943381 0)
(0.989867 -0.00794925 0)
(0.985936 -0.0101393 0)
(0.984002 -0.00599017 0)
(0.980627 -0.00591721 0)
(0.993742 -0.0104821 0)
(0.995634 0.0185936 0)
(1.01834 -0.00332936 0)
(1.01047 -0.021985 0)
(0.992007 -0.0321486 0)
(0.977598 -0.023922 0)
(0.979115 -0.00810125 0)
(0.979408 -0.0013213 0)
(0.976539 0.0110767 0)
(0.983175 0.00586081 0)
(0.987279 0.00809839 0)
(0.990197 0.000948138 0)
(0.993005 -0.00179238 0)
(0.990373 -0.00404515 0)
(0.993318 -0.00687623 0)
(0.989436 -0.00921574 0)
(0.989411 -0.00773476 0)
(0.985821 -0.00947244 0)
(0.983887 -0.00572581 0)
(0.980867 -0.00539132 0)
(0.99398 -0.0103378 0)
(0.995572 0.0181699 0)
(1.01779 -0.00327763 0)
(1.01041 -0.021785 0)
(0.992182 -0.031567 0)
(0.977818 -0.0237569 0)
(0.978889 -0.00801522 0)
(0.97967 -0.00135258 0)
(0.977904 0.0108622 0)
(0.984284 0.00572791 0)
(0.988486 0.00766371 0)
(0.990926 0.00106052 0)
(0.993665 -0.00209377 0)
(0.990685 -0.00391587 0)
(0.993144 -0.00682298 0)
(0.989432 -0.00887476 0)
(0.989041 -0.00759042 0)
(0.985772 -0.00889017 0)
(0.983743 -0.00540501 0)
(0.981072 -0.00489173 0)
(0.994144 -0.010187 0)
(0.995527 0.0177311 0)
(1.0173 -0.00321864 0)
(1.01047 -0.0215897 0)
(0.992377 -0.0309701 0)
(0.977923 -0.023565 0)
(0.978406 -0.00793766 0)
(0.979591 -0.00141443 0)
(0.978983 0.0106421 0)
(0.98527 0.00557168 0)
(0.989659 0.00719324 0)
(0.991734 0.00120775 0)
(0.994328 -0.00232012 0)
(0.99117 -0.00380848 0)
(0.993072 -0.00672966 0)
(0.989587 -0.00862194 0)
(0.988758 -0.00720096 0)
(0.985825 -0.00848394 0)
(0.983655 -0.00514793 0)
(0.981274 -0.00438227 0)
(0.994242 -0.0100304 0)
(0.995489 0.0172791 0)
(1.01689 -0.00315806 0)
(1.01063 -0.0213959 0)
(0.992557 -0.0303467 0)
(0.977939 -0.0233625 0)
(0.977796 -0.00783103 0)
(0.979304 -0.00153142 0)
(0.979792 0.0103381 0)
(0.986111 0.00549857 0)
(0.99073 0.00667898 0)
(0.992566 0.00135963 0)
(0.994947 -0.00252076 0)
(0.991769 -0.00365767 0)
(0.993064 -0.0065437 0)
(0.989887 -0.00835916 0)
(0.988604 -0.00688571 0)
(0.985915 -0.00784888 0)
(0.983639 -0.00491534 0)
(0.981491 -0.00397279 0)
(0.994292 -0.00986902 0)
(0.995451 0.0168148 0)
(1.01655 -0.00309011 0)
(1.01082 -0.0211955 0)
(0.992693 -0.0297248 0)
(0.977903 -0.0230647 0)
(0.977191 -0.00784313 0)
(0.978941 -0.00152284 0)
(0.980387 0.00983637 0)
(0.986814 0.00545091 0)
(0.991638 0.00613324 0)
(0.993354 0.00156053 0)
(0.995491 -0.00277002 0)
(0.992412 -0.00346885 0)
(0.993121 -0.00645179 0)
(0.990241 -0.00778539 0)
(0.988596 -0.00687226 0)
(0.986103 -0.00707217 0)
(0.983681 -0.00458388 0)
(0.981753 -0.00364227 0)
(0.99431 -0.00969239 0)
(0.995405 0.0163209 0)
(1.01629 -0.00302224 0)
(1.01102 -0.0210026 0)
(0.992775 -0.0290583 0)
(0.977856 -0.022798 0)
(0.976688 -0.00774137 0)
(0.978621 -0.00170246 0)
(0.980813 0.00945379 0)
(0.987385 0.00533488 0)
(0.992357 0.00558302 0)
(0.994042 0.00169085 0)
(0.995923 -0.00285404 0)
(0.993021 -0.00343444 0)
(0.993218 -0.00606244 0)
(0.990621 -0.00771625 0)
(0.988686 -0.00625505 0)
(0.986403 -0.00662576 0)
(0.983849 -0.0043507 0)
(0.982069 -0.00318081 0)
(0.99432 -0.00951982 0)
(0.995347 0.0158307 0)
(1.01608 -0.00296882 0)
(1.01118 -0.0207747 0)
(0.992807 -0.028414 0)
(0.977847 -0.0224164 0)
(0.976342 -0.00776718 0)
(0.97841 -0.00174716 0)
(0.981138 0.00886349 0)
(0.987824 0.00528374 0)
(0.992864 0.00502399 0)
(0.994603 0.00177328 0)
(0.996215 -0.00283326 0)
(0.993577 -0.00342991 0)
(0.993272 -0.0057668 0)
(0.991008 -0.00724318 0)
(0.988887 -0.00620987 0)
(0.986592 -0.00596062 0)
(0.984082 -0.00379606 0)
(0.982424 -0.00278913 0)
(0.99434 -0.00933357 0)
(0.995275 0.015308 0)
(1.01589 -0.00287923 0)
(1.01126 -0.0205716 0)
(0.99281 -0.0277176 0)
(0.977895 -0.0220332 0)
(0.976192 -0.00779763 0)
(0.97834 -0.00178028 0)
(0.981382 0.00823935 0)
(0.988155 0.00516143 0)
(0.993192 0.00455724 0)
(0.995001 0.00171659 0)
(0.996383 -0.00268882 0)
(0.993983 -0.00347643 0)
(0.993377 -0.00538877 0)
(0.99127 -0.00685557 0)
(0.989134 -0.00590712 0)
(0.987049 -0.00575388 0)
(0.984387 -0.00318268 0)
(0.982767 -0.00226081 0)
(0.994387 -0.00911912 0)
(0.995192 0.0147333 0)
(1.0157 -0.00280715 0)
(1.01125 -0.0203647 0)
(0.992793 -0.0270014 0)
(0.978038 -0.0216798 0)
(0.976216 -0.00770599 0)
(0.978416 -0.00201228 0)
(0.98161 0.00778838 0)
(0.98838 0.00497246 0)
(0.993356 0.00408174 0)
(0.995249 0.00174398 0)
(0.996436 -0.00269192 0)
(0.99429 -0.00349789 0)
(0.993386 -0.00495028 0)
(0.991529 -0.00671869 0)
(0.98935 -0.00501214 0)
(0.98731 -0.00540414 0)
(0.984818 -0.00293412 0)
(0.983117 -0.00172482 0)
(0.994467 -0.00893887 0)
(0.995107 0.0142207 0)
(1.01548 -0.00278478 0)
(1.01113 -0.0200499 0)
(0.992785 -0.0263945 0)
(0.978262 -0.0210812 0)
(0.976414 -0.00792876 0)
(0.978627 -0.00188189 0)
(0.981829 0.0068886 0)
(0.988523 0.00500082 0)
(0.993445 0.00338388 0)
(0.995339 0.00191783 0)
(0.99639 -0.00285572 0)
(0.994465 -0.00317431 0)
(0.993395 -0.00503812 0)
(0.991698 -0.00572009 0)
(0.989594 -0.00530613 0)
(0.987577 -0.00404077 0)
(0.985182 -0.00285272 0)
(0.983501 -0.00183944 0)
(0.994579 -0.00871881 0)
(0.99503 0.0136336 0)
(1.01521 -0.00267659 0)
(1.01093 -0.0198214 0)
(0.992776 -0.0256506 0)
(0.97858 -0.0206679 0)
(0.976751 -0.00790208 0)
(0.978943 -0.00203586 0)
(0.982076 0.00632408 0)
(0.988622 0.0047808 0)
(0.993453 0.00302735 0)
(0.995337 0.00161083 0)
(0.996307 -0.00255123 0)
(0.994526 -0.00326573 0)
(0.993383 -0.00448927 0)
(0.991776 -0.00547892 0)
(0.989897 -0.00465 0)
(0.987932 -0.00421646 0)
(0.985427 -0.00211886 0)
(0.983922 -0.00115749 0)
(0.994722 -0.00847241 0)
(0.99497 0.0129851 0)
(1.01487 -0.00258583 0)
(1.01066 -0.0195871 0)
(0.992785 -0.0249362 0)
(0.978972 -0.0202029 0)
(0.977193 -0.00791336 0)
(0.979369 -0.00222333 0)
(0.98235 0.00591851 0)
(0.988686 0.00436102 0)
(0.993437 0.00280152 0)
(0.995271 0.00146607 0)
(0.996147 -0.00235879 0)
(0.994555 -0.00341855 0)
(0.99331 -0.00394871 0)
(0.991867 -0.00525313 0)
(0.98997 -0.00374395 0)
(0.988178 -0.00428847 0)
(0.985945 -0.00156733 0)
(0.9842 -0.00040145 0)
(0.994892 -0.00828231 0)
(0.994928 0.0124648 0)
(1.01448 -0.00260987 0)
(1.01032 -0.0191567 0)
(0.992821 -0.0244002 0)
(0.979408 -0.0195065 0)
(0.977733 -0.00815344 0)
(0.97985 -0.00211889 0)
(0.982676 0.0049021 0)
(0.988731 0.00449763 0)
(0.993439 0.00201485 0)
(0.995146 0.00162555 0)
(0.995969 -0.00255453 0)
(0.994537 -0.00293306 0)
(0.99327 -0.00391143 0)
(0.991913 -0.00422616 0)
(0.990125 -0.00409835 0)
(0.988398 -0.00265495 0)
(0.986303 -0.00214492 0)
(0.984585 -0.000924437 0)
(0.995073 -0.00803814 0)
(0.994915 0.0118304 0)
(1.01403 -0.00247029 0)
(1.00995 -0.0188972 0)
(0.992866 -0.0236793 0)
(0.979888 -0.0190264 0)
(0.978329 -0.00816396 0)
(0.98038 -0.00231273 0)
(0.983045 0.00450246 0)
(0.988766 0.00401886 0)
(0.99343 0.00186213 0)
(0.995027 0.00131429 0)
(0.995806 -0.00212675 0)
(0.9945 -0.00313597 0)
(0.993224 -0.00349626 0)
(0.991887 -0.00409536 0)
(0.990373 -0.00347235 0)
(0.988642 -0.00288762 0)
(0.986434 -0.00105958 0)
(0.985043 -5.62817e-05 0)
(0.995264 -0.00776426 0)
(0.994931 0.0111375 0)
(1.01353 -0.00238148 0)
(1.00957 -0.0186003 0)
(0.992929 -0.0230033 0)
(0.980393 -0.0185447 0)
(0.978957 -0.00811983 0)
(0.980968 -0.00259366 0)
(0.983421 0.00418643 0)
(0.988818 0.00354185 0)
(0.993446 0.00177969 0)
(0.994906 0.000786803 0)
(0.995574 -0.00173977 0)
(0.994455 -0.00319678 0)
(0.993177 -0.00309706 0)
(0.991967 -0.00391227 0)
(0.99038 -0.00258711 0)
(0.988978 -0.00314482 0)
(0.987025 -0.000267533 0)
(0.98525 0.000812108 0)
(0.995468 -0.00757391 0)
(0.994961 0.0106329 0)
(1.01301 -0.00245285 0)
(1.00915 -0.0180679 0)
(0.993024 -0.0225546 0)
(0.9809 -0.0177652 0)
(0.979621 -0.00842004 0)
(0.981549 -0.00245014 0)
(0.98385 0.00315329 0)
(0.988854 0.00373204 0)
(0.993426 0.000864136 0)
(0.994801 0.0011369 0)
(0.99543 -0.00195224 0)
(0.994396 -0.00260696 0)
(0.99314 -0.00315172 0)
(0.991999 -0.00296973 0)
(0.990465 -0.0027389 0)
(0.989169 -0.00144534 0)
(0.987371 -0.00150499 0)
(0.985635 -0.000161742 0)
(0.995666 -0.00730703 0)
(0.995021 0.00995497 0)
(1.01246 -0.00229527 0)
(1.00875 -0.017767 0)
(0.993125 -0.021857 0)
(0.98142 -0.0173115 0)
(0.980284 -0.00835476 0)
(0.982141 -0.00274727 0)
(0.984273 0.00282334 0)
(0.988876 0.00325933 0)
(0.993467 0.000781509 0)
(0.994728 0.000677987 0)
(0.995211 -0.00161425 0)
(0.99435 -0.00261933 0)
(0.993169 -0.00275518 0)
(0.992081 -0.00284893 0)
(0.990765 -0.00230802 0)
(0.989307 -0.00154225 0)
(0.98743 -0.000248298 0)
(0.986157 0.000886122 0)
(0.995864 -0.00701622 0)
(0.995104 0.00925822 0)
(1.0119 -0.00223855 0)
(1.00835 -0.0174001 0)
(0.993239 -0.0212322 0)
(0.981958 -0.0168362 0)
(0.98093 -0.00825052 0)
(0.98275 -0.00307722 0)
(0.984695 0.0025388 0)
(0.988931 0.00282044 0)
(0.993409 0.000707485 0)
(0.994663 0.000137815 0)
(0.995086 -0.0013136 0)
(0.994309 -0.00256934 0)
(0.993125 -0.00239656 0)
(0.992134 -0.00269279 0)
(0.990757 -0.0016932 0)
(0.989737 -0.00173615 0)
(0.988083 0.000992143 0)
(0.986345 0.00202116 0)
(0.996072 -0.00685015 0)
(0.995188 0.00881106 0)
(1.01134 -0.00236666 0)
(1.00792 -0.0167558 0)
(0.993389 -0.0208824 0)
(0.982475 -0.0160153 0)
(0.981584 -0.0085673 0)
(0.983332 -0.00287125 0)
(0.985131 0.00143476 0)
(0.988955 0.00318243 0)
(0.993416 -0.000128771 0)
(0.99462 0.000679343 0)
(0.99492 -0.00160785 0)
(0.994256 -0.00186095 0)
(0.993161 -0.00255199 0)
(0.99224 -0.00190953 0)
(0.990922 -0.00152162 0)
(0.990011 -0.000370232 0)
(0.988448 -0.000780012 0)
(0.986692 0.000487072 0)
(0.996265 -0.00652494 0)
(0.995297 0.00805875 0)
(1.01077 -0.00218034 0)
(1.00752 -0.016475 0)
(0.993532 -0.0201278 0)
(0.983024 -0.0157287 0)
(0.982213 -0.00827411 0)
(0.983894 -0.00336774 0)
(0.985573 0.00128572 0)
(0.988977 0.00261458 0)
(0.993365 0.000114627 0)
(0.994606 3.0346e-05 0)
(0.994825 -0.00120224 0)
(0.994226 -0.002035 0)
(0.993183 -0.00243189 0)
(0.992418 -0.00196569 0)
(0.991209 -0.00118159 0)
(0.989979 -0.000218054 0)
(0.988436 0.000593927 0)
(0.987276 0.00175431 0)
(0.996451 -0.00627961 0)
(0.995426 0.00745718 0)
(1.0102 -0.00220268 0)
(1.00712 -0.016009 0)
(0.993671 -0.0195348 0)
(0.983587 -0.0153018 0)
(0.982817 -0.00809423 0)
(0.984487 -0.00371015 0)
(0.985974 0.00109077 0)
(0.98905 0.00202494 0)
(0.993307 0.00036039 0)
(0.994596 -0.000528448 0)
(0.994695 -0.000823217 0)
(0.994133 -0.00233014 0)
(0.993231 -0.00233396 0)
(0.992595 -0.00217115 0)
(0.991411 -0.000943733 0)
(0.990584 0.000145761 0)
(0.989152 0.00225394 0)
(0.987424 0.00302209 0)
(0.996654 -0.00608887 0)
(0.995534 0.00698292 0)
(1.00966 -0.00230678 0)
(1.00669 -0.0153712 0)
(0.993843 -0.0191468 0)
(0.984135 -0.0146358 0)
(0.983428 -0.00821911 0)
(0.985033 -0.00361863 0)
(0.986402 0.000275408 0)
(0.989116 0.00220097 0)
(0.993229 -6.54414e-05 0)
(0.994601 -0.000367831 0)
(0.994617 -0.00104777 0)
(0.994048 -0.00176762 0)
(0.993269 -0.00219387 0)
(0.992804 -0.00175059 0)
(0.99184 -0.000638874 0)
(0.990959 0.000705092 0)
(0.989358 0.00121955 0)
(0.987668 0.0020737 0)
(0.99685 -0.00574149 0)
(0.995649 0.00625924 0)
(1.00912 -0.00219486 0)
(1.0063 -0.0150509 0)
(0.994006 -0.0184032 0)
(0.984691 -0.0143493 0)
(0.984021 -0.00800609 0)
(0.985564 -0.00387531 0)
(0.986833 -7.11279e-05 0)
(0.989192 0.00187708 0)
(0.993154 -3.92481e-05 0)
(0.994602 -0.000513706 0)
(0.994563 -0.00104853 0)
(0.994009 -0.00145942 0)
(0.993319 -0.00179154 0)
(0.993061 -0.00140318 0)
(0.992163 -0.000404901 0)
(0.991203 0.000509352 0)
(0.989691 0.00126704 0)
(0.988019 0.00230934 0)
(0.997038 -0.00556962 0)
(0.995774 0.00576878 0)
(1.00859 -0.00227181 0)
(1.0059 -0.0144902 0)
(0.994166 -0.0178879 0)
(0.985251 -0.0138422 0)
(0.984605 -0.00798534 0)
(0.986089 -0.00391717 0)
(0.987256 -0.000504253 0)
(0.989295 0.00164421 0)
(0.993066 -4.52874e-05 0)
(0.994597 -0.000665262 0)
(0.994557 -0.00102766 0)
(0.993996 -0.0011562 0)
(0.993363 -0.0014507 0)
(0.993241 -0.00116899 0)
(0.992454 -0.000490731 0)
(0.991559 0.000606104 0)
(0.990081 0.00149463 0)
(0.988346 0.0024087 0)
(0.997224 -0.00528179 0)
(0.9959 0.00520612 0)
(1.00806 -0.00230469 0)
(1.00552 -0.0140703 0)
(0.994331 -0.0172019 0)
(0.985803 -0.0134664 0)
(0.985184 -0.00787468 0)
(0.986601 -0.00402485 0)
(0.987683 -0.000881249 0)
(0.989419 0.00139699 0)
(0.992975 -7.40744e-05 0)
(0.994591 -0.000776741 0)
(0.994584 -0.000989443 0)
(0.994016 -0.000962553 0)
(0.993398 -0.0011424 0)
(0.993393 -0.00100034 0)
(0.992772 -0.000331128 0)
(0.991935 0.000732163 0)
(0.990439 0.0015524 0)
(0.988652 0.00239561 0)
(0.997407 -0.00504621 0)
(0.996028 0.00464382 0)
(1.00756 -0.00231172 0)
(1.00514 -0.0136081 0)
(0.994488 -0.0165808 0)
(0.986351 -0.0130727 0)
(0.985755 -0.00774799 0)
(0.987103 -0.00414343 0)
(0.988114 -0.0011915 0)
(0.989568 0.00109447 0)
(0.992887 -6.3344e-05 0)
(0.994589 -0.000871096 0)
(0.994636 -0.000976993 0)
(0.994057 -0.00086486 0)
(0.993435 -0.000883487 0)
(0.993544 -0.000754614 0)
(0.993072 -0.000218217 0)
(0.992281 0.000812971 0)
(0.990804 0.00157597 0)
(0.988956 0.00236766 0)
(0.997585 -0.00480536 0)
(0.996163 0.00413366 0)
(1.00706 -0.00233468 0)
(1.00477 -0.0132242 0)
(0.994646 -0.0159152 0)
(0.986892 -0.0126292 0)
(0.986321 -0.007624 0)
(0.9876 -0.00425771 0)
(0.988548 -0.00148651 0)
(0.989742 0.000777118 0)
(0.992811 -3.85083e-05 0)
(0.994575 -0.000918772 0)
(0.994702 -0.000988474 0)
(0.994131 -0.000758175 0)
(0.993508 -0.000617577 0)
(0.993659 -0.00047508 0)
(0.99336 -0.000102966 0)
(0.99265 0.000850163 0)
(0.991142 0.00158797 0)
(0.989253 0.00236555 0)
(0.99776 -0.00455728 0)
(0.996296 0.00361126 0)
(1.00657 -0.00236668 0)
(1.00441 -0.0128073 0)
(0.994805 -0.0152508 0)
(0.98742 -0.0122184 0)
(0.986872 -0.00751504 0)
(0.988084 -0.00433877 0)
(0.988986 -0.00175508 0)
(0.989947 0.00047224 0)
(0.992754 -2.81043e-05 0)
(0.994558 -0.000945334 0)
(0.994789 -0.0010251 0)
(0.994239 -0.000673035 0)
(0.993589 -0.000436599 0)
(0.993767 -0.000252842 0)
(0.993596 3.09008e-05 0)
(0.992979 0.000883491 0)
(0.991514 0.00159914 0)
(0.989567 0.00238376 0)
(0.997929 -0.00433134 0)
(0.996437 0.00311943 0)
(1.0061 -0.00238231 0)
(1.00406 -0.0124118 0)
(0.994962 -0.0146344 0)
(0.987939 -0.0117794 0)
(0.987423 -0.0073684 0)
(0.988564 -0.00439249 0)
(0.989421 -0.00201246 0)
(0.990176 0.00017239 0)
(0.992714 -5.98917e-05 0)
(0.994525 -0.000944705 0)
(0.99488 -0.00107642 0)
(0.994368 -0.00061455 0)
(0.993702 -0.000303887 0)
(0.993869 -1.78683e-05 0)
(0.993832 0.000158056 0)
(0.993325 0.00093172 0)
(0.991868 0.00159846 0)
(0.989876 0.00236357 0)
(0.998095 -0.00409159 0)
(0.996576 0.0026411 0)
(1.00564 -0.00242233 0)
(1.00372 -0.0120365 0)
(0.995129 -0.0139996 0)
(0.988451 -0.0112949 0)
(0.987956 -0.00722208 0)
(0.989022 -0.00446883 0)
(0.989854 -0.00225741 0)
(0.99043 -0.000126253 0)
(0.9927 -0.000104693 0)
(0.994495 -0.000877998 0)
(0.994986 -0.00110491 0)
(0.994529 -0.000569486 0)
(0.993839 -0.00017847 0)
(0.993976 0.000189218 0)
(0.994013 0.00032526 0)
(0.993623 0.000963094 0)
(0.992234 0.00157568 0)
(0.990193 0.00231558 0)
(0.998253 -0.00386951 0)
(0.99672 0.00216692 0)
(1.0052 -0.00243667 0)
(1.00339 -0.0116176 0)
(0.9953 -0.0134533 0)
(0.988949 -0.0108419 0)
(0.988476 -0.00706136 0)
(0.989475 -0.00448416 0)
(0.990284 -0.00244982 0)
(0.990706 -0.000388349 0)
(0.992719 -0.000171791 0)
(0.994454 -0.000791425 0)
(0.995075 -0.00114801 0)
(0.994706 -0.000581822 0)
(0.994007 -9.93974e-05 0)
(0.994095 0.00034505 0)
(0.994192 0.000486487 0)
(0.993909 0.00101855 0)
(0.992573 0.00156379 0)
(0.990508 0.00225688 0)
(0.998407 -0.00363731 0)
(0.996864 0.00174476 0)
(1.00478 -0.00253236 0)
(1.00307 -0.0111762 0)
(0.995476 -0.0129323 0)
(0.989447 -0.010358 0)
(0.988986 -0.00687694 0)
(0.989909 -0.0045096 0)
(0.990705 -0.00265339 0)
(0.990998 -0.000675796 0)
(0.992767 -0.000297116 0)
(0.994417 -0.000718975 0)
(0.995159 -0.00113632 0)
(0.99491 -0.000582076 0)
(0.994203 -1.66936e-06 0)
(0.994234 0.000486139 0)
(0.994337 0.000664185 0)
(0.994147 0.00108381 0)
(0.992904 0.00156606 0)
(0.990821 0.00219129 0)
(0.998554 -0.00345379 0)
(0.997004 0.00135772 0)
(1.00438 -0.00257299 0)
(1.00277 -0.010768 0)
(0.995649 -0.0124707 0)
(0.989926 -0.00984884 0)
(0.98948 -0.0066643 0)
(0.990341 -0.00447075 0)
(0.991128 -0.00280792 0)
(0.991312 -0.000914149 0)
(0.992856 -0.00041724 0)
(0.994392 -0.000633122 0)
(0.995226 -0.00109576 0)
(0.995116 -0.00062235 0)
(0.994417 3.9698e-05 0)
(0.99438 0.000571085 0)
(0.994483 0.000811649 0)
(0.994361 0.00115097 0)
(0.993187 0.00155933 0)
(0.991115 0.00209884 0)
(0.998694 -0.00321079 0)
(0.997148 0.000924286 0)
(1.00399 -0.00255912 0)
(1.00246 -0.0104691 0)
(0.995852 -0.0118984 0)
(0.990432 -0.00951998 0)
(0.989953 -0.0064169 0)
(0.990729 -0.00437494 0)
(0.991511 -0.00291528 0)
(0.991618 -0.00112846 0)
(0.992965 -0.000564179 0)
(0.994379 -0.000595645 0)
(0.995278 -0.00101137 0)
(0.99534 -0.000667646 0)
(0.994672 6.45855e-05 0)
(0.994575 0.000641147 0)
(0.99463 0.000951348 0)
(0.994542 0.00121347 0)
(0.993454 0.00156252 0)
(0.991405 0.00202156 0)
(0.998829 -0.00301792 0)
(0.997291 0.000556119 0)
(1.00362 -0.00261887 0)
(1.00219 -0.0100633 0)
(0.996035 -0.0113987 0)
(0.990896 -0.00920234 0)
(0.990443 -0.00615507 0)
(0.991136 -0.00425086 0)
(0.99191 -0.00299807 0)
(0.991951 -0.00131794 0)
(0.993116 -0.000710422 0)
(0.994404 -0.000569967 0)
(0.995317 -0.000874243 0)
(0.995539 -0.000686309 0)
(0.994937 6.75431e-05 0)
(0.994773 0.000689994 0)
(0.994772 0.00105298 0)
(0.994697 0.00129722 0)
(0.993671 0.00158704 0)
(0.991669 0.00196731 0)
(0.998956 -0.0028454 0)
(0.997433 0.000251622 0)
(1.00327 -0.00269386 0)
(1.00191 -0.00960616 0)
(0.996218 -0.0110632 0)
(0.991381 -0.00875889 0)
(0.990924 -0.00589458 0)
(0.991515 -0.00414497 0)
(0.992284 -0.00306636 0)
(0.992281 -0.00148072 0)