/*--------------------------------*- C++ -*----------------------------------*\
| =========                 |                                                 |
| \\      /  F ield         | OpenFOAM: The Open Source CFD Toolbox           |
|  \\    /   O peration     | Version:  v2012                                 |
|   \\  /    A nd           | Website:  www.openfoam.com                      |
|    \\/     M anipulation  |                                                 |
\*---------------------------------------------------------------------------*/
FoamFile
{
    version     2.0;
    format      ascii;
    class       volScalarField;
    location    "5.8";
    object      p;
}
// * * * * * * * * * * * * * * * * * * * * * * * * * * * * * * * * * * * * * //

dimensions      [0 2 -2 0 0 0 0];


internalField   nonuniform List<scalar> 
7000
(
-3.96746e-11
0.00951234
0.0127963
0.00930136
0.00440162
0.0147826
0.0106592
0.0127909
0.0151296
0.016449
0.0166256
0.0190636
0.0193597
0.0217299
0.0224911
0.0245555
0.0256078
0.0283625
0.030488
0.0353432
3.63742e-06
0.00952123
0.0127789
0.00929139
0.0044175
0.0147652
0.0106643
0.012796
0.015119
0.0164662
0.0166252
0.0190572
0.0193636
0.0217179
0.0224921
0.0245314
0.0256112
0.0283297
0.0305004
0.0350167
8.2856e-06
0.00952907
0.0127455
0.00929185
0.00443057
0.0147366
0.0106759
0.0128009
0.0151107
0.0164846
0.0166221
0.0190429
0.0193686
0.0216957
0.0224922
0.024499
0.0256199
0.0282884
0.0305007
0.0345993
1.60484e-05
0.00952904
0.0127103
0.00930945
0.00445205
0.0147
0.0106934
0.0128063
0.0151053
0.0164959
0.0166189
0.0190206
0.0193718
0.0216682
0.0224907
0.0244646
0.0256321
0.02824
0.0304778
0.0341978
2.95127e-05
0.00952121
0.0126765
0.00934648
0.00448809
0.0146568
0.010718
0.0128104
0.0150984
0.0165007
0.0166164
0.0189904
0.0193739
0.0216358
0.0224919
0.0244261
0.0256476
0.0281813
0.0304386
0.033824
5.07843e-05
0.00950575
0.012644
0.00940113
0.00454335
0.0146097
0.01075
0.0128104
0.0150885
0.0165015
0.016614
0.0189539
0.0193764
0.0215985
0.0224977
0.0243823
0.0256664
0.0281132
0.030385
0.0334762
8.08542e-05
0.00948297
0.0126135
0.00946872
0.00461765
0.0145606
0.0107886
0.0128057
0.0150763
0.0165003
0.0166109
0.0189138
0.0193805
0.0215566
0.0225081
0.0243338
0.0256862
0.0280364
0.0303155
0.0331481
0.000119692
0.0094548
0.0125859
0.00954331
0.00470739
0.0145105
0.0108325
0.0127975
0.0150629
0.016498
0.0166073
0.0188719
0.0193865
0.0215101
0.022522
0.0242806
0.0257038
0.0279525
0.0302282
0.0328294
0.000166699
0.00942431
0.0125617
0.00961926
0.00480753
0.014459
0.010881
0.0127876
0.0150495
0.016495
0.0166055
0.0188294
0.0193943
0.0214594
0.0225379
0.0242223
0.025717
0.027863
0.0301211
0.0325204
0.000221096
0.00939471
0.0125404
0.00969224
0.0049135
0.0144059
0.010934
0.0127729
0.015037
0.0164911
0.0166067
0.0187871
0.0194035
0.0214047
0.0225544
0.024159
0.0257236
0.0277688
0.0299942
0.0322193
0.000282099
0.00936861
0.0125214
0.00975968
0.00502214
0.014351
0.0109917
0.0127643
0.0150258
0.0164862
0.0166111
0.0187457
0.019414
0.0213468
0.0225703
0.0240909
0.0257218
0.0276705
0.0298487
0.0319239
0.000348973
0.00934759
0.0125041
0.00982047
0.00513179
0.0142943
0.0110546
0.0127574
0.0150163
0.0164801
0.0166189
0.0187057
0.0194259
0.0212862
0.0225846
0.0240189
0.0257096
0.0275685
0.0296866
0.031632
0.000421007
0.00933214
0.012488
0.00987465
0.00524196
0.014236
0.0111229
0.0127525
0.0150088
0.0164726
0.0166302
0.0186673
0.0194394
0.0212234
0.0225965
0.0239439
0.0256856
0.0274632
0.0295099
0.0313415
0.000497501
0.00932188
0.0124728
0.00992309
0.00535289
0.0141764
0.0111962
0.0127495
0.0150035
0.0164638
0.0166445
0.0186304
0.0194545
0.0211589
0.022605
0.0238675
0.0256487
0.0273546
0.0293204
0.0310506
0.000577793
0.0093159
0.0124581
0.009967
0.00546519
0.0141156
0.0112742
0.0127477
0.0150005
0.0164537
0.0166615
0.0185943
0.019471
0.0210931
0.0226089
0.0237907
0.0255982
0.0272427
0.0291197
0.0307579
0.000661301
0.00931309
0.0124434
0.0100076
0.00557951
0.0140538
0.0113563
0.0127468
0.0149998
0.0164422
0.0166805
0.0185583
0.0194883
0.0210266
0.0226068
0.0237149
0.0255335
0.0271266
0.0289094
0.0304627
0.000747562
0.00931243
0.0124287
0.0100457
0.0056964
0.0139911
0.011442
0.012746
0.0150012
0.0164293
0.0167012
0.0185217
0.0195055
0.0209605
0.0225975
0.023641
0.0254547
0.0270052
0.0286908
0.0301644
0.000836248
0.00931321
0.0124137
0.0100819
0.0058162
0.0139276
0.0115309
0.0127451
0.0150047
0.016415
0.016723
0.0184842
0.0195212
0.0208957
0.02258
0.023569
0.025362
0.0268773
0.0284651
0.029863
0.000927162
0.00931496
0.0123983
0.0101163
0.0059391
0.0138634
0.0116227
0.0127435
0.0150099
0.0163994
0.0167452
0.018446
0.0195341
0.0208328
0.0225534
0.0234986
0.025256
0.0267421
0.0282334
0.0295583
0.00102022
0.00931745
0.0123827
0.0101492
0.00606516
0.0137984
0.0117174
0.012741
0.0150168
0.0163828
0.0167671
0.0184075
0.0195429
0.0207724
0.0225173
0.023429
0.0251379
0.0265984
0.0279968
0.0292509
0.00111544
0.00932056
0.0123667
0.0101805
0.00619436
0.0137328
0.0118146
0.0127374
0.0150249
0.0163654
0.0167875
0.0183697
0.0195467
0.0207149
0.0224716
0.023359
0.0250086
0.0264451
0.0277561
0.0289414
0.00121286
0.00932429
0.0123507
0.0102101
0.00632661
0.0136664
0.0119144
0.0127325
0.015034
0.0163481
0.016805
0.018333
0.0195446
0.0206598
0.0224165
0.023287
0.0248688
0.026282
0.027512
0.0286304
0.00131257
0.00932865
0.0123347
0.010238
0.0064618
0.0135994
0.0120165
0.0127264
0.0150435
0.0163319
0.0168185
0.0182979
0.0195362
0.0206066
0.0223528
0.0232116
0.0247195
0.0261089
0.027265
0.0283186
0.00141468
0.00933369
0.012319
0.010264
0.0065998
0.0135318
0.0121207
0.0127193
0.0150525
0.016318
0.0168269
0.0182648
0.0195216
0.0205541
0.0222813
0.0231309
0.0245609
0.0259273
0.0270163
0.0280058
0.00151928
0.00933941
0.0123037
0.0102882
0.00674048
0.0134636
0.0122267
0.0127116
0.0150603
0.0163073
0.0168296
0.0182337
0.0195008
0.0205008
0.0222037
0.0230442
0.0243909
0.0257366
0.0267694
0.0276934
0.00162645
0.00934579
0.0122892
0.0103104
0.00688368
0.013395
0.0123341
0.0127041
0.0150654
0.0163011
0.0168261
0.0182043
0.019475
0.0204444
0.0221199
0.0229539
0.0242094
0.0255323
0.0265251
0.0273856
0.00173629
0.00935276
0.0122756
0.0103308
0.0070291
0.0133264
0.0124424
0.0126977
0.0150668
0.0163001
0.0168162
0.0181755
0.0194454
0.0203838
0.0220282
0.0228604
0.0240204
0.0253121
0.0262797
0.0270836
0.00184887
0.0093604
0.0122632
0.0103493
0.00717661
0.013258
0.0125513
0.0126934
0.0150633
0.016305
0.0168004
0.018146
0.0194134
0.0203176
0.0219288
0.0227621
0.0238271
0.0250796
0.0260306
0.0267855
0.00196431
0.00936859
0.0122521
0.010366
0.00732597
0.0131902
0.0126597
0.0126926
0.0150541
0.0163155
0.0167798
0.018114
0.0193809
0.0202447
0.0218202
0.0226581
0.0236342
0.0248403
0.0257679
0.0264898
0.0020827
0.0093773
0.0122426
0.010381
0.00747667
0.0131238
0.0127668
0.0126962
0.0150387
0.0163319
0.0167543
0.0180797
0.0193469
0.0201686
0.0216997
0.0225448
0.0234354
0.0245909
0.0255164
0.0261978
0.00220416
0.00938642
0.0122349
0.0103944
0.00762836
0.0130595
0.0128718
0.0127051
0.0150159
0.0163539
0.0167259
0.0180396
0.0193124
0.0200897
0.021567
0.0224241
0.0232272
0.0243276
0.025278
0.0259131
0.00232877
0.00939588
0.0122291
0.0104065
0.00778035
0.0129982
0.0129735
0.0127206
0.0149855
0.0163799
0.016698
0.0179893
0.0192795
0.020007
0.0214221
0.0223009
0.0230198
0.0240494
0.0250011
0.0256377
0.00245664
0.00940564
0.0122252
0.0104176
0.00793207
0.0129406
0.0130718
0.0127423
0.0149462
0.0164077
0.0166747
0.0179281
0.0192462
0.0199225
0.0212653
0.0221662
0.0228163
0.0237545
0.0247224
0.02537
0.00258801
0.00941538
0.0122235
0.0104277
0.00808301
0.0128875
0.0131659
0.01277
0.0149172
0.0164332
0.0166594
0.017854
0.0192128
0.0198373
0.021098
0.0220203
0.0226186
0.0234569
0.0243708
0.0251035
0.00272282
0.00942521
0.0122239
0.0104376
0.00823166
0.0128401
0.0132547
0.0128049
0.014869
0.0164612
0.0166455
0.0177735
0.0191718
0.0197569
0.020914
0.0218415
0.0224108
0.0231692
0.024078
0.0248404
0.00286113
0.00943516
0.0122261
0.010448
0.00837764
0.0127989
0.0133382
0.0128464
0.0148127
0.0164904
0.0166364
0.0176869
0.019114
0.0196818
0.0207148
0.021637
0.0221944
0.0228913
0.023841
0.024577
0.00300343
0.00944458
0.0122304
0.0104583
0.00852073
0.0127636
0.0134179
0.0128912
0.014763
0.0165028
0.016645
0.0175888
0.0190476
0.0196037
0.0205191
0.0214209
0.0219955
0.0226266
0.0234522
0.0243005
0.00314939
0.00945385
0.0122364
0.0104704
0.00865882
0.0127357
0.0134922
0.0129424
0.0147057
0.0165149
0.0166525
0.0174897
0.0189676
0.0195115
0.0203089
0.0211927
0.021789
0.0223775
0.0231577
0.0240234
0.003299
0.00946325
0.0122434
0.0104851
0.0087923
0.0127144
0.0135616
0.0129984
0.0146437
0.016529
0.0166602
0.0173898
0.0188669
0.0194153
0.0200867
0.0209469
0.0215615
0.0221327
0.0229704
0.0237585
0.00345309
0.00947167
0.0122521
0.0105013
0.00892156
0.012698
0.0136305
0.0130518
0.0145972
0.0165115
0.0166833
0.0172788
0.0187518
0.0193333
0.01989
0.0206915
0.021333
0.0218745
0.0225679
0.0234901
0.003611
0.0094801
0.0122612
0.0105221
0.00904453
0.0126884
0.0136952
0.0131112
0.0145432
0.0164968
0.0167087
0.0171685
0.0186095
0.0192266
0.0196937
0.0204289
0.021084
0.0216321
0.0223069
0.0232294
0.0037727
0.00948875
0.0122702
0.0105481
0.00916211
0.0126836
0.0137574
0.0131741
0.014484
0.0164892
0.0167291
0.0170575
0.0184337
0.0191056
0.0194845
0.0201554
0.0208175
0.0214086
0.0222123
0.0229903
0.00393922
0.0094965
0.0122802
0.0105769
0.00927569
0.0126803
0.013822
0.0132341
0.0144354
0.0164546
0.0167626
0.0169543
0.0182583
0.0189663
0.0192905
0.0198767
0.0205701
0.021144
0.0217939
0.0227433
0.00410952
0.0095051
0.0122886
0.0106126
0.00938372
0.0126807
0.0138836
0.0133012
0.0143775
0.0164145
0.0167979
0.0168547
0.0180669
0.0188169
0.019088
0.0195761
0.0202853
0.0209004
0.0215557
0.0225093
0.00428406
0.00951416
0.0122951
0.0106553
0.00948815
0.012682
0.0139437
0.0133744
0.0143111
0.0163716
0.0168235
0.0167724
0.017856
0.0186615
0.0188659
0.0192551
0.0199553
0.0206753
0.0215291
0.0223011
0.00446354
0.00952298
0.0123015
0.010701
0.00959153
0.01268
0.0140082
0.0134438
0.0142541
0.0163013
0.016847
0.01669
0.0176492
0.0184979
0.018748
0.0190184
0.0195985
0.0202697
0.0210234
0.0220836
0.00464646
0.00953359
0.012305
0.0107543
0.00969261
0.0126774
0.0140706
0.013517
0.0141991
0.0162085
0.0168599
0.0166269
0.0174468
0.0183194
0.0186251
0.0187689
0.0191991
0.019804
0.0206237
0.0219019
0.00483393
0.00954563
0.0123056
0.0108134
0.00979309
0.0126746
0.0141261
0.0135998
0.0141386
0.0161014
0.0168634
0.0165873
0.0172443
0.0181228
0.0184683
0.0185202
0.0188104
0.0193862
0.0203036
0.021725
0.00502606
0.00955878
0.0123042
0.0108755
0.00989454
0.0126706
0.0141764
0.0136862
0.0140795
0.0159801
0.0168557
0.0165589
0.0170532
0.0178981
0.0182777
0.0182912
0.0184684
0.0190228
0.0199973
0.0215208
0.00522187
0.0095741
0.0123004
0.0109414
0.00999726
0.0126666
0.0142199
0.0137731
0.0140283
0.0158454
0.016828
0.0165429
0.0168769
0.0176449
0.0180613
0.0180858
0.0181789
0.0186881
0.0196859
0.0212874
0.00542208
0.00959198
0.0122943
0.0110088
0.0101018
0.0126625
0.014255
0.0138611
0.0139862
0.0156956
0.0167817
0.0165378
0.0167117
0.0173786
0.0178253
0.0178935
0.0179297
0.0183777
0.0193719
0.0210441
0.00562638
0.00961215
0.0122863
0.0110781
0.0102077
0.012658
0.014283
0.0139476
0.0139524
0.0155379
0.0167165
0.0165357
0.0165595
0.0171123
0.0175719
0.0176979
0.0177072
0.0180934
0.019073
0.0208036
0.00583457
0.00963503
0.0122771
0.011148
0.0103138
0.0126546
0.0143036
0.0140298
0.0139299
0.0153773
0.0166278
0.0165292
0.0164239
0.0168551
0.0173026
0.0174866
0.017505
0.0178454
0.0187952
0.0205675
0.00604666
0.00966116
0.0122665
0.011218
0.01042
0.0126529
0.0143164
0.0141072
0.0139192
0.0152131
0.0165117
0.016516
0.0163094
0.0166117
0.0170205
0.0172555
0.0173142
0.0176317
0.0185535
0.0203404
0.00626245
0.00969044
0.0122548
0.0112888
0.0105252
0.0126515
0.0143217
0.0141795
0.0139187
0.0150478
0.0163709
0.016495
0.0162154
0.0163806
0.016729
0.0170071
0.0171304
0.0174487
0.0183446
0.0201273
0.00648195
0.0097233
0.012242
0.0113603
0.0106283
0.01265
0.0143206
0.0142459
0.013927
0.0148913
0.0162089
0.0164595
0.0161363
0.0161617
0.0164377
0.0167483
0.0169438
0.0172835
0.0181685
0.0199331
0.00670481
0.00976036
0.0122279
0.0114327
0.010729
0.0126483
0.0143133
0.0143053
0.0139426
0.0147487
0.0160297
0.0164016
0.016068
0.0159617
0.0161584
0.0164807
0.0167439
0.017126
0.0180159
0.019763
0.00693035
0.00980231
0.0122122
0.0115068
0.0108259
0.0126432
0.0143025
0.0143586
0.0139641
0.0146197
0.0158376
0.0163168
0.0160091
0.0157872
0.0158907
0.0161985
0.0165243
0.0169683
0.0178865
0.0196196
0.00715891
0.00984885
0.0121964
0.0115818
0.0109193
0.0126333
0.014285
0.0144068
0.0139924
0.0145049
0.0156368
0.0162044
0.015955
0.0156359
0.0156329
0.0159079
0.016295
0.0168144
0.0177692
0.0194942
0.00739058
0.00990009
0.0121819
0.0116563
0.0110126
0.0126189
0.0142487
0.0144499
0.0140305
0.0144046
0.0154338
0.0160655
0.015896
0.0155057
0.0153939
0.0156219
0.0160556
0.0166483
0.0176535
0.0193804
0.00762376
0.00995713
0.0121663
0.0117331
0.0111038
0.0125957
0.0142045
0.0144897
0.0140742
0.0143174
0.0152339
0.0159015
0.0158239
0.015397
0.0151821
0.0153435
0.015801
0.0164661
0.0175289
0.0192738
0.00785826
0.01002
0.0121511
0.0118112
0.0111908
0.0125681
0.0141569
0.0145221
0.0141187
0.0142429
0.0150424
0.0157161
0.0157315
0.0153042
0.0149986
0.0150772
0.0155338
0.0162634
0.0173925
0.0191688
0.0080943
0.0100885
0.0121352
0.0118869
0.0112782
0.0125411
0.0141013
0.0145437
0.0141639
0.0141799
0.0148613
0.0155161
0.0156143
0.0152174
0.0148423
0.0148326
0.0152636
0.0160409
0.0172373
0.0190602
0.00833082
0.0101627
0.0121184
0.0119602
0.0113693
0.0125148
0.0140357
0.0145538
0.0142092
0.0141265
0.0146914
0.0153091
0.0154728
0.0151268
0.0147091
0.014617
0.0149996
0.0158008
0.0170608
0.0189422
0.00856717
0.0102423
0.0121017
0.0120314
0.0114638
0.0124893
0.0139611
0.0145511
0.0142531
0.0140824
0.0145323
0.0151002
0.0153094
0.0150254
0.014593
0.0144285
0.0147465
0.0155508
0.0168649
0.0188129
0.00880292
0.0103276
0.0120855
0.0120995
0.0115613
0.0124668
0.0138785
0.0145333
0.0142937
0.014047
0.0143832
0.0148938
0.0151296
0.0149114
0.0144853
0.0142613
0.0145124
0.0153029
0.0166556
0.018672
0.00903747
0.0104184
0.0120706
0.0121636
0.0116615
0.0124489
0.0137891
0.0144991
0.0143286
0.0140203
0.0142449
0.0146942
0.0149387
0.0147801
0.0143763
0.0141145
0.014304
0.0150642
0.0164378
0.0185173
0.00927002
0.0105147
0.012058
0.012223
0.0117632
0.0124369
0.0136949
0.0144481
0.0143548
0.0140036
0.0141185
0.0145021
0.0147396
0.0146304
0.0142637
0.0139853
0.0141186
0.0148367
0.016217
0.0183526
0.00949998
0.0106165
0.0120483
0.0122768
0.0118652
0.0124321
0.0135988
0.0143803
0.0143688
0.0139955
0.0140031
0.014317
0.0145372
0.0144672
0.0141447
0.0138647
0.013951
0.0146248
0.0160027
0.0181859
0.00972675
0.0107238
0.0120421
0.0123248
0.0119661
0.012435
0.0135033
0.0142967
0.014367
0.0139927
0.0139001
0.0141406
0.0143367
0.0142932
0.0140148
0.0137463
0.0138009
0.0144349
0.0158026
0.0180198
0.00994972
0.0108361
0.0120402
0.0123669
0.0120643
0.0124455
0.0134111
0.0141996
0.0143467
0.0139929
0.0138111
0.0139747
0.0141402
0.0141106
0.0138729
0.0136268
0.0136662
0.0142667
0.0156168
0.0178553
0.0101684
0.0109531
0.0120434
0.012403
0.0121581
0.0124631
0.0133247
0.0140919
0.0143063
0.0139916
0.0137355
0.0138189
0.0139491
0.0139238
0.0137199
0.013503
0.0135417
0.014116
0.0154469
0.0176982
0.0103822
0.0110744
0.0120523
0.0124335
0.0122462
0.012487
0.0132455
0.0139771
0.0142455
0.0139835
0.0136714
0.0136736
0.0137651
0.0137364
0.0135582
0.0133734
0.0134217
0.0139801
0.0152956
0.0175509
0.0105907
0.0111992
0.0120674
0.0124592
0.0123273
0.0125155
0.0131748
0.0138591
0.0141653
0.0139643
0.0136167
0.0135396
0.0135891
0.0135521
0.0133923
0.0132358
0.0133005
0.0138552
0.0151594
0.0174118
0.0107937
0.0113267
0.0120891
0.0124806
0.0124003
0.0125471
0.013113
0.0137413
0.014068
0.0139302
0.0135686
0.0134168
0.0134207
0.0133727
0.0132247
0.0130905
0.0131761
0.0137356
0.0150325
0.0172805
0.0109907
0.0114563
0.0121175
0.0124985
0.0124649
0.0125803
0.0130594
0.0136268
0.0139573
0.0138783
0.0135234
0.0133051
0.0132592
0.0131972
0.0130575
0.0129418
0.0130479
0.0136158
0.0149109
0.017156
0.0111817
0.0115869
0.0121526
0.0125139
0.0125206
0.0126135
0.0130132
0.0135179
0.0138373
0.0138072
0.0134765
0.0132041
0.0131051
0.0130256
0.012893
0.0127922
0.0129145
0.0134927
0.0147908
0.0170343
0.0113662
0.0117178
0.0121944
0.012528
0.012567
0.012645
0.0129736
0.0134154
0.0137126
0.0137176
0.0134226
0.0131127
0.0129596
0.0128578
0.0127299
0.0126412
0.0127764
0.0133652
0.0146678
0.0169118
0.0115443
0.0118481
0.0122423
0.0125417
0.0126046
0.0126735
0.0129394
0.0133194
0.0135873
0.0136122
0.013357
0.0130278
0.0128234
0.0126936
0.0125663
0.012489
0.0126352
0.013233
0.0145402
0.0167872
0.0117159
0.011977
0.0122958
0.0125562
0.0126339
0.0126976
0.0129095
0.0132295
0.0134641
0.0134954
0.0132761
0.0129445
0.0126964
0.0125345
0.0124025
0.012335
0.0124911
0.0130963
0.0144084
0.0166597
0.0118807
0.0121037
0.0123539
0.012572
0.0126559
0.0127161
0.0128828
0.0131451
0.0133441
0.0133719
0.0131795
0.0128575
0.0125766
0.0123815
0.0122392
0.0121788
0.0123436
0.0129554
0.0142721
0.0165275
0.012039
0.0122277
0.0124157
0.0125897
0.0126718
0.0127281
0.0128578
0.0130663
0.0132271
0.0132452
0.0130696
0.0127618
0.0124603
0.0122343
0.0120776
0.01202
0.0121922
0.0128097
0.0141305
0.0163902
0.0121905
0.0123483
0.0124801
0.0126095
0.0126832
0.0127335
0.0128326
0.0129927
0.0131127
0.0131175
0.0129502
0.0126549
0.0123427
0.0120911
0.011918
0.0118588
0.0120363
0.0126587
0.0139835
0.0162477
0.0123352
0.0124651
0.0125463
0.0126314
0.0126911
0.0127327
0.0128053
0.0129239
0.0130008
0.0129891
0.012826
0.0125378
0.0122198
0.0119478
0.0117587
0.0116949
0.0118758
0.0125021
0.0138301
0.0160981
0.012473
0.0125777
0.0126133
0.0126555
0.0126964
0.0127266
0.0127744
0.0128586
0.0128921
0.0128584
0.0126987
0.0124146
0.0120921
0.0118027
0.0115976
0.0115274
0.0117094
0.0123381
0.0136678
0.0159384
0.0126035
0.0126858
0.0126808
0.0126816
0.0126998
0.0127162
0.0127383
0.012794
0.012788
0.012724
0.0125659
0.0122869
0.0119613
0.0116562
0.0114348
0.0113558
0.0115365
0.0121665
0.0134968
0.0157683
0.0127262
0.0127884
0.0127476
0.0127101
0.0127031
0.012704
0.0126977
0.0127257
0.0126869
0.0125888
0.0124261
0.0121531
0.0118256
0.0115068
0.0112683
0.0111787
0.0113556
0.0119853
0.013315
0.0155861
0.0128419
0.0128867
0.0128127
0.0127383
0.0127035
0.0126895
0.0126566
0.0126545
0.0125919
0.0124577
0.0122824
0.0120133
0.0116844
0.0113535
0.0110969
0.0109943
0.0111637
0.011791
0.01312
0.0153892
0.0129483
0.0129793
0.0128788
0.0127718
0.0127038
0.0126677
0.012608
0.0125751
0.012499
0.0123356
0.0121392
0.0118704
0.0115396
0.0111974
0.0109207
0.0108009
0.0109597
0.0115824
0.0129076
0.0151728
0.0130458
0.0130654
0.0129398
0.0128081
0.0127145
0.0126525
0.0125563
0.0124832
0.0123963
0.012219
0.0119988
0.011724
0.0113884
0.0110352
0.0107382
0.0105971
0.0107408
0.0113544
0.012674
0.0149353
0.0131234
0.0131451
0.0129973
0.0128342
0.0127099
0.0126322
0.0125163
0.012399
0.0122873
0.0121045
0.0118646
0.0115777
0.0112331
0.0108679
0.0105512
0.0103884
0.010513
0.0111122
0.0124222
0.0146763
0.0132174
0.0132386
0.0130892
0.0128966
0.012697
0.0125555
0.012429
0.01231
0.0122011
0.012009
0.0117476
0.0114408
0.0110792
0.0106964
0.0103564
0.0101689
0.0102737
0.010858
0.0121561
0.0143996
0.0132392
0.0132579
0.013161
0.0130059
0.0127766
0.0125261
0.0123245
0.0121671
0.012042
0.0118757
0.011606
0.0112791
0.0108981
0.0104934
0.0101226
0.00989829
0.00997435
0.0105291
0.0117995
0.0140197
0.013375
0.0133795
0.0131891
0.0129313
0.0126517
0.012481
0.0123525
0.0122016
0.0120408
0.0118521
0.0115917
0.0112617
0.0108801
0.0104716
0.0100676
0.00977288
0.00972805
0.0101549
0.0113064
0.0134146
0.0133741
0.0134361
0.0131866
0.0130076
0.0128117
0.0124592
0.0120963
0.0118782
0.0117396
0.0115962
0.0113277
0.0109914
0.0106258
0.010313
0.0100771
0.00996916
0.0100797
0.0105874
0.0117378
0.0137976
0.0135495
0.0134563
0.0132278
0.0129085
0.012622
0.0124472
0.0123594
0.0122355
0.012045
0.0118197
0.0114934
0.01108
0.0105526
0.00991588
0.00925422
0.00868412
0.00838706
0.00857739
0.00951085
0.0114192
0.0138244
0.0134013
0.0130793
0.0127434
0.0125215
0.012239
0.0119357
0.0117743
0.0116037
0.0113296
0.0110387
0.010794
0.0107719
0.0110437
0.0116507
0.0125219
0.0134858
0.0142581
0.0144824
0.0138259
0.013817
0.0134593
0.0130891
0.0128422
0.0126983
0.0125927
0.0125156
0.012378
0.0121503
0.0117997
0.0113042
0.0106242
0.00977381
0.0088321
0.00791996
0.00713754
0.00661604
0.00655423
0.0072166
0.00885247
0.0140164
0.013455
0.0130413
0.01276
0.0126462
0.0124229
0.0120955
0.0116536
0.0112785
0.0110975
0.0109145
0.0105924
0.0103017
0.0102117
0.0104144
0.0108945
0.0115659
0.0121629
0.0123123
0.0116552
0.0140163
0.0134481
0.0130501
0.0128616
0.012873
0.0128913
0.012888
0.0127706
0.0124961
0.0119443
0.0110823
0.00986263
0.00834471
0.00670585
0.00518479
0.00398967
0.00328312
0.00323754
0.0040624
0.00594325
0.0401872
0.0229021
0.0159994
0.0158892
0.0167985
0.0174995
0.0181405
0.0188068
0.0194112
0.0199376
0.0205228
0.0213016
0.0221833
0.0229281
0.0236077
0.0244128
0.0252712
0.0260586
0.0268559
0.0277641
0.0286939
0.0296509
0.0307646
0.0318745
0.0327902
0.033805
0.0350269
0.0363014
0.0375744
0.0389051
0.0402389
0.0415975
0.0430289
0.0445384
0.0461029
0.0476978
0.0493803
0.0511028
0.0529352
0.0547981
0.0567455
0.0587376
0.0607757
0.0629278
0.0650475
0.0673364
0.0695059
0.0718346
0.073918
0.0756995
0.0396431
0.0229541
0.0160458
0.0159086
0.0168081
0.0175054
0.0181448
0.0188103
0.0194141
0.01994
0.0205247
0.0213031
0.0221846
0.0229292
0.0236087
0.0244136
0.025272
0.0260594
0.0268567
0.0277648
0.0286946
0.0296514
0.030765
0.031875
0.0327906
0.0338054
0.0350272
0.0363017
0.0375747
0.0389053
0.0402391
0.0415977
0.0430291
0.0445386
0.046103
0.0476979
0.0493805
0.051103
0.0529353
0.0547982
0.0567456
0.0587377
0.0607758
0.0629279
0.0650476
0.0673364
0.069506
0.0718346
0.073918
0.0756996
0.0391334
0.0230516
0.0161169
0.0159326
0.0168197
0.0175119
0.0181491
0.0188136
0.0194168
0.0199422
0.0205265
0.0213045
0.0221858
0.0229303
0.0236096
0.0244144
0.0252727
0.0260601
0.0268573
0.0277654
0.0286951
0.0296519
0.0307655
0.0318755
0.032791
0.0338057
0.0350275
0.036302
0.0375749
0.0389056
0.0402393
0.0415979
0.0430292
0.0445387
0.0461032
0.0476981
0.0493806
0.0511031
0.0529354
0.0547984
0.0567457
0.0587378
0.0607759
0.062928
0.0650477
0.0673365
0.0695061
0.0718347
0.073918
0.0756996
0.0386701
0.0231811
0.0162175
0.0159677
0.0168371
0.0175214
0.0181545
0.0188174
0.0194198
0.0199447
0.0205285
0.0213061
0.0221871
0.0229314
0.0236105
0.0244152
0.0252735
0.0260608
0.0268579
0.027766
0.0286957
0.0296524
0.0307659
0.0318759
0.0327914
0.033806
0.0350278
0.0363023
0.0375752
0.0389058
0.0402396
0.0415981
0.0430294
0.0445389
0.0461033
0.0476982
0.0493807
0.0511032
0.0529355
0.0547985
0.0567458
0.0587379
0.060776
0.062928
0.0650477
0.0673366
0.0695062
0.0718347
0.0739181
0.0756996
0.0382093
0.023323
0.0163407
0.0160144
0.0168624
0.0175357
0.0181623
0.0188222
0.0194235
0.0199478
0.0205311
0.0213082
0.0221888
0.0229327
0.0236116
0.0244161
0.0252743
0.0260615
0.0268585
0.0277666
0.0286963
0.0296529
0.0307664
0.0318764
0.0327918
0.0338063
0.0350281
0.0363026
0.0375755
0.0389061
0.0402398
0.0415983
0.0430296
0.0445391
0.0461035
0.0476984
0.0493809
0.0511033
0.0529357
0.0547986
0.0567459
0.058738
0.0607761
0.0629281
0.0650478
0.0673367
0.0695062
0.0718348
0.0739182
0.0756997
0.0377337
0.023468
0.0164765
0.0160684
0.0168942
0.0175549
0.0181728
0.0188286
0.0194282
0.0199519
0.0205346
0.0213109
0.0221908
0.0229344
0.0236129
0.0244172
0.0252752
0.0260622
0.0268592
0.0277672
0.0286969
0.0296535
0.030767
0.031877
0.0327923
0.0338066
0.0350285
0.0363029
0.0375758
0.0389063
0.0402401
0.0415986
0.0430298
0.0445393
0.0461037
0.0476985
0.049381
0.0511035
0.0529358
0.0547987
0.0567461
0.0587381
0.0607762
0.0629282
0.0650479
0.0673368
0.0695063
0.0718349
0.0739183
0.0756998
0.0372453
0.0236128
0.0166191
0.016126
0.0169298
0.017578
0.0181859
0.0188365
0.019434
0.019957
0.0205391
0.0213144
0.0221934
0.0229363
0.0236145
0.0244185
0.0252762
0.0260631
0.0268599
0.0277678
0.0286975
0.029654
0.0307676
0.0318777
0.0327928
0.033807
0.0350289
0.0363033
0.0375761
0.0389067
0.0402403
0.0415988
0.04303
0.0445395
0.0461039
0.0476987
0.0493812
0.0511036
0.0529359
0.0547988
0.0567462
0.0587382
0.0607763
0.0629283
0.065048
0.0673369
0.0695064
0.071835
0.0739185
0.0757
0.0367506
0.023756
0.0167662
0.0161852
0.0169673
0.0176035
0.018201
0.0188458
0.0194409
0.0199632
0.0205447
0.0213187
0.0221963
0.0229386
0.0236165
0.0244201
0.0252774
0.0260641
0.0268608
0.0277685
0.0286981
0.0296546
0.0307683
0.0318785
0.0327934
0.0338074
0.0350293
0.0363037
0.0375765
0.038907
0.0402407
0.0415991
0.0430303
0.0445397
0.0461041
0.0476989
0.0493813
0.0511037
0.0529361
0.054799
0.0567463
0.0587384
0.0607764
0.0629284
0.0650481
0.067337
0.0695065
0.0718352
0.0739187
0.0757002
0.0362548
0.0238959
0.0169173
0.0162454
0.0170054
0.0176305
0.0182174
0.018856
0.0194487
0.0199704
0.0205511
0.0213235
0.0221996
0.0229412
0.0236189
0.024422
0.0252787
0.0260653
0.0268618
0.0277693
0.0286987
0.0296552
0.0307689
0.0318793
0.0327941
0.0338079
0.0350298
0.0363042
0.0375769
0.0389074
0.040241
0.0415994
0.0430306
0.04454
0.0461043
0.0476991
0.0493815
0.0511039
0.0529362
0.0547991
0.0567464
0.0587385
0.0607765
0.0629286
0.0650482
0.0673371
0.0695067
0.0718354
0.0739189
0.0757004
0.035761
0.0240314
0.0170726
0.0163067
0.0170438
0.0176583
0.0182348
0.0188669
0.0194571
0.0199783
0.0205584
0.0213289
0.0222032
0.022944
0.0236215
0.0244241
0.0252802
0.0260666
0.0268631
0.0277704
0.0286994
0.0296557
0.0307696
0.0318802
0.0327949
0.0338086
0.0350304
0.0363047
0.0375774
0.0389079
0.0402415
0.0415998
0.0430309
0.0445403
0.0461046
0.0476993
0.0493817
0.0511041
0.0529364
0.0547993
0.0567466
0.0587386
0.0607767
0.0629287
0.0650484
0.0673372
0.0695068
0.0718356
0.0739193
0.0757007
0.0352711
0.024162
0.0172325
0.0163695
0.0170822
0.0176867
0.0182528
0.0188784
0.0194659
0.0199867
0.0205662
0.0213348
0.0222069
0.0229469
0.0236243
0.0244264
0.0252819
0.0260681
0.0268647
0.0277717
0.0287003
0.0296562
0.0307701
0.031881
0.0327957
0.0338094
0.0350311
0.0363053
0.0375778
0.0389083
0.040242
0.0416002
0.0430313
0.0445406
0.0461049
0.0476996
0.0493819
0.0511043
0.0529365
0.0547994
0.0567467
0.0587388
0.0607768
0.0629288
0.0650485
0.0673374
0.069507
0.0718359
0.0739198
0.0757011
0.0347863
0.024287
0.0173973
0.0164339
0.0171206
0.0177154
0.0182715
0.0188902
0.019475
0.0199955
0.0205744
0.0213409
0.0222108
0.0229499
0.0236272
0.0244288
0.0252836
0.0260697
0.0268665
0.0277733
0.0287015
0.0296568
0.0307704
0.0318816
0.0327966
0.0338103
0.035032
0.036306
0.0375784
0.0389088
0.0402425
0.0416008
0.0430318
0.044541
0.0461053
0.0476999
0.0493822
0.0511045
0.0529367
0.0547996
0.0567469
0.0587389
0.0607769
0.062929
0.0650486
0.0673376
0.0695072
0.0718362
0.0739204
0.0757015
0.034307
0.0244062
0.0175672
0.0165002
0.0171587
0.0177444
0.0182905
0.0189025
0.0194845
0.0200045
0.0205829
0.0213472
0.0222148
0.022953
0.0236303
0.0244314
0.0252854
0.0260714
0.0268683
0.0277752
0.028703
0.0296575
0.0307705
0.031882
0.0327973
0.0338113
0.0350331
0.0363068
0.0375789
0.0389094
0.040243
0.0416013
0.0430323
0.0445415
0.0461057
0.0477003
0.0493825
0.0511048
0.0529369
0.0547998
0.0567471
0.0587391
0.0607771
0.0629291
0.0650488
0.0673378
0.0695075
0.0718366
0.0739211
0.075702
0.0338331
0.0245191
0.0177425
0.0165688
0.0171966
0.0177736
0.0183101
0.0189152
0.0194942
0.0200138
0.0205916
0.0213539
0.0222189
0.0229561
0.0236334
0.0244341
0.0252873
0.0260731
0.0268702
0.0277772
0.0287048
0.0296584
0.0307705
0.0318821
0.0327979
0.0338124
0.0350343
0.0363078
0.0375796
0.0389099
0.0402436
0.041602
0.0430329
0.0445421
0.0461062
0.0477008
0.0493829
0.0511051
0.0529372
0.0548
0.0567472
0.0587393
0.0607773
0.0629293
0.065049
0.067338
0.0695077
0.0718371
0.0739219
0.0757027
0.0333644
0.0246252
0.0179234
0.0166401
0.0172343
0.0178028
0.0183299
0.0189282
0.0195043
0.0200233
0.0206007
0.0213608
0.0222231
0.0229593
0.0236367
0.0244369
0.0252892
0.0260748
0.0268722
0.0277793
0.0287067
0.0296594
0.0307703
0.0318818
0.0327981
0.0338133
0.0350358
0.0363089
0.0375803
0.0389104
0.0402441
0.0416026
0.0430336
0.0445427
0.0461068
0.0477013
0.0493834
0.0511054
0.0529374
0.0548002
0.0567474
0.0587394
0.0607774
0.0629295
0.0650492
0.0673383
0.0695081
0.0718377
0.073923
0.0757034
0.0329009
0.024724
0.0181099
0.0167149
0.0172717
0.017832
0.0183502
0.0189415
0.0195146
0.0200332
0.02061
0.021368
0.0222275
0.0229627
0.02364
0.0244398
0.0252913
0.0260766
0.0268741
0.0277814
0.0287087
0.0296605
0.03077
0.031881
0.0327981
0.0338142
0.0350373
0.0363103
0.0375811
0.0389109
0.0402446
0.0416033
0.0430344
0.0445434
0.0461074
0.0477019
0.0493839
0.0511058
0.0529377
0.0548004
0.0567476
0.0587396
0.0607776
0.0629297
0.0650494
0.0673386
0.0695085
0.0718384
0.0739242
0.0757043
0.0324425
0.024815
0.018302
0.0167935
0.0173089
0.0178612
0.0183708
0.0189553
0.0195253
0.0200433
0.0206196
0.0213755
0.0222321
0.0229663
0.0236435
0.0244428
0.0252934
0.0260784
0.0268761
0.0277835
0.0287107
0.0296616
0.0307694
0.0318799
0.0327977
0.0338149
0.0350389
0.0363118
0.0375821
0.0389114
0.040245
0.0416039
0.0430352
0.0445442
0.0461081
0.0477026
0.0493846
0.0511063
0.0529381
0.0548007
0.0567479
0.0587398
0.0607778
0.0629298
0.0650496
0.0673389
0.0695089
0.0718392
0.0739257
0.0757054
0.0319896
0.0248974
0.0184995
0.0168768
0.0173461
0.0178902
0.0183919
0.0189695
0.0195363
0.0200538
0.0206295
0.0213834
0.022237
0.02297
0.0236471
0.024446
0.0252957
0.0260803
0.0268782
0.0277857
0.0287126
0.0296627
0.0307686
0.0318783
0.0327971
0.0338154
0.0350404
0.0363134
0.0375831
0.0389119
0.0402454
0.0416045
0.043036
0.0445451
0.0461088
0.0477033
0.0493853
0.0511069
0.0529385
0.054801
0.0567481
0.05874
0.060778
0.06293
0.0650499
0.0673392
0.0695094
0.0718401
0.0739273
0.0757065
0.0315424
0.0249706
0.018702
0.0169652
0.0173833
0.0179189
0.0184132
0.0189841
0.0195477
0.0200645
0.0206398
0.0213915
0.0222421
0.0229739
0.0236509
0.0244493
0.025298
0.0260823
0.0268803
0.0277878
0.0287145
0.0296638
0.0307676
0.0318762