/*--------------------------------*- C++ -*----------------------------------*\
| =========                 |                                                 |
| \\      /  F ield         | OpenFOAM: The Open Source CFD Toolbox           |
|  \\    /   O peration     | Version:  v2012                                 |
|   \\  /    A nd           | Website:  www.openfoam.com                      |
|    \\/     M anipulation  |                                                 |
\*---------------------------------------------------------------------------*/
FoamFile
{
    version     2.0;
    format      ascii;
    class       surfaceScalarField;
    location    "5.8";
    object      phi;
}
// * * * * * * * * * * * * * * * * * * * * * * * * * * * * * * * * * * * * * //

dimensions      [0 3 -1 0 0 0 0];
oriented        oriented;


internalField   nonuniform List<scalar> 
13830
(
9.93419e-07
-2.29506e-06
1.04009e-06
1.1514e-06
9.37065e-07
1.48221e-06
9.0457e-07
-6.78212e-07
1.02428e-06
-2.58497e-06
9.47548e-07
-9.79818e-07
9.73789e-07
-4.60796e-07
9.70308e-07
1.77796e-07
9.46454e-07
-2.17539e-07
9.88819e-07
1.92591e-07
9.8006e-07
-8.99505e-08
9.79464e-07
2.97073e-07
9.79113e-07
2.04617e-07
9.67264e-07
1.7546e-07
9.69763e-07
2.15143e-07
9.58641e-07
4.67911e-08
9.60564e-07
1.20317e-07
9.53856e-07
2.93224e-08
9.52912e-07
5.31946e-08
-1.59181e-08
9.35988e-07
1.03833e-06
-2.36086e-06
1.09244e-06
1.09729e-06
9.78169e-07
1.59648e-06
9.47054e-07
-6.47097e-07
1.06582e-06
-2.70373e-06
9.89988e-07
-9.03991e-07
1.01837e-06
-4.8918e-07
1.02023e-06
1.75934e-07
9.93671e-07
-1.90975e-07
1.03467e-06
1.51593e-07
1.02395e-06
-7.92367e-08
1.02601e-06
2.95013e-07
1.01903e-06
2.11603e-07
1.0134e-06
1.81092e-07
1.00682e-06
2.21718e-07
1.00483e-06
4.87792e-08
9.95172e-07
1.29978e-07
1.00039e-06
2.41057e-08
9.8538e-07
6.82036e-08
-1.87245e-08
9.88187e-07
1.08064e-06
-2.43205e-06
1.15379e-06
1.02414e-06
1.03612e-06
1.71415e-06
9.95146e-07
-6.06124e-07
1.10192e-06
-2.8105e-06
1.04208e-06
-8.44149e-07
1.06599e-06
-5.13092e-07
1.08156e-06
1.60362e-07
1.0459e-06
-1.55319e-07
1.08553e-06
1.11966e-07
1.06905e-06
-6.27572e-08
1.07664e-06
2.87421e-07
1.0606e-06
2.27649e-07
1.06256e-06
1.79126e-07
1.04907e-06
2.35205e-07
1.05237e-06
4.54874e-08
1.03937e-06
1.42978e-07
1.04504e-06
1.84349e-08
1.03174e-06
8.15004e-08
-1.77377e-08
1.03075e-06
1.11919e-06
-2.50347e-06
1.21624e-06
9.27096e-07
1.10394e-06
1.82645e-06
1.04805e-06
-5.50231e-07
1.13142e-06
-2.89388e-06
1.09637e-06
-8.09097e-07
1.11486e-06
-5.31584e-07
1.14285e-06
1.32376e-07
1.10031e-06
-1.12785e-07
1.13308e-06
7.92032e-08
1.11469e-06
-4.43754e-08
1.1224e-06
2.79712e-07
1.10495e-06
2.45105e-07
1.10794e-06
1.76135e-07
1.09594e-06
2.47199e-07
1.09791e-06
4.35188e-08
1.08789e-06
1.52996e-07
1.08993e-06
1.63964e-08
1.07988e-06
9.15546e-08
-1.31382e-08
1.07528e-06
1.15407e-06
-2.56998e-06
1.27214e-06
8.09019e-07
1.17362e-06
1.92497e-06
1.10269e-06
-4.79303e-07
1.15441e-06
-2.94559e-06
1.14666e-06
-8.01351e-07
1.16244e-06
-5.47363e-07
1.19658e-06
9.82337e-08
1.15456e-06
-7.07636e-08
1.17593e-06
5.7835e-08
1.16072e-06
-2.91637e-08
1.16544e-06
2.74986e-07
1.1514e-06
2.59144e-07
1.15315e-06
1.74389e-07
1.14443e-06
2.55922e-07
1.14407e-06
4.38758e-08
1.13633e-06
1.60737e-07
1.13551e-06
1.72173e-08
1.12672e-06
1.00344e-07
-6.14953e-09
1.11973e-06
1.18661e-06
-2.62775e-06
1.31793e-06
6.77701e-07
1.23937e-06
2.00353e-06
1.15673e-06
-3.96666e-07
1.17432e-06
-2.96317e-06
1.19006e-06
-8.17094e-07
1.20784e-06
-5.65143e-07
1.2416e-06
6.44819e-08
1.20702e-06
-3.61848e-08
1.21655e-06
4.82997e-08
1.20628e-06
-1.88884e-08
1.20951e-06
2.71753e-07
1.19899e-06
2.69659e-07
1.20033e-06
1.73051e-07
1.19329e-06
2.62966e-07
1.19112e-06
4.60401e-08
1.18386e-06
1.68005e-07
1.18101e-06
2.00645e-08
1.17221e-06
1.09145e-07
2.44775e-09
1.16361e-06
1.2186e-06
-2.67465e-06
1.3534e-06
5.42907e-07
1.29773e-06
2.05919e-06
1.20891e-06
-3.07845e-07
1.19628e-06
-2.95054e-06
1.22793e-06
-8.48739e-07
1.25107e-06
-5.8828e-07
1.28077e-06
3.47795e-08
1.25612e-06
-1.15414e-08
1.25685e-06
4.7572e-08
1.25007e-06
-1.21046e-08
1.25499e-06
2.66828e-07
1.24648e-06
2.78173e-07
1.24837e-06
1.71159e-07
1.24154e-06
2.69794e-07
1.23781e-06
4.9771e-08
1.23004e-06
1.75781e-07
1.2255e-06
2.45993e-08
1.21635e-06
1.18302e-07
1.21842e-08
1.20661e-06
1.2516e-06
-2.71007e-06
1.38027e-06
4.14233e-07
1.34718e-06
2.09228e-06
1.25898e-06
-2.19648e-07
1.22434e-06
-2.91591e-06
1.26361e-06
-8.88011e-07
1.29204e-06
-6.16705e-07
1.3172e-06
9.61722e-09
1.30094e-06
4.72096e-09
1.29689e-06
5.16236e-08
1.29134e-06
-6.5618e-09
1.2999e-06
2.58267e-07
1.29233e-06
2.85752e-07
1.29481e-06
1.68678e-07
1.2877e-06
2.769e-07
1.28249e-06
5.49864e-08
1.27406e-06
1.84205e-07
1.26807e-06
3.05862e-08
1.25885e-06
1.27528e-07
2.26177e-08
1.24841e-06
1.28656e-06
-2.73427e-06
1.40115e-06
2.99636e-07
1.38799e-06
2.10544e-06
1.30734e-06
-1.38999e-07
1.25986e-06
-2.86842e-06
1.29991e-06
-9.28064e-07
1.3306e-06
-6.474e-07
1.35247e-06
-1.22465e-08
1.3416e-06
1.55894e-08
1.33586e-06
5.73656e-08
1.33001e-06
-7.14865e-10
1.34215e-06
2.46132e-07
1.33514e-06
2.92758e-07
1.33766e-06
1.66161e-07
1.33045e-06
2.84109e-07
1.32409e-06
6.13457e-08
1.31541e-06
1.92882e-07
1.30839e-06
3.76106e-08
1.29969e-06
1.36225e-07
3.31954e-08
1.28911e-06
1.32387e-06
-2.74786e-06
1.41903e-06
2.04472e-07
1.4222e-06
2.10228e-06
1.35479e-06
-7.15913e-08
1.3019e-06
-2.81553e-06
1.33818e-06
-9.64341e-07
1.36705e-06
-6.76272e-07
1.38697e-06
-3.2169e-08
1.37909e-06
2.34706e-08
1.37333e-06
6.31219e-08
1.36646e-06
6.16067e-09
1.3808e-06
2.31785e-07
1.37437e-06
2.99187e-07
1.3764e-06
1.64135e-07
1.36953e-06
2.90979e-07
1.36272e-06
6.81512e-08
1.35447e-06
2.01132e-07
1.34701e-06
4.50768e-08
1.3395e-06
1.43734e-07
4.33129e-08
1.32938e-06
1.36368e-06
-2.75152e-06
1.4371e-06
1.31043e-07
1.45308e-06
2.0863e-06
1.40228e-06
-2.07931e-08
1.3487e-06
-2.76194e-06
1.37888e-06
-9.94525e-07
1.40245e-06
-6.99834e-07
1.42104e-06
-5.07644e-08
1.41483e-06
2.96859e-08
1.40979e-06
6.81627e-08
1.4016e-06
1.4345e-08
1.41644e-06
2.16951e-07
1.41068e-06
3.04938e-07
1.41207e-06
1.62754e-07
1.40602e-06
2.9702e-07
1.39962e-06
7.45574e-08
1.39256e-06
2.08186e-07
1.38528e-06
5.23626e-08
1.37948e-06
1.4953e-07
5.24635e-08
1.37033e-06
1.40618e-06
-2.74605e-06
1.45851e-06
7.87185e-08
1.48437e-06
2.06044e-06
1.4508e-06
1.27717e-08
1.39877e-06
-2.70991e-06
1.42232e-06
-1.01808e-06
1.43851e-06
-7.16028e-07
1.45566e-06
-6.79084e-08
1.45049e-06
3.4859e-08
1.44648e-06
7.21689e-08
1.43691e-06
2.39129e-08
1.45078e-06
2.03079e-07
1.4458e-06
3.09921e-07
1.44677e-06
1.61788e-07
1.44199e-06
3.01797e-07
1.43667e-06
7.98793e-08
1.43148e-06
2.13371e-07
1.42483e-06
5.90124e-08
1.42104e-06
1.53328e-07
6.03583e-08
1.41314e-06
1.45175e-06
-2.73255e-06
1.48588e-06
4.45912e-08
1.51928e-06
2.02705e-06
1.50119e-06
3.08573e-08
1.45126e-06
-2.65998e-06
1.46879e-06
-1.03561e-06
1.47707e-06
-7.24309e-07
1.49237e-06
-8.32055e-08
1.48783e-06
3.94034e-08
1.48501e-06
7.49856e-08
1.47415e-06
3.47718e-08
1.48618e-06
1.91047e-07
1.48201e-06
3.14094e-07
1.48296e-06
1.60832e-07
1.47977e-06
3.0499e-07
1.47583e-06
8.3826e-08
1.47296e-06
2.16239e-07
1.46713e-06
6.48399e-08
1.46534e-06
1.55115e-07
6.69501e-08
1.45875e-06
1.50076e-06
-2.71244e-06
1.52087e-06
2.4482e-08
1.55987e-06
1.98805e-06
1.55403e-06
3.66912e-08
1.50582e-06
-2.61177e-06
1.51848e-06
-1.04827e-06
1.51949e-06
-7.25319e-07
1.53275e-06
-9.64608e-08
1.52841e-06
4.37447e-08
1.52681e-06
7.65816e-08
1.51493e-06
4.66511e-08
1.52484e-06
1.81144e-07
1.52147e-06
3.1746e-07
1.52274e-06
1.59556e-07
1.52132e-06
3.06412e-07
1.5186e-06
8.65489e-08
1.51818e-06
2.16655e-07
1.51311e-06
6.99095e-08
1.51312e-06
1.5511e-07
7.23767e-08
1.50769e-06
1.55345e-06
-2.68728e-06
1.56396e-06
1.39754e-08
1.60687e-06
1.94514e-06
1.60962e-06
3.39443e-08
1.56236e-06
-2.56451e-06
1.57136e-06
-1.05728e-06
1.56644e-06
-7.20401e-07
1.57789e-06
-1.07907e-07
1.57334e-06
4.82958e-08
1.57287e-06
7.70497e-08
1.56038e-06
5.91418e-08
1.5683e-06
1.73223e-07
1.56571e-06
3.20048e-07
1.56741e-06
1.5786e-07
1.56782e-06
3.06001e-07
1.56585e-06
8.85199e-08
1.56772e-06
2.1478e-07
1.5632e-06
7.44342e-08
1.56462e-06
1.53689e-07
7.68663e-08
1.56013e-06
1.60984e-06
-2.65858e-06
1.61462e-06
9.19785e-09
1.65998e-06
1.89978e-06
1.66799e-06
2.59334e-08
1.6209e-06
-2.51741e-06
1.62721e-06
-1.06359e-06
1.61794e-06
-7.11124e-07
1.62819e-06
-1.18164e-07
1.62315e-06
5.33354e-08
1.62362e-06
7.65807e-08
1.61098e-06
7.17854e-08
1.61727e-06
1.66928e-07
1.61546e-06
3.21861e-07
1.61742e-06
1.55898e-07
1.61963e-06
3.03792e-07
1.61783e-06
9.0324e-08
1.6216e-06
2.11005e-07
1.61738e-06
7.86548e-08
1.61978e-06
1.51286e-07
8.06547e-08
1.616e-06
1.66976e-06
-2.62759e-06
1.67176e-06
7.20172e-09
1.71835e-06
1.85319e-06
1.72907e-06
1.52087e-08
1.68151e-06
-2.46985e-06
1.68582e-06
-1.06791e-06
1.67365e-06
-6.9895e-07
1.68353e-06
-1.28045e-07
1.67795e-06
5.89133e-08
1.67912e-06
7.54148e-08
1.66674e-06
8.41638e-08
1.67177e-06
1.61904e-07
1.67079e-06
3.22833e-07
1.67269e-06
1.54002e-07
1.67658e-06
2.99897e-07
1.67443e-06
9.2474e-08
1.6796e-06
2.05835e-07
1.67549e-06
8.27675e-08
1.67846e-06
1.48322e-07
8.39409e-08
1.67517e-06
1.73297e-06
-2.59524e-06
1.73417e-06
6.00338e-09
1.78103e-06
1.80632e-06
1.79276e-06
3.48034e-09
1.74426e-06
-2.42135e-06
1.74707e-06
-1.07072e-06
1.73319e-06
-6.85066e-07
1.74349e-06
-1.38346e-07
1.73757e-06
6.48317e-08
1.73919e-06
7.37937e-08
1.72741e-06
9.59435e-08
1.73139e-06
1.57923e-07
1.73142e-06
3.22809e-07
1.73285e-06
1.52569e-07
1.73824e-06
2.94506e-07
1.73541e-06
9.53094e-08
1.74144e-06
1.99803e-07
1.73732e-06
8.68914e-08
1.74048e-06
1.45154e-07
8.6875e-08
1.73755e-06
1.79923e-06
-2.56214e-06
1.80081e-06
4.42398e-09
1.84726e-06
1.75987e-06
1.85901e-06
-8.2625e-09
1.80931e-06
-2.37165e-06
1.81098e-06
-1.07239e-06
1.79627e-06
-6.70353e-07
1.80761e-06
-1.49692e-07
1.80175e-06
7.06981e-08
1.80361e-06
7.19262e-08
1.7927e-06
1.06863e-07
1.79566e-06
1.54964e-07
1.79687e-06
3.21598e-07
1.79749e-06
1.51942e-07
1.80412e-06
2.87881e-07
1.80046e-06
9.89665e-08
1.80686e-06
1.93403e-07
1.80268e-06
9.10745e-08
1.80577e-06
1.42066e-07
8.95662e-08
1.80308e-06
1.86835e-06
-2.52858e-06
1.8709e-06
1.86895e-09
1.91652e-06
1.71425e-06
1.92783e-06
-1.95714e-08
1.8768e-06
-2.32062e-06
1.87767e-06
-1.07326e-06
1.86275e-06
-6.55431e-07
1.87552e-06
-1.62468e-07
1.8702e-06
7.60208e-08
1.87215e-06
6.99778e-08
1.86234e-06
1.16674e-07
1.8641e-06
1.53202e-07
1.86664e-06
3.1906e-07
1.86625e-06
1.52329e-07
1.87376e-06
2.80371e-07
1.86933e-06
1.034e-07
1.87567e-06
1.8706e-07
1.87143e-06
9.53157e-08
1.87423e-06
1.3926e-07
9.20934e-08
1.87171e-06
1.94018e-06
-2.49466e-06
1.94393e-06
-1.88186e-09
1.98852e-06
1.66966e-06
1.99931e-06
-3.03628e-08
1.94695e-06
-2.26826e-06
1.94732e-06
-1.07363e-06
1.9326e-06
-6.40711e-07
1.94692e-06
-1.7679e-07
1.94264e-06
8.03099e-08
1.94452e-06
6.8094e-08
1.93611e-06
1.2508e-07
1.93639e-06
1.52926e-07
1.94026e-06
3.15194e-07
1.93878e-06
1.53801e-07
1.94677e-06
2.72383e-07
1.94172e-06
1.08451e-07
1.94769e-06
1.81088e-07
1.94341e-06
9.95988e-08
1.94581e-06
1.36857e-07
9.451e-08
1.9434e-06
2.01466e-06
-2.46027e-06
2.01963e-06
-6.85044e-09
2.06318e-06
1.62611e-06
2.07358e-06
-4.07612e-08
2.01999e-06
-2.21467e-06
2.02012e-06
-1.07377e-06
2.00585e-06
-6.2644e-07
2.02158e-06
-1.92516e-07
2.01873e-06
8.31544e-08
2.02038e-06
6.6451e-08
2.01368e-06
1.31775e-07
2.01228e-06
1.54324e-07
2.01732e-06
3.10158e-07
2.01481e-06
1.56312e-07
2.02286e-06
2.6433e-07
2.01741e-06
1.13905e-07
2.02281e-06
1.75689e-07
2.01851e-06
1.039e-07
2.02044e-06
1.3492e-07
9.68445e-08
2.01811e-06
2.09181e-06
-2.42524e-06
2.09795e-06
-1.29952e-08
2.14055e-06
1.58351e-06
2.15075e-06
-5.09676e-08
2.09611e-06
-2.16003e-06
2.09623e-06
-1.07389e-06
2.08251e-06
-6.12727e-07
2.09927e-06
-2.09272e-07
2.09817e-06
8.42514e-08
2.09931e-06
6.53131e-08
2.09461e-06
1.36482e-07
2.09155e-06
1.57381e-07
2.0975e-06
3.04207e-07
2.09411e-06
1.59702e-07
2.10187e-06
2.56574e-07
2.09621e-06
1.19565e-07
2.10096e-06
1.7094e-07
2.09664e-06
1.08211e-07
2.09811e-06
1.33459e-07
9.91065e-08
2.09584e-06
2.17172e-06
-2.38937e-06
2.17902e-06
-2.029e-08
2.22079e-06
1.54174e-06
2.23099e-06
-6.11718e-08
2.17553e-06
-2.10456e-06
2.17573e-06
-1.07409e-06
2.16258e-06
-5.99573e-07
2.17981e-06
-2.26504e-07
2.18068e-06
8.33876e-08
2.18099e-06
6.5004e-08
2.17847e-06
1.38998e-07
2.17397e-06
1.61879e-07
2.18056e-06
2.97616e-07
2.17657e-06
1.63693e-07
2.18377e-06
2.49374e-07
2.17806e-06
1.2528e-07
2.18215e-06
1.66849e-07
2.17785e-06
1.12509e-07
2.17885e-06
1.32454e-07
1.01301e-07
2.17666e-06
2.25456e-06
-2.35254e-06
2.26301e-06
-2.87411e-08
2.30408e-06
1.50067e-06
2.31443e-06
-7.15221e-08
2.25839e-06
-2.04852e-06
2.25869e-06
-1.0744e-06
2.24603e-06
-5.8691e-07
2.26305e-06
-2.43525e-07
2.26601e-06
8.04265e-08
2.26524e-06
6.57752e-08
2.26495e-06
1.39287e-07
2.25942e-06
1.67415e-07
2.26638e-06
2.90647e-07
2.26217e-06
1.67907e-07
2.26867e-06
2.42874e-07
2.26301e-06
1.30944e-07
2.26647e-06
1.63385e-07
2.26215e-06
1.16833e-07
2.26282e-06
1.31781e-07
1.03454e-07
2.26067e-06
2.34049e-06
-2.31464e-06
2.35011e-06
-3.83637e-08
2.3906e-06
1.46017e-06
2.40122e-06
-8.2139e-08
2.34483e-06
-1.99213e-06
2.34512e-06
-1.07469e-06
2.33285e-06
-5.74641e-07
2.34891e-06
-2.59579e-07
2.35402e-06
7.53125e-08
2.35203e-06
6.77675e-08
2.35387e-06
1.37443e-07
2.34784e-06
1.73447e-07
2.35495e-06
2.83532e-07
2.35094e-06
1.71921e-07
2.35671e-06
2.37104e-07
2.35118e-06
1.36475e-07
2.35394e-06
1.60628e-07
2.34949e-06
1.2128e-07
2.35016e-06
1.31106e-07
1.05612e-07
2.34801e-06
2.42965e-06
-2.27561e-06
2.44043e-06
-4.91489e-08
2.48048e-06
1.42013e-06
2.49148e-06
-9.31435e-08
2.43497e-06
-1.93561e-06
2.43501e-06
-1.07473e-06
2.42306e-06
-5.62693e-07
2.43741e-06
-2.73925e-07
2.44464e-06
6.808e-08
2.44144e-06
7.097e-08
2.44521e-06
1.33673e-07
2.43929e-06
1.79366e-07
2.44636e-06
2.7646e-07
2.44293e-06
1.75355e-07
2.44804e-06
2.3199e-07
2.44278e-06
1.4174e-07
2.44406e-06
1.59342e-07
2.43971e-06
1.2563e-07
2.44106e-06
1.29764e-07
1.07828e-07
2.43884e-06
2.52218e-06
-2.23539e-06
2.53408e-06
-6.10501e-08
2.57384e-06
1.38037e-06
2.58536e-06
-1.04667e-07
2.52892e-06
-1.87917e-06
2.52837e-06
-1.07419e-06
2.51673e-06
-5.51054e-07
2.52872e-06
-2.85908e-07
2.53796e-06
5.88335e-08
2.53369e-06
7.52435e-08
2.53909e-06
1.28272e-07
2.53389e-06
1.84569e-07
2.54078e-06
2.69571e-07
2.53814e-06
1.77996e-07
2.54274e-06
2.2739e-07
2.53805e-06
1.46424e-07
2.54283e-06
1.54564e-07
2.54146e-06
1.27004e-07
2.53562e-06
1.35599e-07
1.10125e-07
2.53332e-06
2.61819e-06
-2.1939e-06
2.63113e-06
-7.39895e-08
2.6708e-06
1.3407e-06
2.68297e-06
-1.16834e-07
2.62677e-06
-1.82297e-06
2.62522e-06
-1.07264e-06
2.61395e-06
-5.3979e-07
2.62308e-06
-2.95031e-07
2.63418e-06
4.77316e-08
2.62906e-06
8.03676e-08
2.63572e-06
1.21609e-07
2.63177e-06
1.88522e-07
2.63837e-06
2.62971e-07
2.63664e-06
1.79721e-07
2.64135e-06
2.22681e-07
2.6349e-06
1.52877e-07
2.63501e-06
1.54446e-07
2.63163e-06
1.30391e-07
2.63367e-06
1.3355e-07
1.12235e-07
2.63156e-06
2.71782e-06
-2.15107e-06
2.73171e-06
-8.78728e-08
2.77151e-06
1.3009e-06
2.78441e-06
-1.29737e-07
2.72861e-06
-1.76717e-06
2.72559e-06
-1.06962e-06
2.71483e-06
-5.29024e-07
2.72084e-06
-3.01046e-07
2.73353e-06
3.50452e-08
2.7279e-06
8.5994e-08
2.73526e-06
1.14255e-07
2.73325e-06
1.90533e-07
2.73907e-06
2.57145e-07
2.73876e-06
1.80029e-07
2.74334e-06
2.18106e-07
2.73625e-06
1.59967e-07
2.73507e-06
1.55623e-07
2.73174e-06
1.33722e-07
2.73576e-06
1.29535e-07
1.1451e-07
2.73348e-06
2.82123e-06
-2.10684e-06
2.83595e-06
-1.026e-07
2.87608e-06
1.26078e-06
2.88975e-06
-1.43406e-07
2.83452e-06
-1.71194e-06
2.82958e-06
-1.06468e-06
2.81948e-06
-5.18927e-07
2.82239e-06
-3.03958e-07
2.8363e-06
2.11364e-08
2.83057e-06
9.17234e-08
2.83794e-06
1.06885e-07
2.83856e-06
1.89914e-07
2.84299e-06
2.52716e-07
2.8444e-06
1.78623e-07
2.85019e-06
2.12308e-07
2.85036e-06
1.59802e-07
2.85385e-06
1.52135e-07
2.85313e-06
1.34439e-07
2.84206e-06
1.40607e-07
1.17438e-07
2.83913e-06
2.92856e-06
-2.06116e-06
2.94404e-06
-1.18077e-07
2.98466e-06
1.22016e-06
2.99903e-06
-1.57783e-07
2.94457e-06
-1.65747e-06
2.9373e-06
-1.05741e-06
2.92807e-06
-5.09698e-07
2.92805e-06
-3.0394e-07
2.94282e-06
6.36468e-09
2.93732e-06
9.72226e-08
2.94416e-06
1.00041e-07
2.94762e-06
1.86456e-07
2.95079e-06
2.49553e-07
2.95364e-06
1.75764e-07
2.95469e-06
2.1126e-07
2.95006e-06
1.64431e-07
2.94621e-06
1.55988e-07
2.94318e-06
1.37467e-07
2.95133e-06
1.32464e-07
1.20042e-07
2.94872e-06
3.04001e-06
-2.01401e-06
3.05616e-06
-1.34223e-07
3.09736e-06
1.17895e-06
3.11231e-06
-1.72728e-07
3.05883e-06
-1.604e-06
3.04894e-06
-1.04752e-06
3.04071e-06
-5.01468e-07
3.03812e-06
-3.01354e-07
3.05335e-06
-8.86843e-09
3.04838e-06
1.02194e-07
3.05438e-06
9.40392e-08
3.06007e-06
1.80768e-07
3.0632e-06
2.46424e-07
3.06649e-06
1.72479e-07
3.07392e-06
2.03828e-07
3.07753e-06
1.60817e-07
3.07984e-06
1.53683e-07
3.07928e-06
1.38027e-07
3.06512e-06
1.46621e-07
1.22937e-07
3.06223e-06
3.15575e-06
-1.9654e-06
3.17249e-06
-1.50969e-07
3.21435e-06
1.1371e-06
3.22961e-06
-1.87991e-07
3.17743e-06
-1.55182e-06
3.16471e-06
-1.03479e-06
3.15765e-06
-4.94404e-07
3.15274e-06
-2.96451e-07
3.16828e-06
-2.44003e-08
3.16381e-06
1.06656e-07
3.16931e-06
8.85391e-08
3.17535e-06
1.74728e-07
3.18161e-06
2.40164e-07
3.18286e-06
1.71231e-07
3.19035e-06
1.96341e-07
3.1789e-06
1.72267e-07
3.17432e-06
1.5826e-07
3.1736e-06
1.38748e-07
3.18115e-06
1.3907e-07
1.23971e-07
3.18012e-06
3.27597e-06
-1.91536e-06
3.29327e-06
-1.68266e-07
3.33574e-06
1.09463e-06
3.35103e-06
-2.03281e-07
3.30045e-06
-1.50124e-06
3.28492e-06
-1.01926e-06
3.27892e-06
-4.88403e-07
3.27236e-06
-2.89893e-07
3.28751e-06
-3.95531e-08
3.28442e-06
1.09752e-07
3.28832e-06
8.4633e-08
3.29605e-06
1.67004e-07
3.30216e-06
2.34045e-07
3.2969e-06
1.76494e-07
3.30009e-06
1.93151e-07
3.29769e-06
1.74665e-07
3.29443e-06
1.61526e-07
3.29292e-06
1.40252e-07
3.30247e-06
1.29522e-07
1.24641e-07
3.3018e-06
3.40088e-06
-1.86396e-06
3.41868e-06
-1.8607e-07
3.46172e-06
1.05159e-06
3.47674e-06
-2.18295e-07
3.42792e-06
-1.45242e-06
3.40989e-06
-1.00122e-06
3.4045e-06
-4.83018e-07
3.39739e-06
-2.8278e-07
3.41105e-06
-5.321e-08
3.41078e-06
1.10014e-07
3.41112e-06
8.42982e-08
3.42194e-06
1.56186e-07
3.42384e-06
2.3214e-07
3.43366e-06
1.66679e-07
3.4414e-06
1.85404e-07
3.44711e-06
1.68957e-07
3.45007e-06
1.58573e-07
3.44782e-06
1.42494e-07
3.42978e-06
1.47565e-07
1.26947e-07
3.42747e-06
3.53068e-06
-1.81129e-06
3.54895e-06
-2.04337e-07
3.5925e-06
1.00804e-06
3.60682e-06
-2.32616e-07
3.56015e-06
-1.40575e-06
3.53956e-06
-9.80638e-07
3.53515e-06
-4.78606e-07
3.52701e-06
-2.74641e-07
3.54032e-06
-6.65201e-08
3.54044e-06
1.09894e-07
3.54198e-06
8.27636e-08
3.54977e-06
1.4839e-07
3.55679e-06
2.25129e-07
3.55128e-06
1.72184e-07
3.55347e-06
1.83218e-07
3.55022e-06
1.72202e-07
3.54769e-06
1.61106e-07
3.54778e-06
1.42403e-07
3.55792e-06
1.3742e-07
1.2617e-07
3.5587e-06
3.66557e-06
-1.75748e-06
3.68427e-06
-2.2304e-07
3.72825e-06
9.64063e-07
3.74158e-06
-2.45948e-07
3.69712e-06
-1.36129e-06
3.67441e-06
-9.5793e-07
3.67052e-06
-4.74714e-07
3.66231e-06
-2.66438e-07
3.67424e-06
-7.84495e-08
3.67629e-06
1.07844e-07
3.67678e-06
8.22824e-08
3.68452e-06
1.40642e-07
3.69435e-06
2.15302e-07
3.68543e-06
1.81099e-07
3.68688e-06
1.81773e-07
3.68425e-06
1.74831e-07
3.68145e-06
1.63905e-07
3.68089e-06
1.42959e-07
3.69301e-06
1.25303e-07
1.25039e-07
3.69414e-06
3.80575e-06
-1.70264e-06
3.82485e-06
-2.42136e-07
3.86917e-06
9.19744e-07
3.8813e-06
-2.58076e-07
3.83886e-06
-1.31885e-06
3.81492e-06
-9.3399e-07
3.81025e-06
-4.70049e-07
3.80405e-06
-2.60237e-07
3.81237e-06
-8.67668e-08
3.81928e-06
1.0093e-07
3.81249e-06
8.90774e-08
3.82545e-06
1.27679e-07
3.82639e-06
2.14365e-07
3.84267e-06
1.64812e-07
3.85094e-06
1.7351e-07
3.85847e-06
1.67293e-07
3.8626e-06
1.59778e-07
3.85828e-06
1.47281e-07
3.83603e-06
1.47555e-07
1.27187e-07
3.83388e-06
3.95145e-06
-1.64694e-06
3.97085e-06
-2.61534e-07
4.01555e-06
8.75044e-07
4.02607e-06
-2.68595e-07
3.98597e-06
-1.27875e-06
3.96044e-06
-9.08466e-07
3.95651e-06
-4.6611e-07
3.94901e-06
-2.52744e-07
3.95913e-06
-9.68846e-08
3.96245e-06
9.7614e-08
3.96432e-06
8.7207e-08
3.97404e-06
1.17959e-07
3.98433e-06
2.04075e-07
3.96957e-06
1.79565e-07
3.96922e-06
1.73865e-07
3.96743e-06
1.69083e-07
3.96549e-06
1.61721e-07
3.96661e-06
1.46163e-07
3.97831e-06
1.35849e-07
1.25001e-07
3.9805e-06
4.10285e-06
-1.59051e-06
4.12249e-06
-2.81175e-07
4.16752e-06
8.30011e-07
4.17636e-06
-2.77437e-07
4.13825e-06
-1.24064e-06
4.11197e-06
-8.82186e-07
4.10767e-06
-4.61806e-07
4.10042e-06
-2.45497e-07
4.11063e-06
-1.07092e-07
4.11287e-06
9.53696e-08
4.11652e-06
8.35565e-08
4.11227e-06
1.22215e-07
4.12009e-06
1.96255e-07
4.1177e-06
1.81956e-07
4.1193e-06
1.7226e-07
4.11756e-06
1.70826e-07
4.11554e-06
1.63742e-07
4.11621e-06
1.45488e-07
4.12971e-06
1.22351e-07
1.22963e-07
4.13175e-06
4.26015e-06
-1.53348e-06
4.27996e-06
-3.00976e-07
4.32527e-06
7.84702e-07
4.33256e-06
-2.8473e-07
4.29572e-06
-1.2038e-06
4.27025e-06
-8.56713e-07
4.26301e-06
-4.54564e-07
4.25966e-06
-2.42154e-07
4.26482e-06
-1.12247e-07
4.27319e-06
8.6996e-08
4.26593e-06
9.08232e-08
4.28644e-06
1.01704e-07
4.29723e-06
1.85463e-07
4.30423e-06
1.74956e-07
4.30916e-06
1.67325e-07
4.31864e-06
1.61347e-07
4.32404e-06
1.58343e-07
4.31787e-06
1.51662e-07
4.2913e-06
1.48922e-07
1.26937e-07
4.28732e-06
4.42362e-06
-1.47601e-06
4.44339e-06
-3.2075e-07
4.48918e-06
7.38914e-07
4.49452e-06
-2.90071e-07
4.45952e-06
-1.1688e-06
4.43346e-06
-8.30654e-07
4.42707e-06
-4.48168e-07
4.42102e-06
-2.3611e-07
4.43e-06
-1.21223e-07
4.43179e-06
8.52075e-08
4.43385e-06
8.87558e-08
4.43044e-06
1.05116e-07
4.43984e-06
1.76062e-07
4.43665e-06
1.78154e-07
4.43748e-06
1.66486e-07
4.43403e-06
1.64806e-07
4.43385e-06
1.5852e-07
4.4366e-06
1.48909e-07
4.44971e-06
1.35813e-07
1.25134e-07
4.45151e-06
4.59341e-06
-1.41821e-06
4.61311e-06
-3.40451e-07
4.65923e-06
6.92792e-07
4.66299e-06
-2.9383e-07
4.62897e-06
-1.13477e-06
4.60377e-06
-8.05463e-07
4.59591e-06
-4.40306e-07
4.59043e-06
-2.30626e-07
4.59892e-06
-1.29709e-07
4.59975e-06
8.43745e-08
4.59843e-06
9.00727e-08
4.5979e-06
1.05649e-07
4.60869e-06
1.65273e-07
4.60659e-06
1.80249e-07
4.60704e-06
1.66039e-07
4.60082e-06
1.71026e-07
4.60225e-06
1.57093e-07
4.60502e-06
1.46137e-07
4.61932e-06
1.21507e-07
1.23965e-07
4.62049e-06
4.76978e-06
-1.36021e-06
4.7893e-06
-3.59968e-07
4.8356e-06
6.4649e-07
4.8383e-06
-2.96532e-07
4.80394e-06
-1.10041e-06
4.78202e-06
-7.8355e-07
4.76904e-06
-4.2732e-07
4.76941e-06
-2.30993e-07
4.76859e-06
-1.28898e-07
4.7832e-06
6.97737e-08
4.76976e-06
1.0351e-07
4.77511e-06
1.00293e-07
4.77967e-06
1.60721e-07
4.79091e-06
1.69008e-07
4.80235e-06
1.54598e-07
4.83092e-06
1.42454e-07
4.84e-06
1.48009e-07
4.83275e-06
1.53392e-07
4.80189e-06
1.52368e-07
1.31951e-07
4.7939e-06
4.95303e-06
-1.30217e-06
4.9721e-06
-3.79031e-07
5.01882e-06
5.99767e-07
5.01996e-06
-2.97672e-07
4.98674e-06
-1.06718e-06
4.96423e-06
-7.61044e-07
4.95371e-06
-4.16802e-07
4.94919e-06
-2.26471e-07
4.95255e-06
-1.32256e-07
4.95934e-06
6.29798e-08
4.95344e-06
1.09409e-07
4.9545e-06
9.92359e-08
4.96262e-06
1.52596e-07
4.96613e-06
1.65507e-07
4.96282e-06
1.57901e-07
4.95948e-06
1.458e-07
4.95836e-06
1.49124e-07
4.96176e-06
1.49994e-07
4.97771e-06
1.36417e-07
1.31815e-07
4.97785e-06
5.14332e-06
-1.24418e-06
5.16198e-06
-3.97684e-07
5.20868e-06
5.5306e-07
5.20917e-06
-2.98164e-07
5.17562e-06
-1.03363e-06
5.15404e-06
-7.39463e-07
5.14471e-06
-4.07471e-07
5.13623e-06
-2.17988e-07
5.14329e-06
-1.39315e-07
5.14567e-06
6.05983e-08
5.1447e-06
1.10376e-07
5.14134e-06
1.02597e-07
5.15165e-06
1.42285e-07
5.15235e-06
1.64808e-07
5.15267e-06
1.57578e-07
5.14885e-06
1.49621e-07
5.15399e-06
1.43987e-07
5.16036e-06
1.43622e-07
5.16466e-06
1.32124e-07
1.28575e-07
5.16789e-06
5.34096e-06
-1.18637e-06
5.35905e-06
-4.15771e-07
5.40557e-06
5.06538e-07
5.40603e-06
-2.98622e-07
5.37104e-06
-9.98647e-07
5.35194e-06
-7.20357e-07
5.34093e-06
-3.96463e-07
5.33331e-06
-2.1037e-07
5.33596e-06
-1.41969e-07
5.34264e-06
5.39234e-08
5.34013e-06
1.12881e-07
5.33755e-06
1.05186e-07
5.34544e-06
1.34393e-07
5.34837e-06
1.6188e-07
5.34893e-06
1.57018e-07
5.34773e-06
1.50816e-07
5.35366e-06
1.38055e-07
5.35762e-06
1.3967e-07
5.36051e-06
1.2923e-07
1.2469e-07
5.36439e-06
5.54625e-06
-1.12888e-06
5.56359e-06
-4.33112e-07
5.60989e-06
4.60243e-07
5.61031e-06
-2.99051e-07
5.57459e-06
-9.62923e-07
5.55638e-06
-7.02147e-07
5.54524e-06
-3.85318e-07
5.53735e-06
-2.02486e-07
5.5373e-06
-1.41916e-07
5.54618e-06
4.50388e-08
5.54373e-06
1.15335e-07
5.54125e-06
1.0767e-07
5.54719e-06
1.28452e-07
5.55189e-06
1.57171e-07
5.55323e-06
1.55684e-07
5.55379e-06
1.50252e-07
5.55707e-06
1.34774e-07
5.55984e-06
1.36899e-07
5.56419e-06
1.24889e-07
1.20664e-07
5.56821e-06
5.75943e-06
-1.07183e-06
5.77603e-06
-4.49707e-07
5.8217e-06
4.14574e-07
5.82276e-06
-3.00111e-07
5.78588e-06
-9.2605e-07
5.76856e-06
-6.84824e-07
5.75694e-06
-3.73695e-07
5.74935e-06
-1.94902e-07
5.74669e-06
-1.39252e-07
5.75682e-06
3.49034e-08
5.75533e-06
1.16829e-07
5.75279e-06
1.10209e-07
5.75735e-06
1.23897e-07
5.76296e-06
1.51562e-07
5.76546e-06
1.53177e-07
5.76662e-06
1.49092e-07
5.76903e-06
1.32366e-07
5.77402e-06
1.3191e-07
5.77587e-06
1.23035e-07
1.167e-07
5.77984e-06
5.98083e-06
-1.01536e-06
5.99654e-06
-4.65423e-07
6.04148e-06
3.69639e-07
6.04309e-06
-3.01727e-07
6.00571e-06
-8.88664e-07
5.98826e-06
-6.67375e-07
5.97678e-06
-3.62211e-07
5.96927e-06
-1.87401e-07
5.9647e-06
-1.34682e-07
5.97514e-06
2.44706e-08
5.9752e-06
1.16762e-07
5.97251e-06
1.12903e-07
5.97605e-06
1.20354e-07
5.98191e-06
1.45707e-07
5.98567e-06
1.49422e-07
5.98687e-06
1.4789e-07
5.98761e-06
1.31621e-07
5.98917e-06
1.30355e-07
5.99549e-06
1.16714e-07
1.12585e-07
5.9996e-06
6.21075e-06
-9.59603e-07
6.2255e-06
-4.8018e-07
6.26954e-06
3.25602e-07
6.27153e-06
-3.03714e-07
6.23422e-06
-8.51358e-07
6.21635e-06
-6.49507e-07
6.20506e-06
-3.50913e-07
6.19754e-06
-1.79887e-07
6.1917e-06
-1.28837e-07
6.20156e-06
1.46103e-08
6.20352e-06
1.14801e-07
6.20072e-06
1.15704e-07
6.2035e-06
1.17567e-07
6.2092e-06
1.40008e-07
6.21374e-06
1.44882e-07
6.21551e-06
1.4612e-07
6.21744e-06
1.29697e-07
6.22373e-06
1.24062e-07
6.2236e-06
1.16844e-07
1.08501e-07
6.22768e-06
6.44951e-06
-9.04708e-07
6.46316e-06
-4.9383e-07
6.50625e-06
2.82512e-07
6.50836e-06
-3.0582e-07
6.47187e-06
-8.14877e-07
6.4531e-06
-6.30728e-07
6.44216e-06
-3.39981e-07
6.43449e-06
-1.72214e-07
6.42782e-06
-1.22168e-07
6.43652e-06
5.91061e-09
6.44048e-06
1.10844e-07
6.43777e-06
1.18409e-07
6.43991e-06
1.1543e-07
6.44523e-06
1.34691e-07
6.4502e-06
1.39905e-07
6.45281e-06
1.43514e-07
6.45319e-06
1.29322e-07
6.45374e-06
1.2351e-07
6.46016e-06
1.10417e-07
1.04227e-07
6.46444e-06
6.69743e-06
-8.50802e-07
6.70988e-06
-5.06278e-07
6.75198e-06
2.40415e-07
6.75395e-06
-3.07788e-07
6.7188e-06
-7.79729e-07
6.69902e-06
-6.1095e-07
6.68829e-06
-3.29252e-07
6.68059e-06
-1.64517e-07
6.67336e-06
-1.14933e-07
6.68055e-06
-1.2773e-09
6.68633e-06
1.05057e-07
6.684e-06
1.20741e-07
6.68548e-06
1.13952e-07
6.69042e-06
1.29751e-07
6.69537e-06
1.34951e-07
6.69894e-06
1.39943e-07
6.70055e-06
1.27715e-07
6.7059e-06
1.18159e-07
6.70601e-06
1.10308e-07
1.00185e-07
6.71005e-06
6.95488e-06
-7.98032e-07
6.96592e-06
-5.17322e-07
7.00708e-06
1.9926e-07
7.00869e-06
-3.09397e-07
6.97533e-06
-7.46374e-07
6.95467e-06
-5.90287e-07
6.94381e-06
-3.18395e-07
6.93617e-06
-1.56873e-07
6.92855e-06
-1.07311e-07
6.93406e-06
-6.78346e-09
6.94126e-06
9.78538e-08
6.93982e-06
1.22181e-07
6.94053e-06
1.13243e-07
6.94518e-06
1.25097e-07
6.94983e-06
1.30302e-07
6.95428e-06
1.35498e-07
6.95537e-06
1.26624e-07
6.95605e-06
1.17475e-07
6.96117e-06
1.05189e-07
9.64399e-08
6.96492e-06
7.22219e-06
-7.46531e-07
7.23166e-06
-5.26789e-07
7.27201e-06
1.5891e-07
7.273e-06
-3.10392e-07
7.24234e-06
-7.15718e-07
7.22027e-06
-5.68215e-07
7.2091e-06
-3.07219e-07
7.20153e-06
-1.49305e-07
7.19369e-06
-9.9473e-08
7.19754e-06
-1.06298e-08
7.20564e-06
8.97467e-08
7.20551e-06
1.22309e-07
7.20549e-06
1.13267e-07
7.20981e-06
1.20774e-07
7.21411e-06
1.26009e-07
7.21915e-06
1.30455e-07
7.22163e-06
1.24139e-07
7.22642e-06
1.12692e-07
7.22624e-06
1.05363e-07
9.32245e-08
7.22946e-06
7.49974e-06
-6.96437e-07
7.50745e-06
-5.34501e-07
7.54699e-06
1.19373e-07
7.54739e-06
-3.10795e-07
7.51878e-06
-6.8711e-07
7.4956e-06
-5.4503e-07
7.48472e-06
-2.9634e-07
7.47703e-06
-1.41623e-07
7.4691e-06
-9.15382e-08
7.47144e-06
-1.29659e-08
7.47988e-06
8.12982e-08
7.48136e-06
1.20829e-07
7.48074e-06
1.13896e-07
7.48457e-06
1.1694e-07
7.48858e-06
1.21993e-07
7.49393e-06
1.25106e-07
7.49607e-06
1.22006e-07
7.49691e-06
1.11846e-07
7.50133e-06
1.00942e-07
9.04382e-08
7.50412e-06
7.78785e-06
-6.47836e-07
7.79405e-06
-5.40694e-07
7.83204e-06
8.13808e-08
7.83286e-06
-3.11617e-07
7.80247e-06
-6.5672e-07
7.7804e-06
-5.22956e-07
7.77131e-06
-2.8725e-07
7.763e-06
-1.33314e-07
7.75506e-06
-8.36016e-08
7.75619e-06
-1.40968e-08
7.76441e-06
7.30831e-08
7.76758e-06
1.17656e-07
7.76666e-06
1.14819e-07
7.76994e-06
1.13658e-07
7.77376e-06
1.18176e-07
7.77912e-06
1.19747e-07
7.78244e-06
1.1868e-07
7.78695e-06
1.07336e-07
7.78702e-06
1.00869e-07
8.81869e-08
7.78927e-06
8.08698e-06
-6.00853e-07
8.09156e-06
-5.45277e-07
8.12764e-06
4.5298e-08
8.12943e-06
-3.13404e-07
8.10497e-06
-6.32259e-07
8.09104e-06
-5.0903e-07
8.07142e-06
-2.67622e-07
8.05963e-06
-1.21526e-07
8.05199e-06
-7.59668e-08
8.05221e-06
-1.43143e-08
8.05965e-06
6.5648e-08
8.0644e-06
1.12902e-07
8.06364e-06
1.15581e-07
8.06631e-06
1.10983e-07
8.06993e-06
1.14557e-07
8.07498e-06
1.14696e-07
8.07822e-06
1.15446e-07
8.07964e-06
1.05914e-07
8.08347e-06
9.70411e-08
8.63578e-08
8.0853e-06
8.39755e-06
-5.55643e-07
8.39955e-06
-5.47273e-07
8.43579e-06
9.059e-09
8.4358e-06
-3.13417e-07
8.41087e-06
-6.07333e-07
8.38639e-06
-4.84544e-07
8.37573e-06
-2.56963e-07
8.36795e-06
-1.13753e-07
8.36043e-06
-6.84432e-08
8.35992e-06
-1.38036e-08
8.3663e-06
5.92695e-08
8.37231e-06
1.06889e-07
8.37221e-06
1.1568e-07
8.37422e-06
1.08979e-07
8.37751e-06
1.11263e-07
8.3822e-06
1.10004e-07
8.38626e-06
1.1139e-07
8.38971e-06
1.02458e-07
8.39133e-06
9.54268e-08
8.48872e-08
8.3928e-06
8.71991e-06
-5.12271e-07
8.71981e-06
-5.4717e-07
8.75454e-06
-2.56693e-08
8.75158e-06
-3.10456e-07
8.724e-06
-5.79755e-07