/*--------------------------------*- C++ -*----------------------------------*\
| =========                 |                                                 |
| \\      /  F ield         | OpenFOAM: The Open Source CFD Toolbox           |
|  \\    /   O peration     | Version:  v2012                                 |
|   \\  /    A nd           | Website:  www.openfoam.com                      |
|    \\/     M anipulation  |                                                 |
\*---------------------------------------------------------------------------*/
FoamFile
{
    version     2.0;
    format      ascii;
    class       volScalarField;
    location    "5.3";
    object      p;
}
// * * * * * * * * * * * * * * * * * * * * * * * * * * * * * * * * * * * * * //

dimensions      [0 2 -2 0 0 0 0];


internalField   nonuniform List<scalar> 
7000
(
8.54817e-10
-0.00177916
-0.00371277
0.00387371
0.00409703
0.00665523
0.00881156
0.0114015
0.0126523
0.0134784
0.0122382
0.0137969
0.0113676
0.0135265
0.0121504
0.0144253
0.0144656
0.0164102
0.017446
0.0199309
2.181e-06
-0.00179325
-0.00370169
0.00388604
0.00408791
0.0066561
0.00880801
0.011395
0.0126723
0.0134626
0.0122532
0.0137822
0.0113847
0.0135202
0.0121603
0.0144059
0.014471
0.0163936
0.0174488
0.0198183
4.00907e-06
-0.00180039
-0.00368712
0.00389098
0.00407791
0.00665718
0.00879949
0.0113899
0.0126751
0.0134469
0.012266
0.0137603
0.0114146
0.0134986
0.0121893
0.0143652
0.0144924
0.0163565
0.0174511
0.0196443
6.11687e-06
-0.00178891
-0.00366714
0.00388924
0.00407445
0.0066543
0.00878915
0.0113893
0.0126719
0.0134322
0.0122749
0.0137332
0.0114549
0.0134636
0.0122333
0.014313
0.0145201
0.0163083
0.0174448
0.0194531
9.5332e-06
-0.00175975
-0.00364155
0.0038812
0.00408028
0.00664618
0.00877787
0.0113914
0.0126666
0.0134177
0.0122823
0.0137016
0.0115049
0.0134187
0.0122877
0.0142529
0.0145483
0.0162542
0.0174269
0.0192673
1.42641e-05
-0.00171553
-0.00360915
0.00386883
0.00409654
0.00663411
0.00876578
0.0113944
0.012661
0.0134026
0.0122894
0.0136661
0.0115624
0.0133684
0.0123503
0.0141885
0.0145756
0.016197
0.0173965
0.0190938
1.99722e-05
-0.00165821
-0.00356959
0.00385434
0.00412278
0.00662022
0.00875335
0.0113978
0.0126565
0.0133862
0.0122973
0.0136268
0.0116258
0.0133163
0.0124197
0.014124
0.0146028
0.0161377
0.0173548
0.0189305
2.63439e-05
-0.00158975
-0.00352261
0.00383948
0.00415739
0.00660653
0.00874088
0.0114011
0.0126536
0.0133678
0.0123065
0.0135835
0.0116942
0.0132645
0.0124951
0.014062
0.0146294
0.0160776
0.0173031
0.0187738
3.31411e-05
-0.00151187
-0.00346815
0.00382515
0.00419829
0.00659441
0.00872828
0.0114038
0.0126518
0.0133466
0.0123174
0.0135359
0.0117671
0.0132136
0.0125754
0.0140033
0.0146543
0.0160185
0.0172421
0.0186215
4.02449e-05
-0.00142604
-0.00340632
0.00381158
0.00424373
0.00658456
0.00871539
0.0114056
0.0126505
0.0133217
0.0123303
0.0134839
0.0118441
0.0131637
0.0126594
0.0139487
0.0146759
0.0159622
0.0171724
0.0184727
4.76664e-05
-0.00133353
-0.00333756
0.00379871
0.00429266
0.00657725
0.00870218
0.0114058
0.0126486
0.0132923
0.0123451
0.0134276
0.0119245
0.0131151
0.0127461
0.013899
0.0146929
0.0159092
0.0170948
0.0183269
5.55359e-05
-0.00123548
-0.00326266
0.00378641
0.00434487
0.00657271
0.00868878
0.011404
0.0126453
0.0132574
0.012362
0.0133671
0.012008
0.0130681
0.0128335
0.0138557
0.0147039
0.01586
0.0170105
0.0181831
6.40563e-05
-0.001133
-0.00318259
0.00377464
0.00440065
0.00657135
0.0086755
0.0113995
0.0126401
0.0132164
0.0123811
0.0133024
0.0120936
0.0130234
0.0129194
0.0138203
0.0147083
0.0158145
0.016921
0.0180411
7.34318e-05
-0.00102714
-0.00309822
0.00376339
0.00446043
0.00657362
0.00866272
0.0113922
0.0126331
0.0131688
0.0124024
0.0132339
0.0121804
0.0129827
0.0130015
0.0137942
0.014706
0.0157726
0.0168286
0.0179013
8.38317e-05
-0.000918711
-0.00301015
0.00375261
0.00452442
0.00657982
0.00865083
0.0113818
0.0126245
0.0131149
0.012426
0.013162
0.0122672
0.0129471
0.0130774
0.0137781
0.0146967
0.0157338
0.0167355
0.0177643
9.53918e-05
-0.000808349
-0.00291866
0.00374228
0.00459247
0.00658982
0.00864011
0.0113684
0.012615
0.0130548
0.012452
0.0130875
0.0123525
0.0129182
0.0131452
0.0137722
0.0146809
0.0156971
0.0166437
0.0176308
0.000108227
-0.000696491
-0.00282381
0.00373233
0.00466408
0.00660314
0.00863069
0.0113521
0.0126054
0.0129893
0.0124798
0.0130117
0.0124347
0.0128972
0.0132035
0.0137754
0.0146592
0.0156609
0.0165542
0.017501
0.000122443
-0.000583448
-0.00272551
0.0037227
0.00473859
0.00661906
0.00862258
0.0113328
0.0125963
0.0129189
0.0125093
0.0129358
0.0125119
0.0128853
0.0132514
0.0137863
0.0146325
0.0156232
0.0164673
0.0173748
0.000138138
-0.000469452
-0.00262366
0.00371335
0.0048153
0.0066368
0.00861575
0.0113107
0.0125883
0.0128444
0.0125394
0.0128617
0.0125825
0.0128829
0.0132885
0.0138027
0.0146021
0.0155821
0.0163822
0.0172516
0.000155426
-0.000354663
-0.00251814
0.00370426
0.00489364
0.00665567
0.00861021
0.0112858
0.0125818
0.0127665
0.0125692
0.0127913
0.0126449
0.0128904
0.0133148
0.0138216
0.014569
0.0155363
0.0162986
0.0171313
0.00017443
-0.000239216
-0.00240881
0.00369541
0.00497315
0.00667508
0.00860598
0.0112583
0.0125767
0.0126861
0.0125974
0.0127265
0.0126978
0.0129074
0.0133314
0.0138404
0.0145341
0.0154842
0.0162153
0.0170142
0.000195271
-0.000123223
-0.00229552
0.00368684
0.0050535
0.00669459
0.00860308
0.0112282
0.0125733
0.0126043
0.0126222
0.0126691
0.0127403
0.0129327
0.0133392
0.0138567
0.0144995
0.0154256
0.0161301
0.0168999
0.000218071
-6.76649e-06
-0.00217808
0.00367861
0.00513448
0.0067139
0.00860159
0.0111958
0.0125713
0.0125226
0.0126418
0.0126201
0.0127724
0.012965
0.0133393
0.0138672
0.0144658
0.015363
0.0160434
0.016787
0.000242953
0.000110071
-0.00205628
0.00367081
0.00521602
0.00673283
0.00860168
0.0111615
0.01257
0.0124424
0.012655
0.0125798
0.012794
0.0130031
0.0133342
0.0138694
0.0144305
0.015296
0.0159574
0.0166771
0.000270047
0.000227193
-0.00192998
0.00366358
0.00529813
0.00675137
0.0086034
0.0111257
0.0125687
0.0123649
0.012661
0.0125492
0.0128051
0.0130446
0.013326
0.0138634
0.0143936
0.0152227
0.01587
0.0165722
0.000299492
0.000344489
-0.00179903
0.00365709
0.00538088
0.00676965
0.00860675
0.0110889
0.0125668
0.0122916
0.0126582
0.0125288
0.0128069
0.0130866
0.0133158
0.0138488
0.0143573
0.0151456
0.0157798
0.0164705
0.000331422
0.000461821
-0.00166325
0.00365148
0.00546435
0.00678796
0.0086115
0.0110519
0.0125629
0.012224
0.0126461
0.0125167
0.0128013
0.0131273
0.0133053
0.0138231
0.0143203
0.015069
0.0156883
0.0163703
0.000366
0.000579005
-0.00152252
0.00364697
0.00554846
0.00680667
0.0086173
0.0110156
0.0125568
0.0121612
0.0126256
0.0125121
0.0127891
0.0131637
0.0132969
0.013786
0.014278
0.0149946
0.0155983
0.0162706
0.000403391
0.00069589
-0.00137682
0.00364384
0.00563324
0.00682587
0.00862414
0.0109803
0.0125482
0.0121048
0.0125953
0.0125152
0.0127727
0.0131934
0.0132893
0.0137442
0.014233
0.0149241
0.0155067
0.0161725
0.000443728
0.000812315
-0.00122595
0.00364221
0.00571854
0.00684631
0.00863077
0.0109477
0.0125346
0.0120558
0.0125568
0.0125216
0.0127538
0.0132165
0.0132814
0.0136922
0.0141768
0.0148571
0.0154309
0.0160773
0.000487251
0.000928078
-0.00106995
0.00364246
0.00580396
0.00686855
0.00863657
0.0109174
0.0125177
0.012012
0.0125111
0.0125318
0.0127325
0.0132314
0.0132742
0.0136156
0.0141085
0.0147899
0.0153713
0.0159849
0.000534061
0.00104311
-0.000908948
0.00364509
0.00588905
0.00689296
0.0086414
0.0108893
0.0124981
0.0119731
0.0124594
0.0125428
0.0127121
0.0132363
0.0132698
0.0135679
0.0140348
0.0147167
0.01529
0.0158998
0.000584273
0.00115725
-0.000742582
0.00365004
0.00597362
0.00692015
0.00864394
0.0108654
0.012473
0.0119375
0.0124084
0.0125474
0.0126958
0.013231
0.013265
0.0134842
0.0139492
0.0146354
0.0152229
0.0158273
0.000638392
0.00127022
-0.000571285
0.00365784
0.00605722
0.00694962
0.00864496
0.0108431
0.0124487
0.0119024
0.0123552
0.0125509
0.0126803
0.0132208
0.0132601
0.0134581
0.0138572
0.0145441
0.0151102
0.0157698
0.000696235
0.00138213
-0.000395514
0.00366958
0.00613832
0.00698404
0.00864301
0.0108238
0.0124202
0.0118709
0.0122975
0.012558
0.0126599
0.0132013
0.0132473
0.0133612
0.0137521
0.0144513
0.0150519
0.0157217
0.0007579
0.00149297
-0.000214901
0.00368509
0.0062171
0.00702364
0.0086377
0.0108081
0.0123786
0.0118413
0.0122383
0.0125625
0.012643
0.013162
0.0132181
0.0132795
0.01364
0.0143585
0.0150592
0.0156797
0.000824286
0.0016021
-2.99738e-05
0.00370484
0.00629354
0.00706464
0.00863179
0.0107899
0.0123642
0.011805
0.0121825
0.0125604
0.0126247
0.0131268
0.0131908
0.0132045
0.0135338
0.0142523
0.0149336
0.0156513
0.000894835
0.00171003
0.000157982
0.0037308
0.0063654
0.00711272
0.00862293
0.010773
0.0122674
0.0117735
0.0121195
0.0125639
0.0126007
0.0130616
0.0131535
0.0131429
0.0134275
0.0141512
0.014886
0.01563
0.000969614
0.00181701
0.000349243
0.00376256
0.00643346
0.00716932
0.0086119
0.0107569
0.0121909
0.0117465
0.0120478
0.0125676
0.0125838
0.0129622
0.0130942
0.0130846
0.0133274
0.0140496
0.0149253
0.0156067
0.00104992
0.00192203
0.000543436
0.00380047
0.00649847
0.00722069
0.0086044
0.0107313
0.0122223
0.0117111
0.0119786
0.0125556
0.0125729
0.0129029
0.013037
0.0130169
0.0132403
0.0139089
0.0147108
0.0155847
0.00113462
0.00202637
0.000738584
0.00384698
0.00655798
0.00728149
0.00859715
0.0107058
0.0122052
0.011689
0.0119011
0.0125407
0.0125568
0.012803
0.0129566
0.0129583
0.013152
0.0137997
0.0146376
0.0155676
0.00122376
0.00213024
0.000935135
0.0039013
0.00661336
0.00735951
0.00858962
0.0106821
0.0121603
0.0116812
0.0118188
0.012508
0.0125349
0.0126949
0.0128529
0.0128928
0.0130566
0.0137172
0.0147184
0.0155498
0.00131922
0.00223258
0.00113233
0.00396311
0.00666698
0.00740865
0.00859175
0.0106421
0.0121721
0.0116692
0.0117411
0.0124692
0.0125381
0.0126042
0.0127463
0.0127941
0.0129751
0.0135715
0.0144505
0.0155392
0.00141881
0.00233555
0.0013286
0.00403395
0.00671709
0.00747467
0.00859809
0.0106013
0.0121527
0.0116679
0.0116586
0.0124206
0.0125442
0.012517
0.0126166
0.0126663
0.0128558
0.0134651
0.0143664
0.0155388
0.00152333
0.00243893
0.00152437
0.00411343
0.006765
0.00755841
0.0086071
0.0105656
0.0121102
0.0116767
0.0115721
0.0123547
0.0125464
0.0124495
0.0124811
0.0125128
0.0126547
0.0133697
0.0144697
0.0155282
0.00163446
0.00254196
0.00171884
0.00420048
0.00681352
0.00761924
0.00862551
0.0105172
0.0120845
0.0116802
0.0114906
0.0122728
0.0125486
0.0124032
0.012361
0.0124412
0.0126246
0.0132165
0.0141755
0.0154969
0.00174919
0.00264703
0.0019112
0.00429485
0.00686282
0.00768248
0.00864682
0.0104729
0.0120434
0.0116874
0.0114153
0.0121737
0.0125469
0.0123739
0.0122512
0.0123303
0.0125221
0.0130408
0.0140092
0.0154712
0.00186987
0.00275375
0.00210136
0.00439565
0.00691472
0.00774389
0.00867081
0.0104502
0.0119911
0.0116979
0.0113418
0.0120698
0.0125347
0.012355
0.0121485
0.0122033
0.0123981
0.0129116
0.0138991
0.015442
0.0019958
0.00286204
0.0022905
0.00450111
0.00696978
0.00780396
0.00869602
0.010405
0.0119353
0.0117077
0.0112798
0.0119593
0.0125026
0.0123457
0.0120625
0.0120655
0.0122684
0.012806
0.0138266
0.015424
0.00212618
0.00297315
0.00247823
0.00460978
0.0070289
0.00786467
0.00871958
0.0103617
0.0118731
0.0117184
0.0112322
0.0118368
0.0124559
0.0123435
0.0119892
0.0119278
0.0121386
0.012708
0.0137803
0.015423
0.00226241
0.00308653
0.00266461
0.00472154
0.00709148
0.00792519
0.0087451
0.0103157
0.0118049
0.0117293
0.0111964
0.0117108
0.0123931
0.0123381
0.0119357
0.0118041
0.0120143
0.012621
0.0137345
0.0154344
0.00240321
0.00320289
0.00285097
0.00483486
0.00715504
0.00798817
0.00877315
0.0102686
0.0117307
0.0117366
0.0111764
0.0115847
0.0123098
0.0123293
0.0119021
0.0116973
0.0118868
0.0125237
0.0137053
0.0154487
0.0025492
0.00332279
0.0030367
0.00494879
0.00721998
0.00805451
0.00880269
0.0102214
0.0116506
0.0117385
0.0111716
0.0114627
0.0122097
0.0123135
0.0118802
0.0116096
0.0117701
0.0124369
0.013655
0.01545
0.00270012
0.00344588
0.00322261
0.00506428
0.00728427
0.00812248
0.00883684
0.0101767
0.0115656
0.0117324
0.0111804
0.0113498
0.0120929
0.0122842
0.0118703
0.0115473
0.0116725
0.0123396
0.0135868
0.0154412
0.00285596
0.00357314
0.00340851
0.00518009
0.00734697
0.0081926
0.00887608
0.0101344
0.0114755
0.0117167
0.0112008
0.0112518
0.0119622
0.0122419
0.0118702
0.0115107
0.0115875
0.0122363
0.0135015
0.0154328
0.00301651
0.00370457
0.0035946
0.00529685
0.00740731
0.00826341
0.00892029
0.0100955
0.011383
0.0116913
0.0112302
0.0111735
0.0118209
0.0121946
0.0118719
0.0114902
0.0115123
0.0121355
0.013429
0.0154235
0.00318229
0.00382487
0.00378053
0.00541588
0.0074637
0.00833205
0.00897114
0.0100629
0.0112899
0.0116546
0.0112621
0.0111177
0.0116745
0.0121178
0.0118695
0.0114815
0.0114571
0.0120549
0.0133572
0.0154059
0.00335197
0.00396696
0.00396663
0.00553693
0.00751577
0.00839705
0.00902837
0.0100372
0.011199
0.0116084
0.0112916
0.011085
0.0115301
0.0120196
0.0118593
0.0114843
0.0114241
0.0119858
0.0132911
0.0153856
0.00352497
0.00411478
0.00415451
0.00565887
0.00756467
0.00845539
0.00909448
0.0100205
0.0111161
0.0115567
0.0113148
0.0110731
0.0113952
0.0119018
0.0118365
0.0114937
0.0114105
0.0119341
0.0132322
0.0153676
0.00370797
0.00426344
0.00434396
0.00578278
0.00761363
0.00850761
0.00913536
0.0100144
0.0110452
0.0115033
0.0113291
0.0110789
0.0112785
0.0117692
0.0117981
0.0115061
0.0114136
0.0119013
0.0131881
0.0153534
0.00388745
0.00441916
0.00453515
0.00591033
0.00766036
0.00854622
0.00918161
0.0100191
0.0109862
0.0114505
0.0113323
0.0110963
0.0111862
0.0116294
0.0117398
0.0115152
0.0114299
0.0118869
0.0131562
0.0153435
0.00407269
0.00457976
0.00472633
0.00604178
0.00770327
0.00857843
0.00923138
0.0100329
0.0109354
0.011398
0.0113237
0.0111183
0.0111208
0.0114878
0.0116613
0.0115155
0.0114546
0.0118913
0.0131399
0.01534
0.00426578
0.00474274
0.00491687
0.00617606
0.00774546
0.00860821
0.00928229
0.0100527
0.0108901
0.0113461
0.0113061
0.011139
0.0110799
0.0113553
0.0115667
0.0115019
0.0114831
0.0119146
0.0131424
0.0153458
0.00446079
0.00490977
0.00510649
0.00631126
0.00779229
0.00863807
0.00932983
0.0100756
0.0108497
0.0112975
0.0112827
0.0111533
0.0110604
0.0112419
0.0114612
0.0114709
0.0115111
0.0119539
0.0131644
0.0153619
0.00465954
0.00508088
0.00529352
0.00644761
0.00784646
0.00866801
0.00937129
0.0101002
0.0108155
0.011253
0.0112568
0.0111595
0.0110564
0.0111526
0.0113537
0.0114252
0.0115322
0.0120017
0.0132031
0.0153881
0.00486139
0.00525529
0.00547843
0.00658551
0.00790722
0.00869806
0.00940705
0.0101269
0.0107882
0.0112127
0.0112307
0.0111562
0.0110596
0.0110895
0.0112549
0.0113683
0.0115402
0.0120505
0.0132543
0.0154262
0.00506579
0.00543315
0.00566211
0.00672386
0.00797364
0.00873024
0.00943832
0.0101541
0.0107673
0.0111759
0.011206
0.0111447
0.0110696
0.0110481
0.0111711
0.011306
0.0115346
0.0120943
0.0133131
0.0154751
0.00527239
0.00561452
0.00584467
0.0068618
0.0080455
0.00876626
0.00946559
0.01018
0.0107523
0.0111426
0.0111847
0.011128
0.0110721
0.0110224
0.0111037
0.0112454
0.0115186
0.0121288
0.0133722
0.01553
0.00548088
0.00579915
0.00602635
0.00699913
0.00812232
0.00880685
0.0094895
0.0102035
0.010743
0.011113
0.0111671
0.0111082
0.0110688
0.0110075
0.0110523
0.0111921
0.0114961
0.012151
0.013424
0.0155857
0.00569084
0.00598682
0.00620757
0.00713555
0.00820321
0.00885261
0.00951129
0.0102237
0.0107388
0.011087
0.0111533
0.0110886
0.0110604
0.0109981
0.0110144
0.0111469
0.0114696
0.0121607
0.0134655
0.0156402
0.00590189
0.00617731
0.00638867
0.00727071
0.00828722
0.00890401
0.00953263
0.01024
0.0107386
0.0110643
0.011143
0.0110721
0.0110468
0.0109903
0.0109863
0.0111093
0.0114431
0.0121626
0.0134979
0.0156911
0.00611365
0.00637025
0.0065699
0.00740465
0.00837354
0.00896085
0.00955521
0.0102526
0.0107408
0.0110448
0.0111355
0.0110602
0.0110295
0.0109822
0.0109656
0.0110797
0.0114196
0.0121594
0.0135206
0.0157346
0.00632577
0.00656531
0.00675134
0.00753736
0.00846147
0.00902284
0.00958042
0.0102617
0.0107441
0.0110285
0.0111298
0.0110538
0.0110108
0.0109723
0.0109503
0.0110565
0.0113985
0.0121521
0.0135351
0.0157717
0.0065379
0.00676201
0.00693318
0.00766897
0.00855008
0.0090893
0.0096096
0.0102681
0.0107475
0.0110153
0.0111246
0.011053
0.0109932
0.0109596
0.0109375
0.0110376
0.0113795
0.0121432
0.013545
0.0158037
0.00674974
0.00695983
0.00711541
0.00779969
0.00863877
0.00915945
0.00964356
0.0102729
0.0107498
0.0110047
0.0111187
0.0110567
0.010979
0.010944
0.0109248
0.0110216
0.0113636
0.0121345
0.0135516
0.0158301
0.00696092
0.00715829
0.00729806
0.00792964
0.00872699
0.00923242
0.00968271
0.0102775
0.0107506
0.0109963
0.0111111
0.0110631
0.0109698
0.0109268
0.0109107
0.0110072
0.0113497
0.0121256
0.0135547
0.0158519
0.00717114
0.00735672
0.00748091
0.0080592
0.0088145
0.00930709
0.00972687
0.0102834
0.0107493
0.0109895
0.0111017
0.0110694
0.0109665
0.0109103
0.0108952
0.0109927
0.011336
0.0121152
0.0135553
0.01587
0.00738005
0.00755474
0.00766369
0.00818833
0.00890099
0.00938272
0.00977569
0.010292
0.010746
0.0109838
0.0110907
0.0110734
0.0109672
0.0108959
0.0108784
0.0109768
0.0113215
0.0121042
0.0135536
0.0158836
0.00758725
0.00775163
0.00784616
0.00831751
0.00898628
0.00945814
0.00982836
0.0103043
0.0107415
0.0109782
0.0110781
0.0110736
0.0109696
0.0108842
0.0108609
0.0109595
0.0113063
0.0120917
0.0135478
0.0158912
0.00779244
0.00794686
0.00802773
0.00844692
0.00907048
0.00953274
0.00988372
0.0103206
0.0107368
0.0109716
0.0110737
0.0110707
0.0109716
0.0108744
0.010843
0.0109406
0.0112889
0.0120761
0.0135375
0.0158929
0.00799518
0.00813978
0.00820801
0.00857671
0.0091534
0.0096059
0.00994097
0.0103405
0.0107329
0.0109624
0.011061
0.0110633
0.0109709
0.0108652
0.0108242
0.010919
0.011268
0.0120574
0.0135233
0.0158887
0.00819518
0.00832979
0.00838606
0.00870716
0.00923546
0.00967681
0.00999927
0.0103634
0.0107306
0.0109511
0.0110452
0.0110516
0.0109663
0.0108553
0.0108036
0.0108939
0.0112432
0.0120348
0.0135044
0.0158777
0.0083919
0.00851648
0.00856131
0.00883795
0.00931685
0.00974505
0.010058
0.0103883
0.0107299
0.0109387
0.0110251
0.0110347
0.0109564
0.010843
0.0107803
0.010864
0.0112123
0.0120061
0.0134793
0.0158595
0.00858495
0.00869933
0.00873289
0.00896879
0.00939802
0.00981016
0.0101163
0.0104143
0.0107295
0.0109267
0.0110011
0.011011
0.0109398
0.0108271
0.0107545
0.0108288
0.0111738
0.011969
0.0134459
0.0158323
0.00877354
0.00887794
0.00890046
0.00909936
0.0094791
0.00987122
0.0101732
0.0104417
0.0107285
0.0109151
0.0109754
0.0109801
0.0109145
0.0108054
0.0107251
0.0107883
0.0111272
0.0119217
0.0134017
0.0157936
0.00895705
0.00905148
0.00906299
0.0092295
0.00956167
0.00992852
0.0102263
0.0104697
0.010725
0.010902
0.0109506
0.0109437
0.0108796
0.0107745
0.01069
0.010742
0.0110722
0.0118633
0.0133449
0.0157416
0.00913482
0.00922011
0.00921991
0.00935632
0.00964513
0.00998432
0.0102761
0.0104984
0.0107188
0.0108955
0.0109277
0.0109042
0.010835
0.0107317
0.0106464
0.0106887
0.0110078
0.011792
0.0132729
0.0156737
0.00930557
0.00938331
0.00937265
0.00948107
0.00972709
0.0100344
0.0103189
0.0105292
0.0107122
0.0108749
0.0109049
0.0108639
0.0107831
0.010677
0.0105912
0.010625
0.0109312
0.0117046
0.0131817
0.0155843
0.00946876
0.00953985
0.00951874
0.00960522
0.00981355
0.010082
0.0103475
0.0105518
0.0107041
0.0108477
0.0108788
0.0108232
0.010727
0.0106131
0.0105247
0.0105512
0.0108448
0.0116045
0.0130708
0.0154697
0.0096218
0.00968965
0.00965866
0.00972543
0.0099039
0.0101365
0.0103724
0.0105671
0.0106974
0.010814
0.0108458
0.010779
0.0106658
0.0105382
0.0104419
0.0104601
0.0107416
0.0114873
0.0129408
0.0153308
0.00976421
0.00982746
0.00978862
0.0098368
0.00997943
0.0101774
0.0103926
0.0105837
0.0106981
0.0107745
0.0108046
0.0107317
0.0106026
0.0104565
0.0103458
0.0103532
0.0106219
0.0113522
0.0127899
0.0151676
0.00989873
0.00997737
0.00993757
0.00996555
0.0100509
0.0101917
0.0103699
0.0105699
0.0107166
0.010768
0.0107766
0.0106946
0.0105482
0.0103823
0.0102517
0.0102443
0.010499
0.011215
0.0126377
0.0150004
0.00997523
0.0100668
0.0100907
0.0101271
0.010145
0.0102277
0.010362
0.0105287
0.0105697
0.0106586
0.0106777
0.0105958
0.010437
0.010245
0.0100832
0.010048
0.010278
0.0109696
0.0123701
0.0147175
0.0101609
0.0102264
0.010162
0.0101512
0.0101594
0.0102453
0.0103947
0.0105693
0.0107343
0.0107842
0.0107719
0.010689
0.0105259
0.0103051
0.0100806
0.00995421
0.01007
0.0106374
0.0119124
0.0141349
0.0101946
0.0103272
0.010217
0.0102853
0.0103423
0.0102912
0.010247
0.0103768
0.0104371
0.0105164
0.0105189
0.0104568
0.0103418
0.0102577
0.0102294
0.0103162
0.0106021
0.0112593
0.0125303
0.0146866
0.010446
0.0104006
0.0103642
0.0102583
0.0102343
0.0103384
0.0105118
0.0106818
0.0108647
0.010892
0.0107887
0.010602
0.0102791
0.0098313
0.00934773
0.00894734
0.00880957
0.00915439
0.0102305
0.0122711
0.010726
0.0103731
0.0102103
0.0101332
0.0101693
0.0101723
0.0101817
0.0103432
0.0104321
0.0104228
0.0103793
0.0103877
0.0106267
0.0111258
0.01193
0.0129751
0.0140898
0.014991
0.0153344
0.0147903
0.0107816
0.0104698
0.0102756
0.0102558
0.0103885
0.0105751
0.010769
0.0109297
0.0110171
0.0109367
0.0106732
0.0102303
0.00959696
0.00886251
0.00813434
0.00751325
0.00713625
0.00721493
0.0080222
0.00980273
0.0109697
0.0104763
0.0102424
0.0102101
0.0103608
0.0104337
0.0104051
0.0102829
0.0101982
0.0102724
0.010329
0.0102415
0.0101912
0.0103263
0.0107247
0.011376
0.012219
0.0129783
0.0132609
0.0127011
0.0109885
0.010483
0.0102624
0.0103197
0.0106119
0.0109366
0.0112315
0.0114034
0.0114158
0.0111281
0.0105074
0.00952563
0.00823315
0.00679349
0.00545768
0.00444935
0.00391096
0.00400568
0.00494894
0.00693804
0.0225077
0.0126591
0.00965215
0.0119423
0.0146481
0.0166603
0.018214
0.019635
0.021126
0.0227645
0.0245714
0.0263804
0.0280801
0.0298157
0.031665
0.0335059
0.0353197
0.0372074
0.0392151
0.0412683
0.0433213
0.045426
0.0476293
0.0499633
0.052439
0.0549983
0.0575895
0.0602829
0.0630552
0.065904
0.0688359
0.0719332
0.0751423
0.0784556
0.0818464
0.0853478
0.0890261
0.0928474
0.0968564
0.100923
0.105143
0.109508
0.11401
0.118715
0.123456
0.128447
0.133457
0.138645
0.143734
0.148712
0.0223126
0.0127171
0.00969314
0.0119591
0.0146582
0.0166673
0.018219
0.0196386
0.0211287
0.0227666
0.0245731
0.0263819
0.0280815
0.0298168
0.031666
0.0335069
0.0353206
0.0372082
0.0392158
0.0412689
0.0433218
0.0454265
0.0476298
0.0499637
0.0524394
0.0549986
0.0575898
0.0602832
0.0630554
0.0659043
0.0688361
0.0719334
0.0751425
0.0784558
0.0818466
0.085348
0.0890263
0.0928476
0.0968566
0.100923
0.105143
0.109508
0.11401
0.118715
0.123456
0.128447
0.133457
0.138645
0.143734
0.148712
0.0220574
0.0128101
0.00976114
0.0119803
0.0146687
0.0166745
0.0182241
0.0196423
0.0211314
0.0227685
0.0245747
0.0263834
0.0280827
0.0298179
0.031667
0.0335077
0.0353214
0.0372089
0.0392165
0.0412695
0.0433224
0.045427
0.0476302
0.0499641
0.0524397
0.054999
0.0575901
0.0602834
0.0630557
0.0659045
0.0688363
0.0719336
0.0751427
0.078456
0.0818468
0.0853481
0.0890264
0.0928477
0.0968567
0.100923
0.105143
0.109508
0.11401
0.118716
0.123456
0.128447
0.133457
0.138645
0.143734
0.148712
0.0218219
0.0129408
0.00986462
0.0120114
0.0146818
0.0166834
0.0182305
0.0196469
0.0211347
0.0227709
0.0245766
0.0263849
0.028084
0.029819
0.0316679
0.0335086
0.0353222
0.0372096
0.0392171
0.0412701
0.0433229
0.0454274
0.0476306
0.0499644
0.05244
0.0549993
0.0575904
0.0602837
0.0630559
0.0659047
0.0688365
0.0719338
0.0751429
0.0784562
0.081847
0.0853483
0.0890265
0.0928478
0.0968568
0.100923
0.105144
0.109508
0.11401
0.118716
0.123456
0.128447
0.133457
0.138645
0.143734
0.148712
0.0216072
0.0130978
0.00999695
0.0120528
0.0146983
0.0166947
0.018239
0.0196534
0.0211395
0.0227742
0.0245789
0.0263868
0.0280856
0.0298203
0.031669
0.0335095
0.035323
0.0372104
0.0392178
0.0412708
0.0433235
0.045428
0.047631
0.0499648
0.0524404
0.0549996
0.0575907
0.060284
0.0630562
0.065905
0.0688367
0.071934
0.0751431
0.0784563
0.0818471
0.0853485
0.0890267
0.092848
0.096857
0.100924
0.105144
0.109508
0.114011
0.118716
0.123456
0.128447
0.133457
0.138645
0.143734
0.148712
0.0213954
0.0132666
0.0101456
0.0121004
0.0147175
0.0167084
0.0182497
0.019662
0.0211462
0.022779
0.0245821
0.0263891
0.0280876
0.0298219
0.0316703
0.0335106
0.0353239
0.0372113
0.0392186
0.0412716
0.0433243
0.0454286
0.0476315
0.0499653
0.0524408
0.055
0.057591
0.0602843
0.0630565
0.0659052
0.0688369
0.0719342
0.0751433
0.0784565
0.0818473
0.0853486
0.0890269
0.0928481
0.0968571
0.100924
0.105144
0.109509
0.114011
0.118716
0.123456
0.128447
0.133457
0.138645
0.143734
0.148712
0.0211785
0.0134401
0.010304
0.0121515
0.0147382
0.0167239
0.0182622
0.0196724
0.0211548
0.0227853
0.0245863
0.0263921
0.02809
0.0298239
0.0316718
0.0335117
0.0353249
0.0372122
0.0392195
0.0412724
0.0433251
0.0454293
0.0476321
0.0499657
0.0524412
0.0550004
0.0575914
0.0602846
0.0630568
0.0659055
0.0688372
0.0719344
0.0751435
0.0784567
0.0818475
0.0853488
0.089027
0.0928483
0.0968573
0.100924
0.105144
0.109509
0.114011
0.118716
0.123456
0.128447
0.133457
0.138645
0.143734
0.148713
0.0209572
0.0136169
0.0104701
0.012205
0.0147597
0.0167407
0.018276
0.019684
0.0211647
0.0227931
0.0245917
0.0263958
0.028093
0.0298265
0.0316736
0.033513
0.035326
0.0372132
0.0392204
0.0412734
0.0433262
0.0454302
0.0476327
0.0499663
0.0524417
0.0550008
0.0575918
0.060285
0.0630571
0.0659058
0.0688374
0.0719347
0.0751437
0.0784569
0.0818477
0.085349
0.0890272
0.0928484
0.0968574
0.100924
0.105144
0.109509
0.114011
0.118716
0.123457
0.128447
0.133457
0.138645
0.143735
0.148713
0.0207345
0.0137965
0.0106434
0.0122608
0.0147818
0.0167585
0.0182908
0.0196965
0.0211755
0.022802
0.0245982
0.0264002
0.0280966
0.0298295
0.0316759
0.0335145
0.0353273
0.0372144
0.0392214
0.0412745
0.0433274
0.0454313
0.0476336
0.049967
0.0524423
0.0550013
0.0575922
0.0602854
0.0630575
0.0659062
0.0688377
0.0719349
0.0751439
0.0784572
0.0818479
0.0853491
0.0890273
0.0928486
0.0968576
0.100924
0.105144
0.109509
0.114011
0.118716
0.123457
0.128448
0.133457
0.138645
0.143735
0.148713
0.0205122
0.0139779
0.0108236
0.0123188
0.0148043
0.0167769
0.0183063
0.0197094
0.0211867
0.0228114
0.0246054
0.0264054
0.0281006
0.029833
0.0316785
0.0335164
0.0353289
0.0372158
0.0392225
0.0412756
0.0433288
0.0454326
0.0476347
0.0499678
0.0524429
0.0550019
0.0575927
0.0602858
0.063058
0.0659066
0.0688381
0.0719352
0.0751442
0.0784574
0.0818481
0.0853493
0.0890275
0.0928488
0.0968578
0.100924
0.105144
0.109509
0.114011
0.118716
0.123457
0.128448
0.133458
0.138646
0.143736
0.148714
0.0202908
0.0141599
0.0110108
0.0123793
0.0148269
0.016796
0.0183224
0.0197227
0.0211983
0.0228213
0.0246133
0.0264112
0.0281051
0.0298368
0.0316814
0.0335185
0.0353307
0.0372174
0.0392237
0.0412767
0.0433302
0.0454341
0.047636
0.0499689
0.0524437
0.0550024
0.0575932
0.0602863
0.0630584
0.065907
0.0688385
0.0719356
0.0751445
0.0784577
0.0818484
0.0853495
0.0890277
0.0928489
0.096858
0.100925
0.105145
0.109509
0.114011
0.118717
0.123457
0.128448
0.133458
0.138646
0.143736
0.148715
0.0200708
0.0143416
0.0112045
0.0124424
0.0148496
0.0168155
0.0183391
0.0197364
0.0212102
0.0228315
0.0246214
0.0264175
0.02811
0.0298409
0.0316846
0.0335208
0.0353328
0.0372192
0.0392249
0.0412778
0.0433317
0.0454357
0.0476375
0.0499702
0.0524446
0.055003
0.0575937
0.0602868
0.063059
0.0659076
0.0688389
0.0719359
0.0751449
0.078458
0.0818487
0.0853498
0.0890279
0.0928491
0.0968581
0.100925
0.105145
0.10951
0.114012
0.118717
0.123457
0.128448
0.133458
0.138646
0.143737
0.148716
0.0198533
0.0145216
0.0114042
0.0125082
0.0148723
0.0168355
0.0183565
0.0197506
0.0212224
0.022842
0.0246299
0.0264241
0.0281151
0.0298451
0.0316879
0.0335234
0.035335
0.0372213
0.0392264
0.0412788
0.043333
0.0454373
0.0476392
0.0499717
0.0524457
0.0550037
0.0575942
0.0602873
0.0630595
0.0659081
0.0688394
0.0719363
0.0751452
0.0784584
0.0818491
0.0853501
0.0890281
0.0928493
0.0968583
0.100925
0.105145
0.10951
0.114012
0.118717
0.123457
0.128448
0.133458
0.138647
0.143738
0.148717
0.0196396
0.014699
0.0116093
0.0125769
0.0148949
0.0168557
0.0183745
0.0197652
0.0212351
0.0228529
0.0246386
0.0264309
0.0281204
0.0298495
0.0316915
0.0335262
0.0353375
0.0372236
0.039228
0.0412798
0.0433342
0.0454388
0.0476409
0.0499735
0.052447
0.0550044
0.0575947
0.0602877
0.06306
0.0659088
0.0688401
0.0719368
0.0751456
0.0784588
0.0818495
0.0853504
0.0890283
0.0928494
0.0968585
0.100925
0.105145
0.10951
0.114012
0.118717
0.123458
0.128449
0.133459
0.138647
0.143739
0.148718
0.0194309
0.0148727
0.0118192
0.0126489
0.0149173
0.0168763
0.0183932
0.0197804
0.0212482
0.0228644
0.0246476
0.0264378
0.0281259
0.0298541
0.0316951
0.0335291
0.03534
0.037226
0.0392297
0.0412808
0.0433353
0.0454402
0.0476426
0.0499754
0.0524485
0.0550052
0.0575952
0.0602882
0.0630605
0.0659094
0.0688408
0.0719374
0.0751459
0.0784592
0.08185
0.0853509
0.0890286
0.0928496
0.0968587
0.100925
0.105145
0.10951
0.114012
0.118717
0.123458
0.128449
0.133459
0.138648
0.143741
0.148719
0.0192282
0.0150422
0.0120336
0.0127247
0.0149396
0.016897
0.0184127
0.0197962
0.0212619
0.0228765
0.024657
0.0264449
0.0281316
0.0298589
0.0316989
0.0335321
0.0353427
0.0372286
0.0392315
0.0412817
0.0433362
0.0454414
0.0476443
0.0499774
0.0524502
0.0550061
0.0575957
0.0602886
0.063061
0.06591
0.0688416
0.0719381
0.0751463
0.0784596
0.0818506
0.0853515
0.089029
0.0928498
0.0968588
0.100925
0.105145
0.10951
0.114012
0.118718
0.123458
0.128449
0.13346
0.138649
0.143742
0.148721
0.0190319
0.015207
0.0122527
0.0128049
0.0149619
0.0169178
0.018433
0.0198127
0.0212763
0.0228894
0.0246669
0.026452
0.0281374
0.0298638
0.031703
0.0335352
0.0353455
0.0372312
0.0392334
0.0412825
0.043337
0.0454426
0.0476459
0.0499794
0.0524521
0.0550071
0.0575961
0.060289
0.0630614
0.0659106
0.0688424
0.0719389
0.0751467
0.07846
0.0818512
0.0853522
0.0890295
0.09285
0.096859
0.100926
0.105146
0.10951
0.114013
0.118718
0.123459
0.12845
0.13346
0.13865
0.143744
0.148723
0.0188419
0.0153668
0.0124767
0.0128902
0.0149843
0.0169386
0.0184541
0.01983
0.0212915
0.022903
0.0246773
0.0264592
0.0281432
0.0298688
0.0317072
0.0335384
0.0353484
0.0372339
0.0392353
0.0412833
0.0433376
0.0454437
0.0476476
0.0499814
0.0524539
0.0550081
0.0575966
0.0602894
0.0630618
0.0659111
0.0688432
0.0719397
0.0751471
0.0784602
0.0818518
0.0853531
0.0890301