/*--------------------------------*- C++ -*----------------------------------*\
| =========                 |                                                 |
| \\      /  F ield         | OpenFOAM: The Open Source CFD Toolbox           |
|  \\    /   O peration     | Version:  v2012                                 |
|   \\  /    A nd           | Website:  www.openfoam.com                      |
|    \\/     M anipulation  |                                                 |
\*---------------------------------------------------------------------------*/
FoamFile
{
    version     2.0;
    format      ascii;
    class       volVectorField;
    location    "5.3";
    object      U;
}
// * * * * * * * * * * * * * * * * * * * * * * * * * * * * * * * * * * * * * //

dimensions      [0 1 -1 0 0 0 0];


internalField   nonuniform List<vector> 
7000
(
(0.877429 0.0037618 0)
(1.11813 0.0103528 0)
(0.648095 -0.0329737 0)
(1.32429 -0.0204841 0)
(0.896437 -0.0107339 0)
(1.17335 0.0116924 0)
(0.968377 0.00935709 0)
(1.09845 0.0080211 0)
(0.949444 0.00129932 0)
(1.12279 -0.0173974 0)
(0.89492 -0.0104018 0)
(1.19134 -0.021572 0)
(0.85742 -0.0141632 0)
(1.22077 -0.0133359 0)
(0.856646 -0.0052891 0)
(1.20041 0.00103932 0)
(0.864851 0.00340622 0)
(1.16405 0.00922439 0)
(0.872097 0.00777114 0)
(1.13237 0.0120544 0)
(0.883985 0.00367405 0)
(1.10442 0.0115377 0)
(0.715041 -0.0347442 0)
(1.2965 -0.021747 0)
(0.913094 -0.0100343 0)
(1.16531 0.0115452 0)
(0.985181 0.00977516 0)
(1.08725 0.00833882 0)
(0.97917 0.000825043 0)
(1.09353 -0.0163695 0)
(0.92754 -0.011762 0)
(1.14805 -0.0205127 0)
(0.891857 -0.0151453 0)
(1.1787 -0.0129453 0)
(0.897244 -0.00516355 0)
(1.15285 0.00106421 0)
(0.920148 0.00440263 0)
(1.10001 0.00868662 0)
(0.948949 0.00938863 0)
(1.04516 0.0110165 0)
(0.896987 0.00369108 0)
(1.08221 0.0124454 0)
(0.776397 -0.0357617 0)
(1.24974 -0.0225013 0)
(0.94255 -0.00941304 0)
(1.14548 0.0111834 0)
(1.01273 0.0103504 0)
(1.07282 0.00848783 0)
(1.01255 0.000748446 0)
(1.06344 -0.0156949 0)
(0.966101 -0.0125865 0)
(1.09782 -0.0198829 0)
(0.941434 -0.015905 0)
(1.12112 -0.0128737 0)
(0.957224 -0.00481612 0)
(1.09182 0.000726734 0)
(0.981933 0.00572393 0)
(1.04223 0.00808465 0)
(0.998167 0.0109758 0)
(1.00499 0.0106737 0)
(0.914511 0.00377038 0)
(1.05688 0.0130017 0)
(0.835758 -0.0367711 0)
(1.19049 -0.0232343 0)
(0.976966 -0.008963 0)
(1.11801 0.0107686 0)
(1.03906 0.010837 0)
(1.06189 0.00851429 0)
(1.0366 0.000909329 0)
(1.04115 -0.015166 0)
(0.995471 -0.0128994 0)
(1.05473 -0.0196238 0)
(0.981147 -0.0162088 0)
(1.07053 -0.0133014 0)
(1.00243 -0.00419755 0)
(1.05003 0.000202666 0)
(1.01753 0.00690969 0)
(1.01858 0.00783971 0)
(1.0162 0.0120543 0)
(0.99907 0.0109767 0)
(0.933927 0.00387751 0)
(1.03371 0.0133528 0)
(0.886381 -0.0374453 0)
(1.12758 -0.023935 0)
(1.00654 -0.00867191 0)
(1.09117 0.0103904 0)
(1.05716 0.0111869 0)
(1.05684 0.00855428 0)
(1.0492 0.00122139 0)
(1.02996 -0.0147137 0)
(1.01068 -0.0128774 0)
(1.02722 -0.0195788 0)
(1.00097 -0.0162593 0)
(1.03793 -0.0139693 0)
(1.02238 -0.00366647 0)
(1.03193 -0.000266699 0)
(1.03005 0.00776764 0)
(1.01703 0.00790072 0)
(1.02142 0.0127818 0)
(1.0057 0.0115232 0)
(0.952701 0.00400234 0)
(1.01646 0.0135625 0)
(0.926503 -0.0378635 0)
(1.07062 -0.0246036 0)
(1.0248 -0.00858 0)
(1.07122 0.0100672 0)
(1.06657 0.0113951 0)
(1.05651 0.00864098 0)
(1.05388 0.00161082 0)
(1.02713 -0.0142762 0)
(1.01516 -0.0126306 0)
(1.01366 -0.0195915 0)
(1.00534 -0.016188 0)
(1.02031 -0.0146746 0)
(1.02441 -0.00338318 0)
(1.02562 -0.000686587 0)
(1.03065 0.00829558 0)
(1.02087 0.00801614 0)
(1.02281 0.0133288 0)
(1.01319 0.0120444 0)
(0.968851 0.00412322 0)
(1.00682 0.0136599 0)
(0.956499 -0.0380184 0)
(1.02636 -0.0251946 0)
(1.03062 -0.00870879 0)
(1.05954 0.00977208 0)
(1.0701 0.0114731 0)
(1.05808 0.00876561 0)
(1.05486 0.00203699 0)
(1.02785 -0.0138113 0)
(1.01469 -0.012236 0)
(1.00793 -0.0195911 0)
(1.0026 -0.016024 0)
(1.01038 -0.0153487 0)
(1.01848 -0.00331137 0)
(1.02138 -0.00113908 0)
(1.02652 0.00856197 0)
(1.02243 0.00806501 0)
(1.02244 0.0137224 0)
(1.01751 0.0124674 0)
(0.981198 0.00421378 0)
(1.00431 0.0136797 0)
(0.978102 -0.0379664 0)
(0.997022 -0.0256759 0)
(1.02702 -0.00904622 0)
(1.05365 0.00944811 0)
(1.07057 0.0114615 0)
(1.05904 0.00891291 0)
(1.05448 0.00248351 0)
(1.02861 -0.0133094 0)
(1.01331 -0.0117466 0)
(1.00503 -0.0195544 0)
(0.99843 -0.0157615 0)
(1.00332 -0.0159812 0)
(1.01079 -0.0033451 0)
(1.0162 -0.00165276 0)
(1.02091 0.00864695 0)
(1.02088 0.00802735 0)
(1.02083 0.0139487 0)
(1.01874 0.0127909 0)
(0.989441 0.00425735 0)
(1.00683 0.0136415 0)
(0.993325 -0.0377547 0)
(0.980779 -0.0260296 0)
(1.01858 -0.00954285 0)
(1.05002 0.00904817 0)
(1.06924 0.0114063 0)
(1.05791 0.0090685 0)
(1.05306 0.00294416 0)
(1.02795 -0.0127873 0)
(1.01255 -0.0111959 0)
(1.00265 -0.0194744 0)
(0.995175 -0.0154059 0)
(0.997338 -0.0165534 0)
(1.00382 -0.00341724 0)
(1.01048 -0.00221367 0)
(1.01531 0.00859785 0)
(1.01776 0.00790743 0)
(1.01863 0.0140111 0)
(1.01831 0.0130117 0)
(0.994023 0.00424864 0)
(1.0117 0.0135607 0)
(1.00391 -0.0374272 0)
(0.973757 -0.0262555 0)
(1.00909 -0.0101276 0)
(1.04598 0.00856016 0)
(1.06596 0.0113379 0)
(1.05417 0.00922234 0)
(1.05013 0.00341059 0)
(1.02568 -0.0122772 0)
(1.01245 -0.0106078 0)
(1.00026 -0.0193506 0)
(0.993279 -0.014974 0)
(0.992085 -0.0170403 0)
(0.998163 -0.00352289 0)
(1.00499 -0.00279611 0)
(1.0103 0.00842196 0)
(1.01436 0.00771556 0)
(1.01636 0.0139204 0)
(1.01727 0.0131219 0)
(0.995858 0.00419397 0)
(1.01661 0.0134433 0)
(1.01113 -0.0370179 0)
(0.972074 -0.0263648 0)
(1.00055 -0.0107298 0)
(1.04018 0.00800541 0)
(1.06009 0.0112713 0)
(1.04781 0.00936565 0)
(1.04533 0.00386864 0)
(1.02221 -0.0118152 0)
(1.0125 -0.010005 0)
(0.998044 -0.0191888 0)
(0.99249 -0.0144829 0)
(0.987666 -0.0174324 0)
(0.993714 -0.00364947 0)
(0.999967 -0.00336676 0)
(1.00587 0.00811377 0)
(1.01098 0.0074652 0)
(1.01396 0.0136895 0)
(1.01578 0.0131266 0)
(0.995992 0.00410759 0)
(1.02022 0.0132861 0)
(1.01584 -0.0365542 0)
(0.97295 -0.0263729 0)
(0.993371 -0.0112921 0)
(1.03226 0.00742409 0)
(1.05138 0.0112117 0)
(1.03928 0.00948542 0)
(1.03882 0.00429507 0)
(1.01813 -0.011433 0)
(1.01216 -0.00941025 0)
(0.996319 -0.0190045 0)
(0.992369 -0.0139445 0)
(0.984304 -0.0177198 0)
(0.990178 -0.00379111 0)
(0.995321 -0.00389212 0)
(1.00161 0.00767941 0)
(1.00725 0.00717689 0)
(1.0109 0.0133437 0)
(1.0133 0.013047 0)
(0.995328 0.00400359 0)
(1.02218 0.0130932 0)
(1.01865 -0.0360562 0)
(0.974818 -0.0262959 0)
(0.987291 -0.0117725 0)
(1.02256 0.00685898 0)
(1.04029 0.0111576 0)
(1.02938 0.00956349 0)
(1.03124 0.00466191 0)
(1.01405 -0.0111502 0)
(1.01113 -0.00884544 0)
(0.995313 -0.0188164 0)
(0.992464 -0.0133711 0)
(0.982174 -0.0178849 0)
(0.987273 -0.0039479 0)
(0.990984 -0.00433018 0)
(0.997133 0.00715283 0)
(1.00276 0.00688499 0)
(1.00666 0.0129224 0)
(1.00931 0.0129125 0)
(0.994485 0.00389333 0)
(1.02277 0.0128719 0)
(1.02004 -0.0355397 0)
(0.976925 -0.0261496 0)
(0.982123 -0.0121448 0)
(1.01195 0.00634244 0)
(1.028 0.0111028 0)
(1.0192 0.00958102 0)
(1.02349 0.00494651 0)
(1.01045 -0.010969 0)
(1.00936 -0.00832895 0)
(0.995051 -0.0186367 0)
(0.992436 -0.012783 0)
(0.981252 -0.0179209 0)
(0.984812 -0.00408345 0)
(0.987046 -0.00464291 0)
(0.992377 0.00658576 0)
(0.997467 0.00663048 0)
(1.00118 0.0124735 0)
(1.00375 0.0127549 0)
(0.993788 0.00378369 0)
(1.02252 0.0126291 0)
(1.02041 -0.0350144 0)
(0.97893 -0.025949 0)
(0.977922 -0.012399 0)
(1.00163 0.00589117 0)
(1.01597 0.0110398 0)
(1.00979 0.00952398 0)
(1.01639 0.00513547 0)
(1.00759 -0.0108766 0)
(1.00708 -0.00787225 0)
(0.995368 -0.018469 0)
(0.99215 -0.0122041 0)
(0.98127 -0.0178307 0)
(0.982732 -0.0041813 0)
(0.983693 -0.00480123 0)
(0.987634 0.00603353 0)
(0.99182 0.00644791 0)
(0.994992 0.012041 0)
(0.997231 0.0126035 0)
(0.993353 0.00367738 0)
(1.02185 0.0123709 0)
(1.02014 -0.0344845 0)
(0.98066 -0.0257092 0)
(0.974824 -0.0125393 0)
(0.99272 0.00550893 0)
(1.00548 0.0109628 0)
(1.00189 0.00938598 0)
(1.01049 0.00522788 0)
(1.00549 -0.010853 0)
(1.00465 -0.00747789 0)
(0.996007 -0.0183124 0)
(0.991671 -0.0116528 0)
(0.981828 -0.017618 0)
(0.981056 -0.00424297 0)
(0.981079 -0.00478967 0)
(0.983384 0.00553917 0)
(0.986519 0.00635678 0)
(0.988959 0.0116559 0)
(0.990734 0.0124772 0)
(0.993184 0.00357487 0)
(1.02103 0.012102 0)
(1.01948 -0.0339504 0)
(0.98203 -0.0254434 0)
(0.972852 -0.0125809 0)
(0.985903 0.00518982 0)
(0.99728 0.0108716 0)
(0.995792 0.00917184 0)
(1.00595 0.0052326 0)
(1.00403 -0.0108746 0)
(1.00241 -0.0071446 0)
(0.996721 -0.0181595 0)
(0.991163 -0.0111417 0)
(0.982565 -0.0172869 0)
(0.97983 -0.00427896 0)
(0.979246 -0.00462117 0)
(0.980035 0.00511989 0)
(0.982176 0.00635675 0)
(0.983882 0.0113362 0)
(0.985175 0.0123842 0)
(0.993243 0.00347532 0)
(1.02013 0.0118275 0)
(1.01864 -0.0334101 0)
(0.983015 -0.0251635 0)
(0.971876 -0.0125445 0)
(0.981317 0.0049217 0)
(0.991502 0.0107724 0)
(0.991417 0.00889533 0)
(1.00265 0.00516377 0)
(1.00302 -0.0109206 0)
(1.00055 -0.00686844 0)
(0.99734 -0.017998 0)
(0.990769 -0.0106832 0)
(0.983276 -0.0168447 0)
(0.979071 -0.00429849 0)
(0.978129 -0.00432112 0)
(0.977762 0.00477624 0)
(0.979097 0.00642626 0)
(0.980209 0.0110844 0)
(0.981086 0.012327 0)
(0.993485 0.00337819 0)
(1.01915 0.0115501 0)
(1.01774 -0.0328618 0)
(0.983644 -0.0248788 0)
(0.971679 -0.0124526 0)
(0.978692 0.00469102 0)
(0.987877 0.0106739 0)
(0.988507 0.00857124 0)
(1.00035 0.0050379 0)
(1.00229 -0.0109811 0)
(0.999131 -0.00664227 0)
(0.99777 -0.0178136 0)
(0.990546 -0.0102851 0)
(0.98391 -0.0163032 0)
(0.978748 -0.00432043 0)
(0.977604 -0.00392275 0)
(0.976511 0.00450516 0)
(0.97726 0.00654069 0)
(0.977989 0.0108831 0)
(0.978546 0.0122938 0)
(0.993867 0.00328356 0)
(1.01812 0.0112693 0)
(1.01686 -0.032304 0)
(0.983984 -0.0245968 0)
(0.972033 -0.0123255 0)
(0.977594 0.0044847 0)
(0.98597 0.010583 0)
(0.986784 0.00821595 0)
(0.998801 0.00487449 0)
(1.00173 -0.0110441 0)
(0.998107 -0.00646196 0)
(0.997974 -0.017595 0)
(0.990467 -0.0099519 0)
(0.984491 -0.0156733 0)
(0.978799 -0.00435885 0)
(0.97754 -0.00346715 0)
(0.976098 0.0042934 0)
(0.97644 0.00668546 0)
(0.977005 0.010726 0)
(0.977323 0.0122672 0)
(0.994342 0.00319112 0)
(1.01706 0.0109866 0)
(1.01605 -0.0317347 0)
(0.984124 -0.0243228 0)
(0.972742 -0.0121805 0)
(0.977579 0.00429116 0)
(0.985336 0.0105035 0)
(0.986018 0.00784751 0)
(0.997809 0.00468549 0)
(1.00124 -0.0110969 0)
(0.997399 -0.00633234 0)
(0.997948 -0.0173282 0)
(0.990465 -0.00969404 0)
(0.985042 -0.0149643 0)
(0.979149 -0.00440303 0)
(0.977816 -0.00298479 0)
(0.976305 0.00411846 0)
(0.976356 0.00681947 0)
(0.976935 0.0106097 0)
(0.977064 0.0122521 0)
(0.994858 0.00310063 0)
(1.01604 0.0107026 0)
(1.01535 -0.0311527 0)
(0.984163 -0.0240594 0)
(0.973627 -0.0120304 0)
(0.978244 0.00410047 0)
(0.985568 0.010436 0)
(0.986014 0.00747911 0)
(0.99725 0.00448193 0)
(1.00082 -0.0111326 0)
(0.996922 -0.00625732 0)
(0.997713 -0.0169984 0)
(0.99048 -0.00951645 0)
(0.985551 -0.0142022 0)
(0.979713 -0.00444494 0)
(0.978325 -0.00248455 0)
(0.976932 0.003994 0)
(0.976754 0.00691471 0)
(0.977472 0.0104795 0)
(0.97743 0.0122306 0)
(0.995369 0.0030117 0)
(1.01511 0.0104172 0)
(1.01476 -0.0305569 0)
(0.984196 -0.0238068 0)
(0.974533 -0.0118831 0)
(0.979223 0.0039049 0)
(0.986291 0.0103787 0)
(0.986583 0.00711301 0)
(0.997024 0.00427409 0)
(1.00047 -0.0111373 0)
(0.996611 -0.00623772 0)
(0.997314 -0.016606 0)
(0.990472 -0.00940697 0)
(0.985974 -0.0134137 0)
(0.980406 -0.0044976 0)
(0.978965 -0.00200776 0)
(0.977802 0.00392457 0)
(0.977424 0.0070244 0)
(0.978353 0.0103377 0)
(0.978154 0.0121647 0)
(0.995837 0.00292375 0)
(1.01429 0.0101292 0)
(1.01428 -0.0299462 0)
(0.984297 -0.0235636 0)
(0.97533 -0.0117403 0)
(0.980194 0.00369951 0)
(0.987172 0.0103248 0)
(0.987534 0.00675609 0)
(0.997046 0.00405707 0)
(1.00019 -0.0110921 0)
(0.996422 -0.00626911 0)
(0.996811 -0.0161623 0)
(0.99043 -0.00936058 0)
(0.986265 -0.0126148 0)
(0.981136 -0.00455094 0)
(0.97964 -0.00158548 0)
(0.978775 0.0038582 0)
(0.978214 0.00713398 0)
(0.979364 0.0102473 0)
(0.979032 0.012095 0)
(0.99624 0.00283657 0)
(1.01358 0.00983702 0)
(1.01386 -0.0293213 0)
(0.984515 -0.0233268 0)
(0.975934 -0.0116001 0)
(0.980926 0.00348311 0)
(0.987966 0.0102619 0)
(0.98869 0.00641631 0)
(0.99724 0.00384157 0)
(1.00002 -0.0110005 0)
(0.996327 -0.00632689 0)
(0.996264 -0.0156653 0)
(0.990362 -0.00938434 0)
(0.986403 -0.0118214 0)
(0.981826 -0.00456802 0)
(0.980272 -0.00119198 0)
(0.979737 0.00379828 0)
(0.979029 0.00717535 0)
(0.980373 0.010143 0)
(0.979932 0.0120275 0)
(0.996566 0.00274985 0)
(1.01299 0.00954081 0)
(1.01348 -0.0286861 0)
(0.984864 -0.0230898 0)
(0.976316 -0.0114589 0)
(0.981308 0.00325383 0)
(0.988544 0.0101793 0)
(0.989909 0.00608678 0)
(0.997544 0.00363277 0)
(0.99995 -0.0108521 0)
(0.996312 -0.00643223 0)
(0.995727 -0.015086 0)
(0.990282 -0.00944471 0)
(0.9864 -0.0110498 0)
(0.982426 -0.0045695 0)
(0.980815 -0.000822369 0)
(0.980606 0.0037857 0)
(0.979798 0.00718848 0)
(0.9813 0.00999454 0)
(0.980793 0.0119168 0)
(0.996818 0.00266234 0)
(1.0125 0.00924122 0)
(1.01309 -0.0280386 0)
(0.985328 -0.0228502 0)
(0.976494 -0.0113078 0)
(0.981348 0.00301668 0)
(0.98889 0.0100546 0)
(0.991088 0.00578438 0)
(0.997907 0.00338175 0)
(0.999981 -0.0106062 0)
(0.996365 -0.00659949 0)
(0.995245 -0.0144617 0)
(0.990203 -0.00950524 0)
(0.986292 -0.0103107 0)
(0.982915 -0.00456181 0)
(0.981266 -0.000534344 0)
(0.981348 0.00380945 0)
(0.980496 0.00720599 0)
(0.982108 0.00983222 0)
(0.981587 0.0117861 0)
(0.997 0.00257561 0)
(1.01211 0.00893234 0)
(1.01268 -0.027377 0)
(0.985872 -0.0226089 0)
(0.97652 -0.0111435 0)
(0.981135 0.00277577 0)
(0.989062 0.00988703 0)
(0.992162 0.00548637 0)
(0.998287 0.00313752 0)
(1.00009 -0.0103786 0)
(0.996467 -0.00668505 0)
(0.994845 -0.0138779 0)
(0.990141 -0.00955725 0)
(0.986132 -0.0096462 0)
(0.983295 -0.0044541 0)
(0.981642 -0.000323825 0)
(0.981965 0.0038271 0)
(0.981117 0.00720588 0)
(0.982783 0.00964202 0)
(0.982306 0.0116228 0)
(0.997121 0.00248878 0)
(1.01181 0.00862044 0)
(1.01227 -0.0267136 0)
(0.986447 -0.0223546 0)
(0.976459 -0.01096 0)
(0.980787 0.00251283 0)
(0.98914 0.00969116 0)
(0.993088 0.00516088 0)
(0.998637 0.00292171 0)
(1.00025 -0.010098 0)
(0.996597 -0.00682822 0)
(0.994528 -0.0131966 0)
(0.990108 -0.00958013 0)
(0.985984 -0.00902921 0)
(0.983588 -0.00434767 0)
(0.981967 -9.90618e-05 0)
(0.982465 0.00383075 0)
(0.981671 0.00725979 0)
(0.983348 0.00948648 0)
(0.982963 0.0114426 0)
(0.99719 0.0023966 0)
(1.01158 0.00830821 0)
(1.01186 -0.0260384 0)
(0.987008 -0.0220856 0)
(0.976376 -0.0107623 0)
(0.980423 0.00227231 0)
(0.989191 0.00937165 0)
(0.993842 0.00496319 0)
(0.998928 0.00252575 0)
(1.0004 -0.00959443 0)
(0.996735 -0.00709568 0)
(0.994302 -0.012483 0)
(0.9901 -0.00961662 0)
(0.985878 -0.00837227 0)
(0.983829 -0.00427624 0)
(0.982281 0.000140736 0)
(0.982877 0.00380706 0)
(0.982163 0.0073319 0)
(0.983785 0.00927796 0)
(0.983532 0.0112426 0)
(0.99722 0.00231396 0)
(1.01141 0.00797148 0)
(1.01146 -0.0253426 0)
(0.987516 -0.0218205 0)
(0.976334 -0.0105356 0)
(0.980129 0.00200098 0)
(0.98926 0.00906152 0)
(0.994419 0.00463899 0)
(0.999127 0.00234566 0)
(1.00054 -0.00939068 0)
(0.996844 -0.00708188 0)
(0.994148 -0.0118773 0)
(0.990127 -0.00956423 0)
(0.985858 -0.00785448 0)
(0.984041 -0.00410904 0)
(0.982601 0.000238173 0)
(0.983226 0.00376963 0)
(0.982596 0.00726284 0)
(0.984102 0.009126 0)
(0.984003 0.0110528 0)
(0.997221 0.00221591 0)
(1.01127 0.0076617 0)
(1.01108 -0.0246693 0)
(0.987948 -0.021509 0)
(0.976377 -0.0103281 0)
(0.979969 0.00177779 0)
(0.989361 0.0086269 0)
(0.994847 0.00443853 0)
(0.999212 0.00196015 0)
(1.0006 -0.00888696 0)
(0.996936 -0.00724686 0)
(0.994034 -0.0112516 0)
(0.990165 -0.0093946 0)
(0.985922 -0.00739976 0)
(0.984242 -0.00386435 0)
(0.982952 0.000293582 0)
(0.983547 0.00375418 0)
(0.983018 0.00717111 0)
(0.984391 0.00906214 0)
(0.984415 0.0109077 0)
(0.997207 0.00212037 0)
(1.01113 0.00732564 0)
(1.01073 -0.0239548 0)
(0.988291 -0.0212003 0)
(0.976544 -0.0100918 0)
(0.979956 0.00152946 0)
(0.989521 0.00818981 0)
(0.995124 0.0042056 0)
(0.999213 0.001603 0)
(1.0006 -0.00846849 0)
(0.996952 -0.00730744 0)
(0.993969 -0.0107401 0)
(0.99022 -0.00912462 0)
(0.98607 -0.007108 0)
(0.984455 -0.00354101 0)
(0.983317 0.00023629 0)
(0.983852 0.00379202 0)
(0.9834 0.00694958 0)
(0.984606 0.00896297 0)
(0.984726 0.0107015 0)
(0.997191 0.00204703 0)
(1.01097 0.00695282 0)
(1.01043 -0.0232176 0)
(0.98855 -0.02092 0)
(0.976842 -0.00981972 0)
(0.980104 0.00124725 0)
(0.989719 0.00776559 0)
(0.995318 0.0038696 0)
(0.99911 0.00143955 0)
(1.00052 -0.00830478 0)
(0.996951 -0.00714197 0)
(0.993899 -0.010266 0)
(0.990264 -0.00885786 0)
(0.986273 -0.0067102 0)
(0.984691 -0.00338394 0)
(0.983727 0.000302047 0)
(0.98419 0.00377807 0)
(0.983797 0.00694283 0)
(0.984864 0.00894134 0)
(0.985002 0.0105438 0)
(0.99718 0.00192505 0)
(1.01076 0.00666388 0)
(1.01015 -0.0225493 0)
(0.988744 -0.0205257 0)
(0.977273 -0.0096548 0)
(0.980381 0.00114091 0)
(0.989972 0.00708951 0)
(0.995426 0.0038502 0)
(0.998958 0.000852668 0)
(1.00038 -0.00754346 0)
(0.996899 -0.00748673 0)
(0.993819 -0.00941938 0)
(0.99035 -0.00896751 0)
(0.986499 -0.00598848 0)
(0.98495 -0.00320008 0)
(0.98415 0.00084725 0)
(0.984565 0.00364028 0)
(0.984212 0.00712405 0)
(0.985099 0.00863022 0)
(0.985264 0.0101718 0)
(0.997177 0.00184138 0)
(1.0105 0.00628679 0)
(1.0099 -0.021792 0)
(0.988901 -0.0201704 0)
(0.977798 -0.00943331 0)
(0.980782 0.000904679 0)
(0.990246 0.00662838 0)
(0.995498 0.00350238 0)
(0.99877 0.000709492 0)
(1.00018 -0.00743054 0)
(0.996838 -0.00727927 0)
(0.993726 -0.00904564 0)
(0.990413 -0.00852231 0)
(0.986799 -0.00586932 0)
(0.985277 -0.00288093 0)
(0.984577 0.000783581 0)
(0.98494 0.00370996 0)
(0.984586 0.00679845 0)
(0.985246 0.00856905 0)
(0.985478 0.00996011 0)
(0.997188 0.00176745 0)
(1.01018 0.00589715 0)
(1.00966 -0.0210151 0)
(0.989037 -0.0198835 0)
(0.978395 -0.00915931 0)
(0.98127 0.000646911 0)
(0.990539 0.00612951 0)
(0.995551 0.00321828 0)
(0.998536 0.000538451 0)
(0.999969 -0.00728386 0)
(0.996751 -0.00696438 0)
(0.993645 -0.0088783 0)
(0.99049 -0.00792486 0)
(0.987069 -0.00564012 0)
(0.9856 -0.00249791 0)
(0.985048 0.000684464 0)
(0.98538 0.00376418 0)
(0.985057 0.00656643 0)
(0.985594 0.00859207 0)
(0.985732 0.00989083 0)
(0.997219 0.00164062 0)
(1.00981 0.00560557 0)
(1.00944 -0.0203665 0)
(0.98917 -0.0193785 0)
(0.979044 -0.0091064 0)
(0.981804 0.000646263 0)
(0.990851 0.00536059 0)
(0.995577 0.00319745 0)
(0.998313 1.94662e-05 0)
(0.999717 -0.00654919 0)
(0.996682 -0.00740152 0)
(0.993554 -0.00773426 0)
(0.99061 -0.00830596 0)
(0.98738 -0.00482965 0)
(0.985956 -0.00210791 0)
(0.985485 0.00142636 0)
(0.985829 0.00365386 0)
(0.985508 0.00681829 0)
(0.985886 0.00818521 0)
(0.985992 0.0094442 0)
(0.997261 0.00156282 0)
(1.0094 0.00521189 0)
(1.0092 -0.0195927 0)
(0.989328 -0.0189967 0)
(0.979708 -0.00891716 0)
(0.982377 0.000430241 0)
(0.99115 0.00489115 0)
(0.995591 0.00281663 0)
(0.998088 2.38836e-06 0)
(0.999458 -0.00655955 0)
(0.99665 -0.00703335 0)
(0.993451 -0.00757165 0)
(0.990708 -0.00755434 0)
(0.987787 -0.00483571 0)
(0.986379 -0.00191942 0)
(0.985912 0.00122725 0)
(0.986253 0.00365242 0)
(0.985924 0.00626992 0)
(0.986076 0.00815178 0)
(0.986215 0.00940495 0)
(0.997321 0.00150139 0)
(1.00897 0.00480148 0)
(1.00894 -0.018814 0)
(0.989517 -0.0186533 0)
(0.980363 -0.00871126 0)
(0.982969 0.000191976 0)
(0.991437 0.00444943 0)
(0.995614 0.00241321 0)
(0.997829 3.78191e-05 0)
(0.999216 -0.00657675 0)
(0.996589 -0.00661297 0)
(0.993434 -0.00745777 0)
(0.990851 -0.00682741 0)
(0.988095 -0.00487912 0)
(0.986782 -0.00159104 0)
(0.986399 0.00107488 0)
(0.986724 0.00378964 0)
(0.98647 0.0059452 0)
(0.986583 0.00817502 0)
(0.986516 0.00940972 0)
(0.997405 0.00136538 0)
(1.00852 0.00453489 0)
(1.00868 -0.0182171 0)
(0.989724 -0.0180483 0)
(0.981027 -0.00876422 0)
(0.983544 0.000271789 0)
(0.991718 0.00364859 0)
(0.995606 0.00239953 0)
(0.997593 -0.000558843 0)
(0.998946 -0.00571102 0)
(0.996599 -0.00722745 0)
(0.993383 -0.00638576 0)
(0.990975 -0.00705133 0)
(0.988495 -0.00390269 0)
(0.987249 -0.00126091 0)
(0.986859 0.00201102 0)
(0.987197 0.00373191 0)
(0.986958 0.00650043 0)
(0.98696 0.00764843 0)
(0.986802 0.00885385 0)
(0.997494 0.00130499 0)
(1.00808 0.00412377 0)
(1.00839 -0.0174353 0)
(0.98998 -0.0176409 0)
(0.981672 -0.00860069 0)
(0.98411 2.9197e-05 0)
(0.991965 0.00326982 0)
(0.995586 0.0019514 0)
(0.997367 -0.000458219 0)
(0.998665 -0.00568295 0)
(0.996589 -0.00688787 0)
(0.993408 -0.00629023 0)
(0.991172 -0.00628876 0)
(0.988935 -0.00399293 0)
(0.987757 -0.00121503 0)
(0.987312 0.00171009 0)
(0.987646 0.00378759 0)
(0.987373 0.00604182 0)
(0.987161 0.00771974 0)
(0.987065 0.00896011 0)
(0.997592 0.00125253 0)
(1.00766 0.00373 0)
(1.00807 -0.0167308 0)
(0.990265 -0.017194 0)
(0.982302 -0.0084537 0)
(0.984673 -0.000202894 0)
(0.992189 0.0029264 0)
(0.995588 0.00140384 0)
(0.997099 -0.000245177 0)
(0.998409 -0.00574062 0)
(0.996589 -0.00634205 0)
(0.99345 -0.00618761 0)
(0.991287 -0.00566567 0)
(0.989306 -0.00422822 0)
(0.988254 -0.000927811 0)
(0.987869 0.00150873 0)
(0.988168 0.00414629 0)
(0.987978 0.00578317 0)
(0.987785 0.00790457 0)
(0.987392 0.00907314 0)
(0.997712 0.00109813 0)
(1.00722 0.00350236 0)
(1.00776 -0.0161858 0)
(0.99056 -0.0165471 0)
(0.982942 -0.00852818 0)
(0.985195 -0.000177417 0)
(0.992403 0.00224657 0)
(0.995569 0.00136015 0)
(0.996875 -0.000833431 0)
(0.99812 -0.00485343 0)
(0.996606 -0.00679838 0)
(0.993515 -0.00533216 0)
(0.991458 -0.00554439 0)
(0.989727 -0.00341564 0)
(0.98881 -0.00104488 0)
(0.988408 0.00209838 0)
(0.988678 0.00390025 0)
(0.988457 0.00637301 0)
(0.988201 0.0072656 0)
(0.987704 0.00845834 0)
(0.997824 0.00108641 0)
(1.00682 0.00305662 0)
(1.00742 -0.0154252 0)
(0.990872 -0.0161109 0)
(0.983575 -0.0083731 0)
(0.985706 -0.000454014 0)
(0.992588 0.00198439 0)
(0.995533 0.000862497 0)
(0.996667 -0.000724409 0)
(0.997846 -0.00474942 0)
(0.996624 -0.00634602 0)
(0.993628 -0.00506688 0)
(0.991622 -0.00487038 0)
(0.990101 -0.00319788 0)
(0.98937 -0.000953507 0)
(0.988978 0.00196803 0)
(0.989272 0.00368782 0)
(0.988942 0.00585687 0)
(0.988481 0.00719634 0)
(0.988054 0.00845707 0)
(0.997933 0.000990989 0)
(1.00644 0.00275923 0)
(1.00707 -0.0148315 0)
(0.991203 -0.0155776 0)
(0.984197 -0.00824558 0)
(0.986215 -0.00068211 0)
(0.99274 0.00166522 0)
(0.995534 0.000463017 0)
(0.996446 -0.000699378 0)
(0.997595 -0.00455321 0)
(0.996646 -0.00593726 0)
(0.993757 -0.00498132 0)
(0.99179 -0.00413816 0)
(0.990475 -0.0030275 0)
(0.989906 -0.000687457 0)
(0.98951 0.00176411 0)
(0.989736 0.0036249 0)
(0.989537 0.00522909 0)
(0.989111 0.00718377 0)
(0.988385 0.00843304 0)
(0.998051 0.000872525 0)
(1.00607 0.00249932 0)
(1.00672 -0.0142877 0)
(0.991518 -0.0149568 0)
(0.984834 -0.00822027 0)
(0.986697 -0.00081295 0)
(0.992909 0.00122821 0)
(0.995498 0.000298184 0)
(0.996274 -0.0010391 0)
(0.997338 -0.00396235 0)
(0.996647 -0.00595577 0)
(0.993946 -0.00445633 0)
(0.991984 -0.0038513 0)
(0.990805 -0.0025483 0)
(0.990432 -0.000732182 0)
(0.990058 0.00189113 0)
(0.990253 0.00355183 0)
(0.990097 0.00539282 0)
(0.989627 0.00677583 0)
(0.988745 0.0079806 0)
(0.998161 0.000873465 0)
(1.00571 0.00209311 0)
(1.00639 -0.0136258 0)
(0.991837 -0.0144937 0)
(0.985453 -0.00801436 0)
(0.987179 -0.00114682 0)
(0.993054 0.00101516 0)
(0.995489 -0.000123818 0)
(0.99612 -0.000966012 0)
(0.997098 -0.00378938 0)
(0.996678 -0.00552872 0)
(0.994125 -0.00425603 0)
(0.992169 -0.00346816 0)
(0.991132 -0.00215814 0)
(0.990945 -0.00057714 0)
(0.990619 0.00186892 0)
(0.990775 0.00355195 0)
(0.990612 0.00527735 0)
(0.990092 0.00647419 0)
(0.989101 0.00753694 0)
(0.998267 0.000720379 0)
(1.00538 0.00190514 0)
(1.00605 -0.013105 0)
(0.992149 -0.0139704 0)
(0.986068 -0.00785817 0)
(0.987658 -0.0013576 0)
(0.993205 0.000661208 0)
(0.995483 -0.00027328 0)
(0.995985 -0.00112924 0)
(0.996876 -0.00340816 0)
(0.996673 -0.0052685 0)
(0.994333 -0.00412056 0)
(0.992413 -0.00300691 0)
(0.991443 -0.00178818 0)
(0.991414 -0.000423887 0)
(0.991174 0.00183558 0)
(0.991302 0.00353047 0)
(0.991111 0.00513285 0)
(0.99052 0.00624741 0)
(0.989451 0.00713835 0)
(0.99837 0.000699682 0)
(1.00504 0.00156169 0)
(1.00573 -0.0125413 0)
(0.992466 -0.0134468 0)
(0.986667 -0.00763166 0)
(0.988124 -0.00165639 0)
(0.993357 0.000406968 0)
(0.995486 -0.000570651 0)
(0.99588 -0.00114936 0)
(0.99667 -0.00314313 0)
(0.996671 -0.00494041 0)
(0.99457 -0.00390851 0)
(0.992653 -0.00263601 0)
(0.991729 -0.00150655 0)
(0.991868 -0.000205666 0)
(0.991732 0.00178493 0)
(0.991828 0.00350439 0)
(0.991591 0.00491699 0)
(0.990915 0.00603162 0)
(0.989772 0.00677875 0)
(0.99847 0.000598408 0)
(1.00472 0.00131859 0)
(1.00541 -0.0119744 0)
(0.992771 -0.012998 0)
(0.987252 -0.00744183 0)
(0.988592 -0.00185624 0)
(0.993513 0.000144154 0)
(0.995504 -0.000811351 0)
(0.995798 -0.00121702 0)
(0.996477 -0.00290638 0)
(0.996656 -0.00458877 0)
(0.994807 -0.00379732 0)
(0.992931 -0.00233909 0)
(0.992032 -0.00116939 0)
(0.992285 2.10215e-05 0)
(0.992263 0.00172722 0)
(0.992335 0.00339229 0)
(0.992059 0.00471512 0)
(0.991308 0.00581901 0)
(0.990077 0.00646394 0)
(0.99857 0.000534754 0)
(1.00441 0.00106656 0)
(1.0051 -0.011484 0)
(0.993078 -0.0125245 0)
(0.987837 -0.00717268 0)
(0.989049 -0.00203693 0)
(0.993669 -0.000146328 0)
(0.995526 -0.00103447 0)
(0.995744 -0.00129127 0)
(0.996313 -0.00265212 0)
(0.996632 -0.00420767 0)
(0.995059 -0.0036401 0)
(0.993237 -0.00204903 0)
(0.992321 -0.000878122 0)
(0.992665 0.000203366 0)
(0.992762 0.00170628 0)
(0.992848 0.00327331 0)
(0.992533 0.00455042 0)
(0.991677 0.00556945 0)
(0.990369 0.00619619 0)
(0.998667 0.000465774 0)
(1.0041 0.000811406 0)
(1.00481 -0.0109434 0)
(0.993381 -0.0120684 0)
(0.988404 -0.0069583 0)
(0.989497 -0.0022176 0)
(0.993827 -0.000388976 0)
(0.995567 -0.00123284 0)
(0.995718 -0.0013642 0)
(0.996169 -0.00244721 0)
(0.996597 -0.00383378 0)
(0.995299 -0.00349698 0)
(0.993564 -0.00185244 0)
(0.992618 -0.000616789 0)
(0.993025 0.000410201 0)
(0.993237 0.00174403 0)
(0.993341 0.00315961 0)
(0.992978 0.00433093 0)
(0.992051 0.00529864 0)
(0.990676 0.00599768 0)
(0.998762 0.000389179 0)
(1.00381 0.000596532 0)
(1.00451 -0.010459 0)
(0.993679 -0.0116421 0)
(0.988972 -0.0067389 0)
(0.989941 -0.00231839 0)
(0.993987 -0.000612129 0)
(0.995606 -0.0014269 0)
(0.995712 -0.00148157 0)
(0.996056 -0.00226529 0)
(0.996554 -0.00346508 0)
(0.995535 -0.0033127 0)
(0.993921 -0.00169109 0)
(0.992928 -0.000354086 0)
(0.993367 0.000597677 0)
(0.993668 0.00178387 0)
(0.993797 0.00300118 0)
(0.993421 0.00412353 0)
(0.992457 0.00509684 0)
(0.991002 0.00583211 0)
(0.998855 0.000331434 0)
(1.00352 0.000365827 0)
(1.00423 -0.00998574 0)
(0.993979 -0.0111886 0)
(0.989529 -0.00651349 0)
(0.990374 -0.00243088 0)
(0.994141 -0.000826256 0)
(0.995659 -0.00159358 0)
(0.995735 -0.00153592 0)
(0.995972 -0.00209035 0)
(0.99651 -0.00307811 0)
(0.995749 -0.00310263 0)
(0.994291 -0.00158654 0)
(0.993249 -0.000125713 0)
(0.993685 0.000753291 0)
(0.994059 0.00182028 0)
(0.994233 0.00288192 0)
(0.99388 0.00398553 0)
(0.992877 0.00491447 0)
(0.991316 0.00560894 0)
(0.998946 0.000247314 0)
(1.00324 0.000182348 0)
(1.00396 -0.00952254 0)
(0.994271 -0.0107691 0)
(0.990079 -0.00633945 0)
(0.990801 -0.00248394 0)
(0.994302 -0.000995273 0)
(0.995717 -0.00172513 0)
(0.995777 -0.00162788 0)
(0.995917 -0.00196569 0)
(0.996462 -0.00274673 0)
(0.995938 -0.0028667 0)
(0.994681 -0.00152849 0)
(0.993591 7.12746e-05 0)
(0.99399 0.000896138 0)
(0.994423 0.00189913 0)
(0.994655 0.00282766 0)
(0.994324 0.00386074 0)
(0.993267 0.00469089 0)
(0.991627 0.00535701 0)
(0.999033 0.000214858 0)
(1.00297 -4.13361e-05 0)
(1.00369 -0.00907812 0)
(0.994561 -0.0103279 0)
(0.990624 -0.00618721 0)
(0.991225 -0.00252575 0)
(0.994455 -0.00113571 0)
(0.995777 -0.00184401 0)
(0.995839 -0.00170341 0)
(0.995893 -0.00186805 0)
(0.996428 -0.00241643 0)
(0.9961 -0.00256994 0)
(0.995069 -0.00147442 0)
(0.993953 0.000228689 0)
(0.99429 0.00104103 0)
(0.994768 0.00197647 0)
(0.99504 0.00278899 0)
(0.994737 0.00370027 0)
(0.993653 0.00448462 0)
(0.99195 0.00512786 0)
(0.999117 0.000107287 0)
(1.00271 -0.000150876 0)
(1.00344 -0.00869082 0)
(0.994839 -0.00989245 0)
(0.99116 -0.00606159 0)
(0.991647 -0.0025233 0)
(0.994617 -0.00126918 0)
(0.995844 -0.00190348 0)
(0.995915 -0.00176348 0)
(0.995899 -0.00178874 0)
(0.996406 -0.00215835 0)
(0.996229 -0.00227441 0)
(0.99545 -0.00143443 0)
(0.99434 0.000324764 0)
(0.994586 0.00115587 0)
(0.995084 0.00202765 0)
(0.995389 0.00275234 0)
(0.995132 0.00355179 0)
(0.994033 0.00430686 0)
(0.992273 0.00489465 0)
(0.999199 8.14237e-05 0)
(1.00246 -0.000370255 0)
(1.00319 -0.00824967 0)
(0.995121 -0.00953766 0)
(0.991696 -0.00586266 0)
(0.992057 -0.00266547 0)
(0.994757 -0.00130546 0)
(0.995905 -0.00190327 0)
(0.996001 -0.0017789 0)
(0.99593 -0.00171631 0)
(0.996413 -0.00192604 0)
(0.996346 -0.00195099 0)
(0.995818 -0.00135892 0)
(0.99475 0.000369552 0)
(0.994888 0.00127404 0)
(0.995391 0.00207535 0)
(0.99571 0.00275194 0)
(0.995503 0.0034273 0)
(0.994394 0.00414278 0)
(0.992583 0.00466586 0)
(0.999275 2.47326e-05 0)
(1.00223 -0.000525651 0)
(1.00296 -0.00782258 0)
(0.995389 -0.00916716 0)
(0.992203 -0.00571865 0)
(0.992477 -0.00278916 0)
(0.994954 -0.00131645 0)
(0.995978 -0.00185333 0)
(0.996091 -0.00177481 0)
(0.995977 -0.00163154 0)
(0.996433 -0.00172852 0)
(0.996433 -0.00162529 0)
(0.996145 -0.00124741 0)
(0.995176 0.000374322 0)
(0.9952 0.00137732 0)
(0.995682 0.00211472 0)
(0.996002 0.00276275 0)
(0.995845 0.00332367 0)
(0.99474 0.00399348 0)
(0.992892 0.00446241 0)
(0.999349 -6.06582e-05 0)
(1.00201 -0.00059842 0)
(1.00273 -0.00748042 0)
(0.99565 -0.00872924 0)
(0.992709 -0.00563169 0)
(0.992902 -0.0027628 0)
(0.995141 -0.00137271 0)
(0.996048 -0.00184983 0)
(0.996184 -0.0017865 0)
(0.996035 -0.00157855 0)
(0.996477 -0.00158704 0)
(0.996515 -0.00133603 0)
(0.996435 -0.00109909 0)
(0.99561 0.000327948 0)
(0.99553 0.00142694 0)
(0.995971 0.00211958 0)
(0.996277 0.00275747 0)
(0.996162 0.00321966 0)
(0.995072 0.00384197 0)
(0.993193 0.00426259 0)
(0.99942 -7.29143e-05 0)
(1.00179 -0.000789503 0)
(1.00252 -0.00706247 0)
(0.9959 -0.00833548 0)