/*--------------------------------*- C++ -*----------------------------------*\
| =========                 |                                                 |
| \\      /  F ield         | OpenFOAM: The Open Source CFD Toolbox           |
|  \\    /   O peration     | Version:  v2012                                 |
|   \\  /    A nd           | Website:  www.openfoam.com                      |
|    \\/     M anipulation  |                                                 |
\*---------------------------------------------------------------------------*/
FoamFile
{
    version     2.0;
    format      ascii;
    class       volScalarField;
    location    "6.1";
    object      p;
}
// * * * * * * * * * * * * * * * * * * * * * * * * * * * * * * * * * * * * * //

dimensions      [0 2 -2 0 0 0 0];


internalField   nonuniform List<scalar> 
7000
(
-4.40515e-11
0.00601406
0.00828267
0.00699733
0.00665816
0.00699516
0.0017734
0.00664492
0.00366093
0.0070244
0.00894354
0.0108932
0.0135357
0.0156366
0.0191529
0.022788
0.025508
0.0295075
0.03246
0.0384752
-8.56387e-07
0.00602622
0.00827555
0.00698508
0.00665586
0.00698983
0.00180125
0.0066347
0.00368325
0.00705134
0.00892861
0.0108948
0.0135402
0.0156276
0.0191584
0.0227517
0.0255143
0.0294439
0.0325167
0.0381683
-1.02925e-06
0.00604388
0.0082597
0.00698135
0.00665269
0.00698256
0.00183566
0.00661602
0.00375548
0.00708837
0.00890492
0.0109031
0.0135412
0.0156125
0.0191517
0.0227033
0.025506
0.0293652
0.0325592
0.0376823
1.17281e-06
0.00605671
0.00824128
0.00698794
0.00664758
0.00697182
0.00188035
0.00659127
0.00380872
0.00711894
0.00887689
0.0109092
0.0135365
0.0155906
0.0191388
0.022651
0.025486
0.0292834
0.0325303
0.0372038
6.73859e-06
0.00606295
0.00822135
0.00700159
0.00664091
0.00695823
0.00193722
0.00656113
0.00387183
0.00714166
0.00884424
0.010909
0.0135316
0.0155626
0.0191262
0.0225942
0.0254661
0.0291904
0.0324636
0.036758
1.62529e-05
0.00606337
0.00819952
0.00701988
0.00663298
0.00694322
0.00200559
0.00652775
0.00394228
0.00715794
0.00880677
0.0109042
0.0135314
0.0155303
0.0191125
0.0225341
0.0254458
0.0290816
0.0323682
0.0363345
2.99812e-05
0.00605909
0.00817633
0.00704091
0.00662433
0.0069276
0.00208292
0.00649315
0.00401684
0.00716889
0.00876527
0.0108961
0.0135379
0.0154938
0.0190955
0.0224712
0.0254198
0.0289575
0.0322461
0.0359205
4.79857e-05
0.00605181
0.00815266
0.00706339
0.0066155
0.00691176
0.00216655
0.00645792
0.00409296
0.00717519
0.00872018
0.0108845
0.0135503
0.015453
0.0190741
0.0224041
0.025385
0.0288193
0.032095
0.0355091
7.02331e-05
0.00604351
0.00812922
0.00708673
0.00660695
0.00689571
0.00225473
0.00642148
0.00416939
0.00717702
0.00867199
0.0108686
0.0135668
0.0154064
0.0190473
0.0223309
0.0253395
0.0286673
0.0319135
0.0350967
9.65804e-05
0.00603578
0.0081064
0.00711079
0.00659906
0.00687937
0.00234678
0.00638311
0.00424601
0.0071745
0.00862183
0.0108475
0.0135846
0.0153591
0.0190145
0.0222508
0.0252815
0.0285014
0.0317016
0.0346806
0.000126709
0.00602951
0.00808435
0.00713553
0.00659218
0.00686269
0.00244275
0.00634255
0.00432348
0.00716819
0.00857201
0.0108209
0.0136009
0.0153104
0.0189761
0.0221632
0.025209
0.0283214
0.0314602
0.0342587
0.000160118
0.00602497
0.00806296
0.00716081
0.0065866
0.00684562
0.002543
0.00630023
0.00440304
0.00715945
0.00852585
0.0107897
0.013613
0.0152617
0.0189331
0.0220679
0.0251206
0.0281275
0.0311911
0.0338285
0.000196198
0.00602202
0.00804195
0.00718626
0.00658242
0.00682808
0.00264792
0.00625706
0.00448629
0.00715036
0.00848721
0.0107559
0.0136189
0.0152147
0.0188867
0.0219653
0.0250157
0.0279197
0.0308962
0.0333878
0.000234341
0.00602032
0.00802096
0.00721133
0.00657964
0.00680993
0.00275758
0.00621414
0.00457455
0.00714322
0.0084602
0.0107219
0.0136173
0.0151714
0.0188384
0.0218555
0.0248943
0.0276983
0.0305776
0.0329356
0.000274039
0.00601951
0.00799969
0.00723537
0.00657816
0.00679101
0.00287155
0.0061724
0.00466859
0.00714017
0.0084484
0.0106905
0.013608
0.0151335
0.0187895
0.0217392
0.0247562
0.027463
0.0302373
0.0324719
0.000314944
0.0060193
0.00797791
0.00725783
0.00657785
0.00677106
0.00298903
0.0061324
0.00476867
0.00714268
0.00845368
0.0106642
0.0135916
0.0151024
0.0187402
0.0216168
0.0246018
0.0272134
0.0298774
0.0319974
0.000356873
0.00601949
0.00795556
0.00727829
0.00657869
0.00674991
0.00310912
0.00609439
0.00487445
0.00715126
0.00847636
0.0106448
0.013569
0.0150782
0.0186898
0.0214891
0.024432
0.0269502
0.0294998
0.0315118
0.000399758
0.00601998
0.00793268
0.0072965
0.00658065
0.00672746
0.00323101
0.00605833
0.00498517
0.00716561
0.00851527
0.0106327
0.0135407
0.0150604
0.0186365
0.0213559
0.0242476
0.0266743
0.0291055
0.0310154
0.000443599
0.00602073
0.00790939
0.00731236
0.00658376
0.00670371
0.00335423
0.00602391
0.00509983
0.00718486
0.00856798
0.0106275
0.013507
0.0150481
0.0185786
0.0212167
0.0240486
0.0263865
0.028696
0.0305093
0.000488428
0.00602172
0.00788578
0.00732584
0.00658803
0.00667865
0.00347858
0.0059908
0.00521745
0.00720788
0.00863239
0.0106286
0.013468
0.0150394
0.0185144
0.0210708
0.0238347
0.0260871
0.0282735
0.029995
0.000534289
0.00602291
0.00786197
0.00733698
0.00659354
0.00665225
0.00360397
0.0059587
0.00533711
0.00723372
0.00870751
0.0106353
0.0134229
0.0150324
0.0184424
0.0209176
0.0236055
0.0257761
0.0278403
0.029474
0.000581225
0.00602426
0.00783809
0.00734584
0.00660035
0.00662454
0.00373037
0.00592736
0.00545791
0.00726202
0.00878833
0.0106467
0.0133714
0.015025
0.0183622
0.0207563
0.0233615
0.0254538
0.0273972
0.0289473
0.000629281
0.00602571
0.00781429
0.00735244
0.00660855
0.00659559
0.00385768
0.00589678
0.00557887
0.00729278
0.00886925
0.0106623
0.0133128
0.0150156
0.0182746
0.0205853
0.0231026
0.0251224
0.0269461
0.0284142
0.0006785
0.00602719
0.0077907
0.00735679
0.00661825
0.00656551
0.00398571
0.00586715
0.00569912
0.00732621
0.00893691
0.0106818
0.013247
0.0150017
0.0181808
0.0204043
0.0228264
0.0247815
0.0264913
0.0278768
0.000728935
0.00602862
0.00776747
0.00735886
0.00662951
0.00653447
0.00411425
0.00583876
0.00581765
0.00736337
0.00898688
0.0107049
0.0131749
0.01498
0.0180811
0.0202155
0.0225333
0.024427
0.0260327
0.0273389
0.000780634
0.00602988
0.00774477
0.00735862
0.00664231
0.00650267
0.00424295
0.00581251
0.00593294
0.00740565
0.00902908
0.0107302
0.0130972
0.0149486
0.0179751
0.0200185
0.022225
0.0240622
0.0255716
0.0267983
0.000833654
0.00603086
0.00772274
0.00735602
0.00665665
0.00647026
0.00437113
0.00578944
0.00604392
0.00745339
0.00906332
0.0107577
0.013015
0.0149047
0.0178634
0.019814
0.0218973
0.023687
0.0251172
0.0262569
0.000888068
0.00603143
0.00770152
0.00735095
0.00667261
0.00643732
0.00449839
0.00577013
0.0061498
0.00750753
0.00908924
0.0107851
0.0129315
0.014846
0.0177434
0.019606
0.0215563
0.0232933
0.0246595
0.0257228
0.000943948
0.00603142
0.0076813
0.00734329
0.00669006
0.00640443
0.00462363
0.00575624
0.00624899
0.00756827
0.00910901
0.0108097
0.0128472
0.0147728
0.0176144
0.0193894
0.0212129
0.0228916
0.0241826
0.0251892
0.00100138
0.00603067
0.00766219
0.00733311
0.00670865
0.00637236
0.00474547
0.005749
0.00634111
0.00763525
0.00912081
0.0108336
0.0127618
0.0146832
0.0174758
0.0191684
0.0208503
0.0224721
0.0237284
0.0246626
0.00106049
0.00602898
0.00764433
0.00732038
0.00672831
0.00634152
0.00486327
0.00574874
0.00642581
0.00770843
0.00912587
0.0108518
0.0126801
0.0145806
0.0173198
0.0189434
0.0204761
0.0220389
0.0232837
0.0241404
0.00112132
0.00602622
0.00762785
0.00730514
0.00674855
0.00631296
0.00497588
0.00575612
0.00650229
0.00778639
0.00912951
0.0108588
0.0126022
0.0144663
0.0171494
0.01871
0.0201018
0.0215982
0.0227992
0.0236206
0.00118402
0.00602212
0.00761287
0.00728749
0.00676903
0.00628712
0.00508312
0.00577026
0.00657236
0.00786689
0.00913236
0.0108562
0.0125274
0.0143349
0.0169669
0.0184803
0.0197117
0.0211138
0.0223335
0.0231323
0.00124889
0.00601634
0.00759963
0.00726717
0.0067894
0.00626478
0.00518416
0.00579198
0.00663567
0.00794896
0.0091382
0.0108363
0.0124573
0.0141943
0.0167652
0.0182411
0.0193358
0.0206242
0.021784
0.0226397
0.00131575
0.00600894
0.00758791
0.00724549
0.00680806
0.00624807
0.00527716
0.00582168
0.00669141
0.00803394
0.00914186
0.0108064
0.0123839
0.0140515
0.0165389
0.0179693
0.0189567
0.0201451
0.0212881
0.0221484
0.00138473
0.00599962
0.00757769
0.00722247
0.00682551
0.00623579
0.00536363
0.00585706
0.00674309
0.0081163
0.00914513
0.0107719
0.0123042
0.0138994
0.0162856
0.0176833
0.0185594
0.0196626
0.0208681
0.0216764
0.00145648
0.00598772
0.00756934
0.00719726
0.00684102
0.00622833
0.00544439
0.00589692
0.00679193
0.00819226
0.00915905
0.0107148
0.0122207
0.0137394
0.0160249
0.0173903
0.0181931
0.0191846
0.0202646
0.0211728
0.00153047
0.00597376
0.00756227
0.00717311
0.00685172
0.00622831
0.00551661
0.00594223
0.00683703
0.00826746
0.00916779
0.0106502
0.0121288
0.0135638
0.0157408
0.0170831
0.0178266
0.0187136
0.0197512
0.0206825
0.0016068
0.00595754
0.00755656
0.00715311
0.00685892
0.00623304
0.00558379
0.00598892
0.00688192
0.00833631
0.009174
0.0105835
0.0120247
0.0133744
0.0154305
0.0167583
0.0174381
0.0182519
0.0193688
0.0202173
0.0016866
0.00593765
0.00755237
0.00711381
0.00686248
0.00624138
0.00564926
0.00603367
0.00692957
0.00839239
0.00918787
0.0104936
0.0119123
0.0131992
0.0151281
0.0164245
0.0170685
0.0177806
0.018716
0.019703
0.00176882
0.00591573
0.00754796
0.00709333
0.00685939
0.00625621
0.00570836
0.00608184
0.00697386
0.00844763
0.00919576
0.0104004
0.011781
0.013
0.0148102
0.0160716
0.0166917
0.0173284
0.0182067
0.0192119
0.0018536
0.00589152
0.00754352
0.00707682
0.00685177
0.00627357
0.0057651
0.00612906
0.00701608
0.00850138
0.00920014
0.0102874
0.0116164
0.0127914
0.0144807
0.0157058
0.0162851
0.0168977
0.0178944
0.0187556
0.00194239
0.00586263
0.00753917
0.00705792
0.00684135
0.00628996
0.00582344
0.00617275
0.00705949
0.00854239
0.0092075
0.0101778
0.0114551
0.0125694
0.014169
0.0153373
0.0158922
0.016426
0.0171951
0.0182369
0.00203351
0.00583305
0.00753207
0.00704942
0.00682481
0.00631011
0.00587663
0.00622023
0.00709454
0.00857828
0.0092137
0.0100599
0.0112627
0.0123301
0.0138377
0.0149443
0.0154906
0.0159834
0.0166853
0.0177551
0.00212766
0.00580206
0.00752225
0.00704605
0.00680635
0.00632864
0.005929
0.00626792
0.0071234
0.00860474
0.00921255
0.0099435
0.011059
0.0120887
0.0134782
0.0145295
0.0150295
0.0155682
0.0164472
0.0173217
0.00222613
0.00576502
0.00750982
0.00704268
0.00678951
0.0063411
0.00598527
0.00631008
0.00715216
0.00861344
0.0092074
0.00981179
0.0108825
0.0118891
0.0131709
0.0141032
0.0145371
0.0150115
0.0157245
0.0168487
0.00232694
0.0057303
0.00749177
0.00704771
0.00677157
0.00635252
0.00603708
0.00635285
0.00717566
0.0086067
0.00919411
0.00969602
0.0106947
0.0116736
0.0128512
0.0136397
0.0140215
0.0144054
0.015117
0.016492
0.00243132
0.00569496
0.00746787
0.00705643
0.0067556
0.00636142
0.00608336
0.00639771
0.00719083
0.00858556
0.00917591
0.00958448
0.0104988
0.0114321
0.0124921
0.0132047
0.0135035
0.0138345
0.0146652
0.0161381
0.00253945
0.00565242
0.00743799
0.00706646
0.00674367
0.00636716
0.00612501
0.00643943
0.00720065
0.00855405
0.00914854
0.00947353
0.0102878
0.011161
0.0121442
0.0127972
0.0130009
0.0133435
0.014221
0.0156986
0.00265048
0.00561618
0.00740148
0.00707945
0.00673562
0.0063714
0.00616087
0.00647638
0.00720749
0.00851112
0.0091095
0.00936479
0.0100658
0.01088
0.0118
0.0123895
0.0125459
0.0128732
0.0137273
0.0152484
0.00276515
0.00558012
0.0073584
0.00709053
0.00673287
0.00637507
0.00619091
0.00650718
0.00720911
0.00845745
0.0090624
0.00924821
0.00984255
0.0105913
0.0114408
0.0120023
0.0121227
0.012386
0.0132272
0.0148251
0.00288303
0.00554468
0.00730914
0.00710017
0.00673455
0.00637827
0.00621572
0.00653091
0.00720538
0.00839599
0.00900225
0.00913314
0.00961535
0.0102942
0.0110814
0.0116177
0.0117067
0.0119166
0.0127545
0.014409
0.00300405
0.0055104
0.00725434
0.00710619
0.00673904
0.00638288
0.00623626
0.00654689
0.0071954
0.00832493
0.00893129
0.00900022
0.00938796
0.0099949
0.0107107
0.0112287
0.0113115
0.0114818
0.0122934
0.0139854
0.00312806
0.00547785
0.00719371
0.00710802
0.00674632
0.00638997
0.00625155
0.0065538
0.0071785
0.00824674
0.00884789
0.00888261
0.00915945
0.00968846
0.0103375
0.0108373
0.0109322
0.0110757
0.0118496
0.0135637
0.00325475
0.00544738
0.00712811
0.00710552
0.00675389
0.00639809
0.00626312
0.00655357
0.00715442
0.00816074
0.0087524
0.00876321
0.00893143
0.00937887
0.00996111
0.0104441
0.0105596
0.0106889
0.0114307
0.0131542
0.00338393
0.00541961
0.00705787
0.00709762
0.00675973
0.00640739
0.00627333
0.00654712
0.0071215
0.00806682
0.0086431
0.00864087
0.00870705
0.00906644
0.00958463
0.0100454
0.0101893
0.0103284
0.0110448
0.0127592
0.00351532
0.00539528
0.00698255
0.00708515
0.00676368
0.00641554
0.00628161
0.00653539
0.00708053
0.00796699
0.00852048
0.00851152
0.00849021
0.00875366
0.00920374
0.0096445
0.00982286
0.00998538
0.010685
0.0123815
0.00364781
0.00537498
0.00690309
0.00706814
0.00676496
0.00641928
0.00628744
0.00652043
0.00703254
0.00786212
0.00838502
0.00837276
0.00828017
0.00844213
0.00882179
0.00924205
0.00945635
0.00965396
0.0103529
0.0120262
0.0037814
0.00535915
0.00682103
0.0070453
0.0067624
0.00641852
0.00628919
0.00650297
0.00697874
0.00775275
0.00823861
0.00822064
0.00807677
0.00813767
0.00843913
0.00883651
0.00908879
0.00933174
0.0100413
0.0116912
0.00391608
0.00534837
0.00673746
0.00701541
0.00675676
0.00641302
0.00627968
0.00648281
0.00692088
0.00763911
0.0080846
0.00805471
0.00787717
0.00784593
0.00806
0.0084259
0.00871685
0.00901411
0.00974966
0.0113775
0.00404931
0.00534376
0.00665379
0.00697886
0.00674683
0.00639923
0.00626287
0.00646108
0.00685976
0.00752003
0.00792441
0.0078752
0.0076758
0.00756794
0.00768956
0.00801119
0.00833955
0.00869722
0.00946674
0.0110812
0.0041808
0.0053464
0.00656978
0.00693498
0.00673052
0.00637865
0.00623997
0.00643805
0.00679673
0.00739414
0.00776015
0.00768173
0.00746706
0.00730167
0.00733307
0.00759861
0.00795132
0.00837393
0.00919101
0.0107991
0.00431057
0.00535498
0.00648979
0.00688325
0.00670721
0.00635371
0.00621154
0.00641192
0.00673217
0.00726081
0.00759
0.00747803
0.00724537
0.00704274
0.00699586
0.00719152
0.00755348
0.00804157
0.00891208
0.0105251
0.00443712
0.00536962
0.00640921
0.00682196
0.00667876
0.00632703
0.00617642
0.00637878
0.0066648
0.00711849
0.00741458
0.00726903
0.00701384
0.00678756
0.00667644
0.00679921
0.00715177
0.00769269
0.0086218
0.0102567
0.00456016
0.0053901
0.0063301
0.0067529
0.00664701
0.00630007
0.00613296
0.00633409
0.00659433
0.00697021
0.00723457
0.00705939
0.0067725
0.00652875
0.00637255
0.00642609
0.00674902
0.00732738
0.00831704
0.0099877
0.00467937
0.00541492
0.00625315
0.00667825
0.00661208
0.00627185
0.00608081
0.00627585
0.00652119
0.0068192
0.00704857
0.00684923
0.00652303
0.00626318
0.00607899
0.00607256
0.00635321
0.00695121
0.00799469
0.00971228
0.00479409
0.00544356
0.00617982
0.00659849
0.00657227
0.00624174
0.0060217
0.00620369
0.00644377
0.00666699
0.00685449
0.00663975
0.00627142
0.00599038
0.0057886
0.00573721
0.00597119
0.00657065
0.00765601
0.00942656
0.00490395
0.00547534
0.00611097
0.00651404
0.00652604
0.00621017
0.00595877
0.00611721
0.00635841
0.00651492
0.00665257
0.00643009
0.0060214
0.00571115
0.00549562
0.00541568
0.00560572
0.00619263
0.00730703
0.00913057
0.00500856
0.00550954
0.00604728
0.00642579
0.00647277
0.00617673
0.00589403
0.00601675
0.00626121
0.00636361
0.00644417
0.00621795
0.00577567
0.00542899
0.00519832
0.00510256
0.0052567
0.00582338
0.00695514
0.00882703
0.0051076
0.00554554
0.00598916
0.00633466
0.0064119
0.00613997
0.00582876
0.00590434
0.00614976
0.00621251
0.00623131
0.00600188
0.00553495
0.00514811
0.00489636
0.00479085
0.00492135
0.00546756
0.00660792
0.00852047
0.00520083
0.00558254
0.00593696
0.00624179
0.00634275
0.00609788
0.00576425
0.00578358
0.00602224
0.00605969
0.00601631
0.00578011
0.00529729
0.00487156
0.00459262
0.00447735
0.00459599
0.00512643
0.0062703
0.00821499
0.00528815
0.00561969
0.00589073
0.00614831
0.00626523
0.00604903
0.00570062
0.00565775
0.00587808
0.00590243
0.00580071
0.00555173
0.00506164
0.00460043
0.00429058
0.00416216
0.00427591
0.00479763
0.00594445
0.0079141
0.00536938
0.00565629
0.00585039
0.00605524
0.00617983
0.00599203
0.0056366
0.00552988
0.00571883
0.005738
0.00558496
0.00531757
0.00482686
0.00433631
0.00399353
0.0038471
0.00395768
0.00447793
0.00562984
0.00761907
0.00544451
0.00569164
0.00581554
0.00596338
0.00608733
0.00592573
0.0055705
0.00540293
0.00554687
0.00556386
0.00536924
0.00507803
0.00459044
0.00407786
0.00370379
0.00353472
0.00364012
0.00416331
0.00532315
0.00732961
0.00551361
0.00572511
0.00578559
0.0058735
0.00598857
0.00584955
0.0055005
0.00527857
0.00536517
0.00537817
0.00515338
0.00483429
0.00435095
0.00382374
0.00342083
0.00322714
0.00332447
0.00385069
0.00502038
0.00704408
0.0055767
0.00575595
0.00575993
0.0057866
0.00588451
0.00576329
0.00542469
0.00515689
0.00517735
0.00518042
0.00493636
0.0045879
0.00410716
0.00357172
0.00314456
0.0029265
0.00301189
0.00353848
0.00471843
0.00676024
0.00563395
0.00578376
0.00573762
0.00570309
0.00577613
0.00566727
0.00534134
0.0050373
0.00498722
0.00497122
0.00471673
0.00433982
0.00385782
0.00332021
0.00287473
0.00263255
0.00270277
0.0032272
0.00441625
0.0064765
0.00568546
0.00580806
0.00571789
0.00562342
0.00566445
0.00556201
0.00524905
0.00491845
0.00479779
0.00475178
0.00449275
0.0040912
0.00360331
0.00306731
0.00260901
0.00234471
0.00239871
0.00291812
0.0041136
0.00619142
0.00573149
0.00582848
0.00569973
0.00554773
0.00555055
0.00544839
0.00514714
0.0047987
0.00461158
0.00452427
0.00426233
0.00384259
0.00334511
0.0028102
0.00234447
0.00206287
0.00210062
0.00261228
0.003811
0.00590435
0.00577206
0.00584492
0.00568226
0.00547589
0.00543555
0.00532744
0.0050353
0.00467569
0.00443001
0.00429214
0.00402387
0.00359346
0.00308495
0.00254793
0.00207899
0.00178546
0.0018081
0.00231039
0.00350917
0.00561539
0.0058074
0.00585717
0.00566444
0.00540773
0.00532075
0.00520046
0.00491396
0.00454715
0.00425229
0.00405917
0.00377757
0.00334177
0.00282362
0.00228229
0.00181088
0.00150958
0.00151985
0.0020128
0.00320965
0.00532567
0.00583778
0.00586532
0.00564546
0.00534262
0.005207
0.00506864
0.0047841
0.00441154
0.00407668
0.00382888
0.00352552
0.00308569
0.00256078
0.00201409
0.00153939
0.00123292
0.00123366
0.00171855
0.00291273
0.00503531
0.00586323
0.00586928
0.00562483
0.00528008
0.00509493
0.00493307
0.00464676
0.00426881
0.00390104
0.00360289
0.00327058
0.00282372
0.00229515
0.00174431
0.0012653
0.000954514
0.000947793
0.00142611
0.00261754
0.00474429
0.00588407
0.0058693
0.0056021
0.00521986
0.00498506
0.00479459
0.00450257
0.0041193
0.00372343
0.00338108
0.00301671
0.00255737
0.00202519
0.00147126
0.00098802
0.000673122
0.000660479
0.00113337
0.00232232
0.00445179
0.00589998
0.00586534
0.00557678
0.00516164
0.00487884
0.00465539
0.00435274
0.0039625
0.00354075
0.00315972
0.00276533
0.00229055
0.00175268
0.00119582
0.000708359
0.000388558
0.000370119
0.000837943
0.00202441
0.00415531
0.00591138
0.00585821
0.00554878
0.00510369
0.00477541
0.00451719
0.00420007
0.0038031
0.00335605
0.0029356
0.00251296
0.00202109
0.00147702
0.00091677
0.000425022
0.000100216
7.65096e-05
0.000539822
0.00172357
0.00385454
0.005916
0.00584811
0.00551969
0.00504735
0.00467436
0.00437752
0.0040407
0.00363986
0.00317432
0.00271648
0.00226339
0.00174906
0.00119334
0.000631456
0.000135376
-0.000195514
-0.00022431
0.000234902
0.00141537
0.00354478
0.0059182
0.00583472
0.00548821
0.00499306
0.00457992
0.00424232
0.00387509
0.00346237
0.00298671
0.00249913
0.00202154
0.00148803
0.000918598
0.000346027
-0.000158418
-0.000496922
-0.000532135
-7.76909e-05
0.00109952
0.00322585
0.0059159
0.00581904
0.00545591
0.00493917
0.0044889
0.00411405
0.00371289
0.00327827
0.0027879
0.00227028
0.00177173
0.00122594
0.000649313
6.44312e-05
-0.000454045
-0.000804956
-0.000850909
-0.000404424
0.000766446
0.00288859
0.00590574
0.00581057
0.00543101
0.0048944
0.00440623
0.00399118
0.00355501
0.00310112
0.00260229
0.0020472
0.00152376
0.000970888
0.000380339
-0.000214237
-0.000747659
-0.00111454
-0.00117705
-0.000745196
0.000416021
0.00253462
0.00589376
0.00574879
0.00537739
0.00484423
0.00432169
0.00386039
0.00338619
0.00291508
0.00242796
0.00184592
0.00125717
0.000698077
9.67326e-05
-0.000507577
-0.00104988
-0.00143181
-0.00151366
-0.00110277
3.92003e-05
0.00214218
0.00587597
0.0058226
0.00538347
0.00480458
0.00421656
0.00369612
0.00318353
0.00269274
0.00222867
0.00173802
0.00116151
0.000518787
-0.00011803
-0.000749634
-0.00131879
-0.00172479
-0.00183153
-0.00144609
-0.000330091
0.00174623
0.00579919
0.00565483
0.00539183
0.00488946
0.00425296
0.00359748
0.00301373
0.00245137
0.00188747
0.00130788
0.000758585
0.000180831
-0.00045177
-0.00108017
-0.00164242
-0.0020439
-0.00214462
-0.00175761
-0.000645952
0.00142177
0.00586049
0.00575801
0.00531283
0.00467363
0.0040073
0.00343317
0.00293144
0.00247552
0.00202681
0.00144443
0.000776315
9.80781e-05
-0.000588915
-0.00129567
-0.00197174
-0.00250049
-0.0027292
-0.00245964
-0.00144852
0.00053519
0.00579034
0.00569555
0.00524581
0.00472609
0.00410421
0.00335015
0.00262582
0.00196978
0.00140626
0.00090216
0.000371523
-0.000218432
-0.000803281
-0.00131175
-0.00173875
-0.00204967
-0.00215455
-0.00186237
-0.000920178
0.000938169
0.00589577
0.00567074
0.00521305
0.00455434
0.0038552
0.00329569
0.00279057
0.00235468
0.00181686
0.00126828
0.00050046
-0.00030401
-0.00117007
-0.0020885
-0.00298215
-0.00373946
-0.00419913
-0.004156
-0.0033491
-0.0015513
0.00611565
0.00554263
0.00500001
0.00432492
0.00368174
0.00296381
0.00232287
0.00175925
0.00121442
0.000560068
-3.74579e-05
-0.000570325
-0.000857983
-0.000805384
-0.000407741
0.000218457
0.000936659
0.00149409
0.0015388
0.000740569
0.00605956
0.00557456
0.00499232
0.00439087
0.00386821
0.00335993
0.00288134
0.00236733
0.00177687
0.00106903
0.000191461
-0.000856309
-0.00201541
-0.00321379
-0.00435423
-0.00538954
-0.00609842
-0.00631103
-0.00577405
-0.00424737
0.00622555
0.00552019
0.00488454
0.00424845
0.00372716
0.00309923
0.00239748
0.00156151
0.000808858
0.000254222
-0.000283583
-0.00092701
-0.00149487
-0.00183988
-0.00187671
-0.00156321
-0.00107935
-0.000678165
-0.000716637
-0.0015364
0.00620955
0.00549131
0.0048708
0.00431434
0.00396341
0.0036075
0.0032064
0.00268225
0.00202041
0.00109373
-0.00014411
-0.00173494
-0.00357302
-0.00547651
-0.00722435
-0.00862559
-0.00953905
-0.00977309
-0.0091065
-0.00735172
0.0468621
0.0213575
0.0103881
0.00831798
0.00767084
0.00657927
0.00577147
0.00557402
0.00527376
0.00466556
0.00407877
0.00363117
0.00323681
0.00277285
0.00232451
0.00200317
0.00168243
0.00129306
0.000926512
0.000617787
0.000274873
-7.4685e-05
-0.000375147
-0.000729525
-0.00125732
-0.00170295
-0.00203026
-0.00238402
-0.00273725
-0.00313212
-0.00365677
-0.00421101
-0.00465814
-0.00514339
-0.00568278
-0.00627643
-0.00682556
-0.00742252
-0.00802267
-0.00864925
-0.00932369
-0.009952
-0.0106932
-0.011336
-0.0121708
-0.0129585
-0.0138788
-0.0149494
-0.0159328
-0.0174549
0.0458857
0.0214054
0.0104386
0.00833861
0.00768136
0.00658624
0.00577659
0.00557811
0.0052771
0.00466818
0.00408083
0.00363284
0.00323822
0.00277404
0.0023255
0.00200401
0.0016832
0.00129378
0.000927172
0.000618406
0.000275459
-7.41487e-05
-0.000374655
-0.000729051
-0.00125687
-0.00170255
-0.00202989
-0.00238368
-0.00273694
-0.00313183
-0.0036565
-0.00421078
-0.00465793
-0.0051432
-0.0056826
-0.00627627
-0.00682541
-0.00742238
-0.00802253
-0.00864912
-0.00932357
-0.00995189
-0.0106931
-0.0113359
-0.0121707
-0.0129585
-0.0138787
-0.0149493
-0.0159328
-0.0174549
0.0450845
0.021511
0.0105158
0.00836483
0.0076934
0.00659309
0.00578129
0.00558203
0.00528035
0.00467065
0.00408273
0.00363439
0.00323953
0.00277513
0.00232638
0.00200477
0.00168389
0.0012944
0.000927743
0.000618949
0.000275975
-7.36793e-05
-0.000374217
-0.00072862
-0.00125649
-0.00170222
-0.00202957
-0.00238338
-0.00273667
-0.00313157
-0.00365626
-0.00421057
-0.00465774
-0.00514302
-0.00568243
-0.00627612
-0.00682527
-0.00742225
-0.00802241
-0.00864901
-0.00932346
-0.00995179
-0.010693
-0.0113358
-0.0121707
-0.0129584
-0.0138786
-0.0149493
-0.0159328
-0.0174548
0.0443677
0.0216392
0.0106209
0.00840363
0.007711
0.00660164
0.00578657
0.00558652
0.00528412
0.00467349
0.00408488
0.0036361
0.00324096
0.00277632
0.00232733
0.00200557
0.00168459
0.00129502
0.000928297
0.000619479
0.00027648
-7.3218e-05
-0.000373778
-0.000728182
-0.00125612
-0.0017019
-0.00202925
-0.00238308
-0.00273639
-0.0031313
-0.00365602
-0.00421037
-0.00465755
-0.00514284
-0.00568227
-0.00627597
-0.00682514
-0.00742213
-0.0080223
-0.0086489
-0.00932336
-0.0099517
-0.0106929
-0.0113358
-0.0121706
-0.0129583
-0.0138786
-0.0149492
-0.0159328
-0.0174548
0.0436443
0.0217676
0.0107462
0.00845548
0.00773626
0.00661345
0.00579327
0.00559213
0.00528892
0.00467722
0.00408772
0.0036383
0.00324274
0.00277779
0.00232851
0.00200654
0.00168538
0.00129567
0.000928875
0.000620024
0.000277001
-7.27329e-05
-0.000373308
-0.000727709
-0.00125573
-0.00170158
-0.00202891
-0.00238276
-0.0027361
-0.00313101
-0.00365577
-0.00421016
-0.00465735
-0.00514265
-0.0056821
-0.00627582
-0.00682499
-0.00742199
-0.00802217
-0.00864878
-0.00932325
-0.00995159
-0.0106928
-0.0113357
-0.0121705
-0.0129582
-0.0138785
-0.0149492
-0.0159328
-0.0174548
0.0429026
0.0218932
0.0108835
0.00851549
0.00776794
0.0066288
0.00580166
0.00559896
0.00529491
0.00468213
0.00409158
0.00364122
0.00324503
0.00277969
0.00233009
0.00200778
0.00168632
0.0012964
0.00092949
0.000620579
0.000277529
-7.22234e-05
-0.000372796
-0.000727192
-0.00125532
-0.00170126
-0.00202855
-0.00238243
-0.00273578
-0.0031307
-0.00365549
-0.00420994
-0.00465714
-0.00514244
-0.00568191
-0.00627566
-0.00682484
-0.00742185
-0.00802204
-0.00864866
-0.00932314
-0.00995149
-0.0106927
-0.0113356
-0.0121704
-0.0129582
-0.0138784
-0.0149491
-0.0159327
-0.0174548
0.0421495
0.0220157
0.0110273
0.00857886
0.00780328
0.00664693
0.00581156
0.00560685
0.005302
0.00468832
0.00409664
0.00364505
0.00324796
0.00278215
0.00233218
0.00200942
0.00168749
0.00129727
0.000930175
0.000621142
0.000278047
-7.16993e-05
-0.000372238
-0.000726616
-0.00125487
-0.00170092
-0.00202817
-0.00238207
-0.00273544
-0.00313035
-0.00365519
-0.0042097
-0.0046569
-0.0051422
-0.00568171
-0.00627549
-0.00682468
-0.0074217
-0.00802191
-0.00864853
-0.00932302
-0.00995138
-0.0106926
-0.0113355
-0.0121703
-0.0129581
-0.0138783
-0.014949
-0.0159327
-0.0174548
0.041391
0.0221329
0.011175
0.0086433
0.00784024
0.00666688
0.00582259
0.00561552
0.00530995
0.00469562
0.00410291
0.00364983
0.00325157
0.0027852
0.00233485
0.00201153
0.00168899
0.00129837
0.000930991
0.000621735
0.000278546
-7.11788e-05
-0.000371639
-0.000725961
-0.00125437
-0.00170055
-0.00202778
-0.00238171
-0.00273508
-0.00312998
-0.00365487
-0.00420943
-0.00465663
-0.00514194
-0.00568149
-0.0062753
-0.00682451
-0.00742154
-0.00802176
-0.00864839
-0.0093229
-0.00995126
-0.0106925
-0.0113354
-0.0121702
-0.012958
-0.0138782
-0.0149489
-0.0159327
-0.0174548
0.0406297
0.0222427
0.0113263
0.00870848
0.00787785
0.00668795
0.00583441
0.00562476
0.00531849
0.00470377
0.00411019
0.0036555
0.00325584
0.00278881
0.00233807
0.00201411
0.00169086
0.00129978
0.00093202
0.000622407
0.000279035
-7.06847e-05
-0.000371022
-0.000725219
-0.00125376
-0.00170011
-0.00202736
-0.00238134
-0.0027347
-0.00312958
-0.00365451
-0.00420913
-0.00465633
-0.00514165
-0.00568123
-0.00627508
-0.00682431
-0.00742136
-0.0080216
-0.00864824
-0.00932277
-0.00995113
-0.0106924
-0.0113352
-0.0121701
-0.0129578
-0.0138781
-0.0149487
-0.0159326
-0.0174547
0.0398668
0.0223441
0.0114816
0.00877466
0.00791566
0.0067097
0.00584677
0.00563446
0.00532749
0.00471249
0.0041182
0.00366187
0.00326065
0.00279289
0.00234174
0.00201708
0.00169308
0.00130154
0.000933342
0.000623229
0.000279554
-7.02293e-05
-0.000370434
-0.00072441
-0.00125301
-0.00169956
-0.0020269
-0.00238098
-0.00273433
-0.00312916
-0.00365411
-0.00420879
-0.00465599
-0.00514131
-0.00568094
-0.00627483
-0.00682408
-0.00742115
-0.00802142
-0.00864808
-0.00932263
-0.00995099
-0.0106922
-0.0113351
-0.01217
-0.0129577
-0.0138779
-0.0149485
-0.0159325
-0.0174547
0.0391035
0.0224369
0.0116418
0.00884198
0.00795323
0.00673176
0.00585951
0.00564455
0.00533686
0.0047216
0.00412671
0.00366876
0.00326587
0.0027973
0.00234573
0.00202032
0.00169555
0.00130364
0.000934998
0.000624266
0.000280164
-6.97978e-05
-0.000369929
-0.000723597
-0.00125212
-0.00169883
-0.00202634
-0.00238063
-0.00273399
-0.00312874
-0.00365369
-0.00420841
-0.00465561
-0.00514093
-0.0056806
-0.00627453
-0.00682381
-0.00742092
-0.00802122
-0.0086479
-0.00932247
-0.00995085
-0.0106921
-0.011335
-0.0121698
-0.0129576
-0.0138777
-0.0149483
-0.0159323
-0.0174547
0.038341
0.0225207
0.011807
0.00891034
0.00798995
0.00675371
0.00587237
0.00565491
0.00534652
0.00473095
0.0041355
0.00367598
0.0032714
0.00280196
0.00234992
0.0020237
0.00169817
0.001306
0.000936973
0.00062555
0.000280923
-6.93469e-05
-0.000369542
-0.000722867
-0.00125114
-0.00169787
-0.00202561
-0.00238027
-0.00273371
-0.00312835
-0.00365326
-0.004208
-0.00465518
-0.00514051
-0.0056802
-0.00627418
-0.0068235
-0.00742064
-0.00802098
-0.0086477
-0.0093223
-0.00995069
-0.010692
-0.0113348
-0.0121697
-0.0129574
-0.0138775
-0.014948
-0.0159321
-0.0174547
0.0375803
0.0225947
0.0119774
0.00897966
0.00802503
0.00677494
0.00588503
0.00566526
0.00535629
0.00474039
0.00414442
0.00368341
0.00327714
0.00280679
0.00235425
0.00202716
0.00170083
0.00130851
0.000939204
0.000627068
0.000281858
-6.88261e-05
-0.000369279
-0.00072231
-0.00125016
-0.00169668
-0.00202464
-0.00237985
-0.0027335
-0.00312804
-0.00365283
-0.00420754
-0.00465472
-0.00514005
-0.00567976
-0.00627376
-0.00682312
-0.00742031
-0.00802069
-0.00864745
-0.0093221
-0.00995052
-0.0106918
-0.0113346
-0.0121695
-0.0129572
-0.0138773
-0.0149476
-0.0159318
-0.0174546
0.0368222
0.0226581
0.0121527
0.00904989
0.00805768
0.00679477
0.00589709
0.00567522
0.00536587
0.00474976
0.00415334
0.00369096
0.00328304
0.00281175
0.0023587
0.00203069
0.00170349
0.00131105
0.000941602
0.000628776
0.000282956
-6.82053e-05
-0.000369119