/*--------------------------------*- C++ -*----------------------------------*\
| =========                 |                                                 |
| \\      /  F ield         | OpenFOAM: The Open Source CFD Toolbox           |
|  \\    /   O peration     | Version:  v2012                                 |
|   \\  /    A nd           | Website:  www.openfoam.com                      |
|    \\/     M anipulation  |                                                 |
\*---------------------------------------------------------------------------*/
FoamFile
{
    version     2.0;
    format      ascii;
    class       surfaceScalarField;
    location    "6.1";
    object      phi;
}
// * * * * * * * * * * * * * * * * * * * * * * * * * * * * * * * * * * * * * //

dimensions      [0 3 -1 0 0 0 0];
oriented        oriented;


internalField   nonuniform List<scalar> 
13830
(
9.43612e-07
-1.76156e-06
1.03308e-06
1.5183e-06
9.73761e-07
1.07341e-06
9.16262e-07
2.33623e-07
9.2544e-07
-2.37049e-06
9.35033e-07
-2.56466e-06
1.0316e-06
-1.40368e-06
9.84218e-07
-6.35357e-07
9.99333e-07
-1.70918e-08
1.04999e-06
5.91699e-07
1.02218e-06
1.79655e-07
1.04364e-06
5.06618e-07
1.04395e-06
1.07754e-07
1.04251e-06
1.48843e-08
1.04422e-06
1.48858e-07
1.02031e-06
-1.29591e-07
1.02324e-06
1.112e-07
9.92691e-07
-1.69639e-07
9.9382e-07
-1.75884e-08
-1.93435e-07
9.57009e-07
9.87164e-07
-1.7762e-06
1.08307e-06
1.42239e-06
1.01468e-06
1.14181e-06
9.63208e-07
2.85091e-07
9.50457e-07
-2.35774e-06
9.51793e-07
-2.566e-06
1.06107e-06
-1.51296e-06
1.01939e-06
-5.93672e-07
1.03725e-06
-3.49506e-08
1.09442e-06
5.34526e-07
1.0644e-06
2.09679e-07
1.0908e-06
4.80215e-07
1.0844e-06
1.14153e-07
1.09205e-06
7.23723e-09
1.07946e-06
1.6145e-07
1.06834e-06
-1.18478e-07
1.05387e-06
1.25674e-07
1.03723e-06
-1.52995e-07
1.02065e-06
-1.0157e-09
-1.74774e-07
1.00199e-06
1.03051e-06
-1.79725e-06
1.13792e-06
1.31498e-06
1.06582e-06
1.21391e-06
1.00845e-06
3.42463e-07
9.76983e-07
-2.32627e-06
9.78501e-07
-2.56752e-06
1.08632e-06
-1.62077e-06
1.06158e-06
-5.68933e-07
1.07405e-06
-4.74194e-08
1.13948e-06
4.69086e-07
1.11002e-06
2.39144e-07
1.13566e-06
4.54575e-07
1.12751e-06
1.22299e-07
1.1388e-06
-4.05389e-09
1.12143e-06
1.78824e-07
1.11296e-06
-1.10006e-07
1.09431e-06
1.44327e-07
1.0788e-06
-1.37492e-07
1.05985e-06
1.7942e-08
-1.5693e-07
1.042e-06
1.07284e-06
-1.82231e-06
1.18976e-06
1.19805e-06
1.12061e-06
1.28306e-06
1.05508e-06
4.07995e-07
1.00671e-06
-2.2779e-06
1.01073e-06
-2.57154e-06
1.10768e-06
-1.71772e-06
1.1055e-06
-5.66758e-07
1.11516e-06
-5.70776e-08
1.18061e-06
4.03636e-07
1.16159e-06
2.58171e-07
1.18003e-06
4.36135e-07
1.17505e-06
1.27275e-07
1.1845e-06
-1.34982e-08
1.16595e-06
1.97366e-07
1.15465e-06
-9.86998e-08
1.13489e-06
1.64081e-07
1.11648e-06
-1.19082e-07
1.09753e-06
3.68932e-08
-1.37127e-07
1.07773e-06
1.11429e-06
-1.84905e-06
1.23359e-06
1.07875e-06
1.17286e-06
1.34379e-06
1.10188e-06
4.78982e-07
1.04241e-06
-2.21843e-06
1.04723e-06
-2.57637e-06
1.12779e-06
-1.79827e-06
1.14728e-06
-5.86253e-07
1.16172e-06
-7.15164e-08
1.22278e-06
3.42578e-07
1.21832e-06
2.62631e-07
1.23007e-06
4.24382e-07
1.22658e-06
1.30767e-07
1.23232e-06
-1.92447e-08
1.21163e-06
2.18062e-07
1.19559e-06
-8.26604e-08
1.1753e-06
1.84371e-07
1.15339e-06
-9.71707e-08
1.13481e-06
5.54707e-08
-1.1551e-07
1.11319e-06
1.15519e-06
-1.8754e-06
1.26844e-06
9.655e-07
1.21951e-06
1.39272e-06
1.14883e-06
5.49658e-07
1.08459e-06
-2.15418e-06
1.0864e-06
-2.57817e-06
1.15061e-06
-1.86249e-06
1.18707e-06
-6.2271e-07
1.21213e-06
-9.65759e-08
1.27032e-06
2.84382e-07
1.27821e-06
2.5475e-07
1.28625e-06
4.1634e-07
1.28056e-06
1.36457e-07
1.28193e-06
-2.06162e-08
1.25783e-06
2.42162e-07
1.23681e-06
-6.16348e-08
1.21598e-06
2.052e-07
1.19122e-06
-7.24169e-08
1.17274e-06
7.39518e-08
-9.28098e-08
1.15004e-06
1.19557e-06
-1.89927e-06
1.29581e-06
8.65251e-07
1.26028e-06
1.42826e-06
1.19636e-06
6.13574e-07
1.13195e-06
-2.08977e-06
1.12775e-06
-2.57397e-06
1.17907e-06
-1.91381e-06
1.22711e-06
-6.70752e-07
1.26386e-06
-1.33322e-07
1.32311e-06
2.25134e-07
1.33919e-06
2.38661e-07
1.3455e-06
4.10036e-07
1.33508e-06
1.46875e-07
1.33165e-06
-1.71823e-08
1.30379e-06
2.70015e-07
1.27832e-06
-3.61584e-08
1.257e-06
2.2652e-07
1.23038e-06
-4.58046e-08
1.21187e-06
9.24698e-08
-6.96652e-08
1.18872e-06
1.23539e-06
-1.91848e-06
1.31855e-06
7.82098e-07
1.29675e-06
1.45005e-06
1.24491e-06
6.65421e-07
1.18268e-06
-2.02755e-06
1.17167e-06
-2.56296e-06
1.21376e-06
-1.9559e-06
1.26889e-06
-7.25882e-07
1.31518e-06
-1.7961e-07
1.37817e-06
1.62146e-07
1.3993e-06
2.17527e-07
1.40454e-06
4.048e-07
1.3885e-06
1.62915e-07
1.38e-06
-8.68816e-09
1.34887e-06
3.01153e-07
1.31987e-06
-7.16493e-09
1.29831e-06
2.4808e-07
1.27072e-06
-1.82106e-08
1.25234e-06
1.10849e-07
-4.64942e-08
1.22917e-06
1.27499e-06
-1.93111e-06
1.34003e-06
7.17055e-07
1.33151e-06
1.45857e-06
1.29482e-06
7.02114e-07
1.23552e-06
-1.96825e-06
1.21873e-06
-2.54617e-06
1.25357e-06
-1.99074e-06
1.31222e-06
-7.84531e-07
1.36516e-06
-2.3255e-07
1.43212e-06
9.51913e-08
1.45642e-06
1.93227e-07
1.46089e-06
4.00323e-07
1.43956e-06
1.84245e-07
1.42604e-06
4.83624e-09
1.39261e-06
3.34576e-07
1.36131e-06
2.41345e-08
1.33992e-06
2.69474e-07
1.31201e-06
9.70463e-09
1.29414e-06
1.28711e-07
-2.35999e-08
1.27125e-06
1.31513e-06
-1.93596e-06
1.3636e-06
6.6859e-07
1.36726e-06
1.4549e-06
1.3463e-06
7.23076e-07
1.28988e-06
-1.91183e-06
1.26925e-06
-2.52554e-06
1.29689e-06
-2.01838e-06
1.35592e-06
-8.43559e-07
1.41293e-06
-2.89561e-07
1.48217e-06
2.59551e-08
1.50843e-06
1.66958e-07
1.51276e-06
3.96e-07
1.48727e-06
2.09735e-07
1.46916e-06
2.29457e-08
1.4348e-06
3.68936e-07
1.4026e-06
5.6328e-08
1.3819e-06
2.90177e-07
1.35418e-06
3.74216e-08
1.33728e-06
1.45614e-07
-1.29628e-09
1.31498e-06
1.35695e-06
-1.93289e-06
1.39195e-06
6.3359e-07
1.40611e-06
1.44075e-06
1.39938e-06
7.29807e-07
1.34561e-06
-1.85807e-06
1.32312e-06
-2.50305e-06
1.34241e-06
-2.03767e-06
1.39886e-06
-9.0001e-07
1.45755e-06
-3.48251e-07
1.52641e-06
-4.29043e-08
1.5537e-06
1.39668e-07
1.55885e-06
3.90847e-07
1.5308e-06
2.37791e-07
1.50904e-06
4.47016e-08
1.47539e-06
4.02593e-07
1.44375e-06
8.7962e-08
1.42437e-06
3.0956e-07
1.39734e-06
6.44525e-08
1.38185e-06
1.61098e-07
2.00317e-08
1.36053e-06
1.40155e-06
-1.9228e-06
1.42674e-06
6.08406e-07
1.44913e-06
1.41835e-06
1.45386e-06
7.25085e-07
1.40265e-06
-1.80686e-06
1.37995e-06
-2.48035e-06
1.38938e-06
-2.0471e-06
1.44066e-06
-9.51296e-07
1.49849e-06
-4.06072e-07
1.56399e-06
-1.08413e-07
1.59146e-06
1.12206e-07
1.59856e-06
3.8374e-07
1.5697e-06
2.66655e-07
1.54569e-06
6.87136e-08
1.51462e-06
4.33663e-07
1.48481e-06
1.17773e-07
1.46746e-06
3.26906e-07
1.44168e-06
9.02331e-08
1.42804e-06
1.74735e-07
3.99341e-08
1.40814e-06
1.44972e-06
-1.90727e-06
1.46843e-06
5.89704e-07
1.4965e-06
1.39028e-06
1.50946e-06
7.12124e-07
1.46101e-06
-1.75841e-06
1.43912e-06
-2.45847e-06
1.43758e-06
-2.04556e-06
1.48185e-06
-9.95565e-07
1.536e-06
-4.60226e-07
1.59532e-06
-1.67733e-07
1.62214e-06
8.53843e-08
1.63213e-06
3.73749e-07
1.60413e-06
2.94655e-07
1.57953e-06
9.33164e-08
1.55304e-06
4.60155e-07
1.52592e-06
1.44887e-07
1.51136e-06
3.41467e-07
1.48751e-06
1.14085e-07
1.47608e-06
1.86172e-07
5.79566e-08
1.45805e-06
1.50174e-06
-1.88814e-06
1.51651e-06
5.74934e-07
1.54779e-06
1.359e-06
1.566e-06
6.93917e-07
1.52072e-06
-1.71312e-06
1.49997e-06
-2.43772e-06
1.48727e-06
-2.03286e-06
1.52364e-06
-1.03193e-06
1.57127e-06
-5.0786e-07
1.62214e-06
-2.186e-07
1.64748e-06
6.00429e-08
1.6608e-06
3.60429e-07
1.63511e-06
3.20341e-07
1.61157e-06
1.16856e-07
1.59147e-06
4.80256e-07
1.56749e-06
1.68867e-07
1.55639e-06
3.52571e-07
1.5352e-06
1.35272e-07
1.52618e-06
1.95192e-07
7.37246e-08
1.51041e-06
1.55744e-06
-1.86697e-06
1.56992e-06
5.62445e-07
1.60244e-06
1.32648e-06
1.62352e-06
6.72833e-07
1.58186e-06
-1.67146e-06
1.56187e-06
-2.41773e-06
1.53909e-06
-2.01008e-06
1.56754e-06
-1.06039e-06
1.60615e-06
-5.46471e-07
1.64731e-06
-2.59752e-07
1.67024e-06
3.71038e-08
1.68669e-06
3.43984e-07
1.66451e-06
3.42518e-07
1.64336e-06
1.38007e-07
1.63091e-06
4.92711e-07
1.61019e-06
1.89586e-07
1.60301e-06
3.59751e-07
1.58512e-06
1.53161e-07
1.57857e-06
2.01743e-07
8.70337e-08
1.56526e-06
1.61639e-06
-1.84481e-06
1.6275e-06
5.5133e-07
1.65998e-06
1.29401e-06
1.68233e-06
6.50482e-07
1.64451e-06
-1.63364e-06
1.62447e-06
-2.39769e-06
1.59377e-06
-1.97937e-06
1.61491e-06
-1.08153e-06
1.64284e-06
-5.74407e-07
1.67425e-06
-2.91163e-07
1.69383e-06
1.7532e-08
1.71256e-06
3.25249e-07
1.69485e-06
3.60229e-07
1.67685e-06
1.56007e-07
1.67238e-06
4.97182e-07
1.65495e-06
2.07012e-07
1.65186e-06
3.62846e-07
1.63762e-06
1.67401e-07
1.63344e-06
2.05922e-07
9.78963e-08
1.62258e-06
1.67817e-06
-1.82224e-06
1.68835e-06
5.41156e-07
1.72016e-06
1.2622e-06
1.74287e-06
6.27771e-07
1.70875e-06
-1.59952e-06
1.68777e-06
-2.37672e-06
1.65185e-06
-1.94345e-06
1.6666e-06
-1.09628e-06
1.68345e-06
-5.91259e-07
1.70621e-06
-3.13927e-07
1.7216e-06
2.13885e-09
1.74138e-06
3.05473e-07
1.72883e-06
3.72783e-07
1.71411e-06
1.70721e-07
1.71695e-06
4.9434e-07
1.70286e-06
2.21111e-07
1.70369e-06
3.62012e-07
1.69301e-06
1.78077e-07
1.69102e-06
2.07916e-07
1.06538e-07
1.68238e-06
1.7425e-06
-1.79943e-06
1.75194e-06
5.31716e-07
1.78291e-06
1.23124e-06
1.8056e-06
6.05075e-07
1.77466e-06
-1.56858e-06
1.75214e-06
-2.35419e-06
1.71349e-06
-1.9048e-06
1.72293e-06
-1.10572e-06
1.72958e-06
-5.97913e-07
1.74548e-06
-3.2982e-07
1.75633e-06
-8.71016e-09
1.7758e-06
2.85998e-07
1.76875e-06
3.79836e-07
1.75693e-06
1.82536e-07
1.76566e-06
4.8561e-07
1.75488e-06
2.31899e-07
1.75917e-06
3.57715e-07
1.75161e-06
1.85639e-07
1.75153e-06
2.08001e-07
1.13314e-07
1.74475e-06
1.80927e-06
-1.77636e-06
1.81813e-06
5.22853e-07
1.84827e-06
1.20109e-06
1.87091e-06
5.82438e-07
1.84236e-06
-1.54003e-06
1.81808e-06
-2.3299e-06
1.77856e-06
-1.86529e-06
1.78384e-06
-1.111e-06
1.78215e-06
-5.96215e-07
1.79307e-06
-3.40746e-07
1.79967e-06
-1.53054e-08
1.8177e-06
2.67968e-07
1.81604e-06
3.81496e-07
1.8065e-06
1.92076e-07
1.81939e-06
4.72718e-07
1.81171e-06
2.39578e-07
1.81879e-06
3.50638e-07
1.81367e-06
1.90756e-07
1.81514e-06
2.06527e-07
1.18616e-07
1.80984e-06
1.87848e-06
-1.75293e-06
1.88695e-06
5.14383e-07
1.91636e-06
1.17168e-06
1.93906e-06
5.59732e-07
1.91202e-06
-1.51299e-06
1.88613e-06
-2.30401e-06
1.84679e-06
-1.82594e-06
1.84907e-06
-1.11328e-06
1.84131e-06
-5.88449e-07
1.84884e-06
-3.48284e-07
1.85211e-06
-1.85683e-08
1.8679e-06
2.52177e-07
1.87114e-06
3.78256e-07
1.86323e-06
1.99983e-07
1.87865e-06
4.57302e-07
1.87367e-06
2.44558e-07
1.88272e-06
3.41581e-07
1.87935e-06
1.94126e-07
1.88199e-06
2.0389e-07
1.22798e-07
1.87781e-06
1.95021e-06
-1.72904e-06
1.95851e-06
5.06087e-07
1.98728e-06
1.14291e-06
2.01024e-06
5.36768e-07
1.98387e-06
-1.48662e-06
1.95672e-06
-2.27686e-06
1.91796e-06
-1.78718e-06
1.9183e-06
-1.11362e-06
1.90671e-06
-5.76864e-07
1.9119e-06
-3.53467e-07
1.91314e-06
-1.98171e-08
1.92626e-06
2.39058e-07
1.93366e-06
3.70855e-07
1.92685e-06
2.06793e-07
1.9435e-06
4.40657e-07
1.94066e-06
2.47398e-07
1.95092e-06
3.31322e-07
1.9487e-06
1.96345e-07
1.9521e-06
2.0049e-07
1.2614e-07
1.94876e-06
2.02459e-06
-1.70459e-06
2.03295e-06
4.97731e-07
2.06114e-06
1.11472e-06
2.08457e-06
5.13338e-07
2.05817e-06
-1.46022e-06
2.0301e-06
-2.24879e-06
1.99197e-06
-1.74904e-06
1.99121e-06
-1.11287e-06
1.97776e-06
-5.63409e-07
1.98107e-06
-3.56785e-07
1.9817e-06
-2.04385e-08
1.99207e-06
2.28683e-07
2.00274e-06
3.6019e-07
1.99666e-06
2.12872e-07
2.0136e-06
4.23713e-07
2.01234e-06
2.48655e-07
2.02317e-06
3.20499e-07
2.02164e-06
1.97867e-07
2.02545e-06
1.96682e-07
1.28834e-07
2.02276e-06
2.10172e-06
-1.67947e-06
2.11036e-06
4.89091e-07
2.13805e-06
1.08703e-06
2.16214e-06
4.89245e-07
2.13517e-06
-1.43325e-06
2.10646e-06
-2.22008e-06
2.06884e-06
-1.71142e-06
2.06752e-06
-1.11155e-06
2.05376e-06
-5.49644e-07
2.05529e-06
-3.58315e-07
2.05641e-06
-2.15612e-08
2.06426e-06
2.20838e-07
2.0773e-06
3.47143e-07
2.07179e-06
2.18381e-07
2.08842e-06
4.07092e-07
2.08828e-06
2.48793e-07
2.09921e-06
3.09568e-07
2.0981e-06
1.9897e-07
2.10203e-06
1.92756e-07
1.30999e-07
2.09987e-06
2.18173e-06
-1.65362e-06
2.19084e-06
4.79985e-07
2.21806e-06
1.05982e-06
2.24299e-06
4.64307e-07
2.21511e-06
-1.40536e-06
2.1859e-06
-2.19087e-06
2.14865e-06
-1.67417e-06
2.147e-06
-1.1099e-06
2.13411e-06
-5.36754e-07
2.13368e-06
-3.5789e-07
2.13608e-06
-2.39548e-08
2.14179e-06
2.15129e-07
2.15642e-06
3.32508e-07
2.1515e-06
2.233e-07
2.16741e-06
3.91182e-07
2.16805e-06
2.48155e-07
2.17883e-06
2.98793e-07
2.17797e-06
1.99827e-07
2.18183e-06
1.88895e-07
1.32702e-07
2.18013e-06
2.26476e-06
-1.62699e-06
2.27447e-06
4.70273e-07
2.30122e-06
1.03307e-06
2.32716e-06
4.38367e-07
2.29818e-06
-1.37638e-06
2.26851e-06
-2.1612e-06
2.23157e-06
-1.63723e-06
2.22946e-06
-1.10779e-06
2.2183e-06
-5.25595e-07
2.21568e-06
-3.55274e-07
2.21978e-06
-2.80585e-08
2.22383e-06
2.11083e-07
2.23936e-06
3.16976e-07
2.2352e-06
2.27464e-07
2.25016e-06
3.76218e-07
2.25137e-06
2.46948e-07
2.26184e-06
2.8832e-07
2.26115e-06
2.00516e-07
2.26488e-06
1.85166e-07
1.33985e-07
2.2636e-06
2.35095e-06
-1.59955e-06
2.36136e-06
4.59859e-07
2.38758e-06
1.00685e-06
2.41464e-06
4.11303e-07
2.38455e-06
-1.34629e-06
2.35436e-06
-2.13101e-06
2.31775e-06
-1.60062e-06
2.31483e-06
-1.10487e-06
2.30594e-06
-5.16708e-07
2.30105e-06
-3.5038e-07
2.30693e-06
-3.39409e-08
2.30982e-06
2.0819e-07
2.32565e-06
3.01154e-07
2.32251e-06
2.30604e-07
2.3364e-06
3.62323e-07
2.33806e-06
2.45286e-07
2.34805e-06
2.78329e-07
2.34742e-06
2.0115e-07
2.35129e-06
1.81296e-07
1.3491e-07
2.35036e-06
2.44042e-06
-1.57129e-06
2.45161e-06
4.48663e-07
2.47723e-06
9.8124e-07
2.50549e-06
3.83038e-07
2.47437e-06
-1.31517e-06
2.44354e-06
-2.10018e-06
2.40737e-06
-1.56445e-06
2.40315e-06
-1.10065e-06
2.39678e-06
-5.10338e-07
2.38973e-06
-3.43327e-07
2.39718e-06
-4.13888e-08
2.39945e-06
2.0592e-07
2.41503e-06
2.85569e-07
2.4132e-06
2.32435e-07
2.42599e-06
3.49534e-07
2.42817e-06
2.43111e-07
2.43679e-06
2.69707e-07
2.4364e-06
2.01544e-07
2.44112e-06
1.76569e-07
1.35549e-07
2.44049e-06
2.5333e-06
-1.54219e-06
2.54536e-06
4.36606e-07
2.57027e-06
9.5633e-07
2.59975e-06
3.53556e-07
2.56779e-06
-1.28321e-06
2.5361e-06
-2.06849e-06
2.5006e-06
-1.52895e-06
2.49453e-06
-1.09458e-06
2.49072e-06
-5.06521e-07
2.48177e-06
-3.34378e-07
2.49045e-06
-5.00704e-08
2.49258e-06
2.03793e-07
2.50755e-06
2.70593e-07
2.50717e-06
2.3282e-07
2.51892e-06
3.37784e-07
2.52177e-06
2.40258e-07
2.53409e-06
2.57382e-07
2.53666e-06
1.98973e-07
2.53444e-06
1.78796e-07
1.35988e-07
2.534e-06
2.62972e-06
-1.51223e-06
2.64273e-06
4.23594e-07
2.66686e-06
9.32207e-07
2.6975e-06
3.22914e-07
2.66496e-06
-1.25067e-06
2.63213e-06
-2.03566e-06
2.59759e-06
-1.49442e-06
2.58915e-06
-1.08614e-06
2.58775e-06
-5.05121e-07
2.57727e-06
-3.23896e-07
2.58682e-06
-5.96158e-08
2.58926e-06
2.01348e-07
2.60331e-06
2.56548e-07
2.60444e-06
2.3169e-07
2.61582e-06
3.26398e-07
2.61672e-06
2.39366e-07
2.62472e-06
2.49374e-07
2.62552e-06
1.98178e-07
2.63106e-06
1.7326e-07
1.35888e-07
2.63116e-06
2.7298e-06
-1.48138e-06
2.74388e-06
4.09516e-07
2.76717e-06
9.0892e-07
2.79883e-06
2.9125e-07
2.766e-06
-1.21784e-06
2.73174e-06
-2.0014e-06
2.69844e-06
-1.46111e-06
2.68728e-06
-1.07499e-06
2.68797e-06
-5.05811e-07
2.67649e-06
-3.12412e-07
2.68633e-06
-6.94587e-08
2.68979e-06
1.97892e-07
2.70234e-06
2.43991e-07
2.70536e-06
2.28672e-07
2.71632e-06
3.15444e-07
2.71625e-06
2.39431e-07
2.72301e-06
2.42612e-07
2.72434e-06
1.96853e-07
2.73162e-06
1.65977e-07
1.35686e-07
2.73182e-06
2.83368e-06
-1.4496e-06
2.84894e-06
3.94253e-07
2.8714e-06
8.86458e-07
2.90386e-06
2.58788e-07
2.87107e-06
-1.18504e-06
2.83505e-06
-1.96538e-06
2.80321e-06
-1.42928e-06
2.78919e-06
-1.06096e-06
2.79152e-06
-5.08144e-07
2.77964e-06
-3.00529e-07
2.78915e-06
-7.89677e-08
2.79439e-06
1.92653e-07
2.80486e-06
2.33515e-07
2.81001e-06
2.23518e-07
2.82176e-06
3.03697e-07
2.82864e-06
2.32552e-07
2.84012e-06
2.31134e-07
2.84369e-06
1.93279e-07
2.83649e-06
1.73182e-07
1.36216e-07
2.83596e-06
2.94148e-06
-1.41683e-06
2.95803e-06
3.77696e-07
2.97974e-06
8.64752e-07
3.01271e-06
2.25818e-07
2.98027e-06
-1.15261e-06
2.94216e-06
-1.92727e-06
2.91196e-06
-1.39907e-06
2.8951e-06
-1.0441e-06
2.89866e-06
-5.11706e-07
2.88682e-06
-2.88692e-07
2.8956e-06
-8.77429e-08
2.90303e-06
1.85217e-07
2.91147e-06
2.25073e-07
2.91847e-06
2.16522e-07
2.92564e-06
2.96526e-07
2.92707e-06
2.31123e-07
2.93082e-06
2.27381e-07
2.93341e-06
1.90689e-07
2.94432e-06
1.62281e-07
1.36054e-07
2.94448e-06
3.05336e-06
-1.38303e-06
3.07129e-06
3.59761e-07
3.09237e-06
8.43675e-07
3.12551e-06
1.92672e-07
3.09374e-06
-1.12083e-06
3.05324e-06
-1.88676e-06
3.02473e-06
-1.37057e-06
3.00525e-06
-1.02463e-06
3.0096e-06
-5.1605e-07
2.99817e-06
-2.77264e-07
3.00608e-06
-9.565e-08
3.01536e-06
1.75931e-07
3.02287e-06
2.17568e-07
3.03108e-06
2.0831e-07
3.04391e-06
2.83691e-07
3.05346e-06
2.2158e-07
3.06356e-06
2.17277e-07
3.06726e-06
1.8699e-07
3.05696e-06
1.72582e-07
1.36591e-07
3.05642e-06
3.16949e-06
-1.34816e-06
3.18884e-06
3.40412e-07
3.20947e-06
8.23046e-07
3.24241e-06
1.59727e-07
3.21163e-06
-1.09005e-06
3.16853e-06
-1.84366e-06
3.14169e-06
-1.34373e-06
3.1198e-06
-1.00273e-06
3.1247e-06
-5.20948e-07
3.11369e-06
-2.66257e-07
3.12119e-06
-1.03147e-07
3.13066e-06
1.66458e-07
3.14023e-06
2.07999e-07
3.14719e-06
2.01348e-07
3.16034e-06
2.70542e-07
3.15392e-06
2.27996e-07
3.15739e-06
2.13814e-07
3.1615e-06
1.82877e-07
3.17174e-06
1.62341e-07
1.34932e-07
3.1734e-06
3.29005e-06
-1.3122e-06
3.3108e-06
3.19659e-07
3.33116e-06
8.02686e-07
3.36358e-06
1.2731e-07
3.33403e-06
-1.0605e-06
3.28838e-06
-1.79801e-06
3.26287e-06
-1.31822e-06
3.2392e-06
-9.79062e-07
3.24385e-06
-5.25604e-07
3.23423e-06
-2.56631e-07
3.24021e-06
-1.09128e-07
3.25139e-06
1.5528e-07
3.26034e-06
1.99041e-07
3.2613e-06
2.00395e-07
3.27022e-06
2.61618e-07
3.27253e-06
2.25693e-07
3.27643e-06
2.0991e-07
3.28035e-06
1.78957e-07
3.29231e-06
1.50381e-07
1.3312e-07
3.29412e-06
3.41524e-06
-1.27516e-06
3.43733e-06
2.97572e-07
3.45762e-06
7.82396e-07
3.48917e-06
9.57553e-08
3.46108e-06
-1.03241e-06
3.41311e-06
-1.75004e-06
3.38835e-06
-1.29345e-06
3.36382e-06
-9.54535e-07
3.36713e-06
-5.28921e-07
3.36044e-06
-2.49933e-07
3.36289e-06
-1.11577e-07
3.37734e-06
1.40823e-07
3.3818e-06
1.94583e-07
3.39766e-06
1.84538e-07
3.411e-06
2.48274e-07
3.42182e-06
2.14878e-07
3.43078e-06
2.00948e-07
3.43304e-06
1.76695e-07
3.41916e-06
1.64255e-07
1.33862e-07
3.41842e-06
3.54527e-06
-1.23707e-06
3.56857e-06
2.74264e-07
3.58901e-06
7.61957e-07
3.6193e-06
6.54716e-08
3.59306e-06
-1.00617e-06
3.54263e-06
-1.69961e-06
3.5188e-06
-1.26962e-06
3.49306e-06
-9.28799e-07
3.49596e-06
-5.31816e-07
3.48956e-06
-2.43541e-07
3.4934e-06
-1.15408e-07
3.50507e-06
1.29152e-07
3.51372e-06
1.85925e-07
3.5152e-06
1.83066e-07
3.52382e-06
2.39653e-07
3.5243e-06
2.14398e-07
3.52849e-06
1.96754e-07
3.53367e-06
1.71516e-07
3.54619e-06
1.51739e-07
1.30865e-07
3.54919e-06
3.68032e-06
-1.19801e-06
3.70473e-06
2.49855e-07
3.72546e-06
7.41226e-07
3.75418e-06
3.67462e-08
3.72988e-06
-9.81867e-07
3.67746e-06
-1.64719e-06
3.65392e-06
-1.24608e-06
3.62798e-06
-9.02865e-07
3.62932e-06
-5.33151e-07
3.62486e-06
-2.39081e-07
3.62767e-06
-1.18224e-07
3.6398e-06
1.17026e-07
3.65074e-06
1.74982e-07
3.64874e-06
1.85066e-07
3.65706e-06
2.31329e-07
3.65803e-06
2.13433e-07
3.66134e-06
1.93442e-07
3.66635e-06
1.66507e-07
3.68071e-06
1.37377e-07
1.27748e-07
3.68383e-06
3.82061e-06
-1.15803e-06
3.84597e-06
2.24498e-07
3.86716e-06
7.20038e-07
3.89404e-06
9.86563e-09
3.87148e-06
-9.59304e-07
3.81791e-06
-1.59362e-06
3.79354e-06
-1.22171e-06
3.76929e-06
-8.7861e-07
3.76685e-06
-5.30715e-07
3.7673e-06
-2.39529e-07
3.7626e-06
-1.13521e-07
3.78021e-06
9.94098e-08
3.78271e-06
1.72481e-07
3.80537e-06
1.62411e-07
3.81987e-06
2.16829e-07
3.83268e-06
2.00624e-07
3.84049e-06
1.85628e-07
3.84083e-06
1.66168e-07
3.82369e-06
1.54514e-07
1.29419e-07
3.82202e-06
3.96637e-06
-1.11725e-06
3.99249e-06
1.98382e-07
4.01441e-06
6.98122e-07
4.03885e-06
-1.45785e-08
4.01849e-06
-9.38941e-07
3.96339e-06
-1.53853e-06
3.93951e-06
-1.19783e-06
3.91408e-06
-8.53179e-07
3.91296e-06
-5.29592e-07
3.90973e-06
-2.36306e-07
3.91386e-06
-1.17646e-07
3.92846e-06
8.48049e-08
3.93941e-06
1.61537e-07
3.93146e-06
1.70361e-07
3.93845e-06
2.09836e-07
3.94018e-06
1.98895e-07
3.94442e-06
1.81389e-07
3.94987e-06
1.60715e-07
3.9643e-06
1.40081e-07
1.25119e-07
3.9686e-06
4.11778e-06
-1.07575e-06
4.14454e-06
1.71629e-07
4.16732e-06
6.75339e-07
4.18905e-06
-3.63109e-08
4.17056e-06
-9.20454e-07
4.11488e-06
-1.48284e-06
4.09047e-06
-1.17341e-06
4.06529e-06
-8.28008e-07
4.0638e-06
-5.28103e-07
4.05979e-06
-2.32294e-07
4.06513e-06
-1.22986e-07
4.06635e-06
8.3586e-08
4.07456e-06
1.53325e-07
4.0784e-06
1.66523e-07
4.08802e-06
2.00216e-07
4.0898e-06
1.97116e-07
4.09373e-06
1.77463e-07
4.09889e-06
1.55547e-07
4.11467e-06
1.24308e-07
1.20887e-07
4.1189e-06
4.27509e-06
-1.03365e-06
4.3023e-06
1.44414e-07
4.32613e-06
6.51514e-07
4.34512e-06
-5.52998e-08
4.32772e-06
-9.03055e-07
4.27296e-06
-1.42809e-06
4.24576e-06
-1.14621e-06
4.22447e-06
-8.06711e-07
4.21774e-06
-5.21377e-07
4.21977e-06
-2.34321e-07
4.21281e-06
-1.16027e-07
4.24029e-06
5.61065e-08
4.25111e-06
1.42507e-07
4.2635e-06
1.5413e-07
4.276e-06
1.87716e-07
4.29164e-06
1.81472e-07
4.29891e-06
1.70193e-07
4.2975e-06
1.56958e-07
4.27645e-06
1.45361e-07
1.2462e-07
4.27272e-06
4.43852e-06
-9.91086e-07
4.46599e-06
1.16941e-07
4.49132e-06
6.26184e-07
4.50682e-06
-7.07962e-08
4.49123e-06
-8.87469e-07
4.4361e-06
-1.37296e-06
4.40972e-06
-1.11983e-06
4.38563e-06
-7.82621e-07
4.3827e-06
-5.18446e-07
4.37788e-06
-2.29504e-07
4.38241e-06
-1.2056e-07
4.38483e-06
5.36896e-08
4.39352e-06
1.33819e-07
4.39432e-06
1.5333e-07
4.40362e-06
1.78414e-07
4.40589e-06
1.79207e-07
4.41154e-06
1.64542e-07
4.41714e-06
1.51353e-07
4.43219e-06
1.30309e-07
1.19883e-07
4.43693e-06
4.60827e-06
-9.48146e-07
4.63589e-06
8.93201e-08
4.66277e-06
5.99299e-07
4.67521e-06
-8.32333e-08
4.6602e-06
-8.7246e-07
4.60633e-06
-1.31909e-06
4.57842e-06
-1.09192e-06
4.55507e-06
-7.59267e-07
4.55191e-06
-5.15287e-07
4.54432e-06
-2.21912e-07
4.54417e-06
-1.20417e-07
4.55205e-06
4.58152e-08
4.56365e-06
1.22212e-07
4.56216e-06
1.54827e-07
4.57066e-06
1.69914e-07
4.57311e-06
1.76754e-07
4.57927e-06
1.58378e-07
4.58464e-06
1.45985e-07
4.60053e-06
1.1442e-07
1.15388e-07
4.60503e-06
4.7846e-06
-9.0496e-07
4.8122e-06
6.17243e-08
4.84062e-06
5.70875e-07
4.85061e-06
-9.32218e-08
4.83464e-06
-8.56488e-07
4.78453e-06
-1.26898e-06
4.75139e-06
-1.05878e-06
4.73436e-06
-7.42236e-07
4.72216e-06
-5.03084e-07
4.72812e-06
-2.27872e-07
4.71541e-06
-1.07713e-07
4.72788e-06
3.33462e-08
4.73621e-06
1.13887e-07
4.76362e-06
1.27419e-07
4.78445e-06
1.4908e-07
4.80573e-06
1.55478e-07
4.8127e-06
1.51409e-07
4.80961e-06
1.49072e-07
4.78339e-06
1.40645e-07
1.22622e-07
4.77615e-06
4.9678e-06
-8.6169e-07
4.99512e-06
3.44029e-08
5.02543e-06
5.4057e-07
5.03227e-06
-1.0006e-07
5.01684e-06
-8.41062e-07
4.96687e-06
-1.21902e-06
4.93558e-06
-1.02749e-06
4.91476e-06
-7.21414e-07
4.90564e-06
-4.9396e-07
4.90351e-06
-2.25746e-07
4.89887e-06
-1.0307e-07
4.90758e-06
2.46313e-08
4.91699e-06
1.04483e-07
4.91973e-06
1.24671e-07
4.92547e-06
1.43338e-07
4.92993e-06
1.51022e-07
4.93388e-06
1.47456e-07
4.94159e-06
1.4136e-07
4.95563e-06
1.26612e-07
1.17853e-07
4.9604e-06
5.15805e-06
-8.18431e-07
5.18503e-06
7.42429e-09
5.21667e-06
5.0893e-07
5.22157e-06
-1.04954e-07
5.20526e-06
-8.24759e-07
5.1566e-06
-1.17036e-06
5.12633e-06
-9.97223e-07
5.10229e-06
-6.97373e-07
5.09662e-06
-4.88291e-07
5.09076e-06
-2.19885e-07
5.08939e-06
-1.01695e-07
5.09396e-06
2.0061e-08
5.10497e-06
9.34719e-08
5.10744e-06
1.22198e-07
5.1148e-06
1.35978e-07
5.11905e-06
1.46777e-07
5.12953e-06
1.36974e-07
5.13446e-06
1.36427e-07
5.14287e-06
1.18205e-07
1.11785e-07
5.14894e-06
5.35566e-06
-7.75316e-07
5.3821e-06
-1.90129e-08
5.41471e-06
4.7632e-07
5.41882e-06
-1.09068e-07
5.39998e-06
-8.0591e-07
5.35446e-06
-1.12484e-06
5.32233e-06
-9.65093e-07
5.29986e-06
-6.74898e-07
5.29001e-06
-4.78443e-07
5.28772e-06
-2.17595e-07
5.28459e-06
-9.85648e-08
5.2896e-06
1.50517e-08
5.29912e-06
8.39544e-08
5.30407e-06
1.1725e-07
5.31069e-06
1.29355e-07
5.31697e-06
1.405e-07
5.3252e-06
1.28735e-07
5.33269e-06
1.28944e-07
5.33791e-06
1.12978e-07
1.06035e-07
5.34366e-06
5.56092e-06
-7.32498e-07
5.5866e-06
-4.469e-08
5.62e-06
4.42913e-07
5.62375e-06
-1.12812e-07
5.60255e-06
-7.84713e-07
5.55917e-06
-1.08146e-06
5.5263e-06
-9.32224e-07
5.50455e-06
-6.53144e-07
5.49237e-06
-4.66265e-07
5.49134e-06
-2.16564e-07
5.488e-06
-9.52264e-08
5.49285e-06
1.0198e-08
5.5016e-06
7.52087e-08
5.5077e-06
1.11146e-07
5.51453e-06
1.22527e-07
5.52107e-06
1.3396e-07
5.52767e-06
1.22134e-07
5.53442e-06
1.22195e-07
5.54069e-06
1.06704e-07
1.00636e-07
5.54609e-06
5.77408e-06
-6.90094e-07
5.79886e-06
-6.94759e-08
5.83269e-06
4.09088e-07
5.83707e-06
-1.1719e-07
5.81295e-06
-7.60595e-07
5.77149e-06
-1.04e-06
5.73788e-06
-8.98617e-07
5.71708e-06
-6.32344e-07
5.70313e-06
-4.52313e-07
5.70252e-06
-2.15948e-07
5.69933e-06
-9.20386e-08
5.70411e-06
5.41245e-09
5.71212e-06
6.71967e-08
5.71914e-06
1.04134e-07
5.72615e-06
1.15518e-07
5.73249e-06
1.27617e-07
5.73928e-06
1.15344e-07
5.74734e-06
1.14137e-07
5.75174e-06
1.02299e-07
9.57296e-08
5.75665e-06
5.99545e-06
-6.48243e-07
6.01915e-06
-9.31764e-08
6.05324e-06
3.74992e-07
6.05842e-06
-1.22362e-07
6.03181e-06
-7.33992e-07
5.9914e-06
-9.9959e-07
5.95771e-06
-8.6493e-07
5.93754e-06
-6.12167e-07
5.92251e-06
-4.37285e-07
5.9217e-06
-2.15135e-07
5.91907e-06
-8.94148e-08
5.92344e-06
1.04179e-09
5.93114e-06
5.95004e-08
5.93851e-06
9.6765e-08
5.94576e-06
1.08262e-07
5.9519e-06
1.21483e-07
5.95695e-06
1.10291e-07
5.96254e-06
1.08551e-07
5.96985e-06
9.49896e-08
9.02857e-08
5.97529e-06
6.22535e-06
-6.0709e-07
6.24777e-06
-1.15595e-07
6.28199e-06
3.40766e-07
6.2878e-06
-1.28171e-07
6.25952e-06
-7.05708e-07
6.21949e-06
-9.59565e-07
6.18604e-06
-8.31474e-07
6.16612e-06
-5.92254e-07
6.15065e-06
-4.21814e-07
6.14943e-06
-2.13915e-07
6.14741e-06
-8.73895e-08
6.15124e-06
-2.7895e-09
6.15889e-06
5.18456e-08
6.16606e-06
8.95947e-08
6.17343e-06
1.00893e-07
6.18004e-06
1.14878e-07
6.18656e-06
1.03766e-07
6.19439e-06
1.00717e-07
6.19773e-06
9.16583e-08
8.57573e-08
6.20225e-06
6.46409e-06
-5.66779e-07
6.485e-06
-1.36501e-07
6.51933e-06
3.06433e-07
6.52547e-06
-1.34309e-07
6.49644e-06
-6.76676e-07
6.45608e-06
-9.19209e-07
6.42315e-06
-7.98545e-07
6.40315e-06
-5.72247e-07
6.3879e-06
-4.06571e-07
6.38587e-06
-2.11878e-07
6.38478e-06
-8.63017e-08
6.38781e-06
-5.81816e-09
6.39535e-06
4.43032e-08
6.40249e-06
8.24565e-08
6.41005e-06
9.33324e-08
6.41653e-06
1.08395e-07
6.42064e-06
9.96636e-08
6.42536e-06
9.59971e-08
6.43255e-06
8.44656e-08
8.02354e-08
6.43807e-06
6.71202e-06
-5.27457e-07
6.73119e-06
-1.55672e-07
6.76559e-06
2.72026e-07
6.7718e-06
-1.40514e-07
6.74275e-06
-6.47626e-07
6.70185e-06
-8.78308e-07
6.6693e-06
-7.65998e-07
6.64919e-06
-5.52132e-07
6.63434e-06
-3.91725e-07
6.63157e-06
-2.09104e-07
6.63125e-06
-8.59842e-08
6.63363e-06
-8.19961e-09
6.64107e-06
3.68612e-08
6.64795e-06
7.55798e-08
6.65526e-06
8.60221e-08
6.66218e-06
1.01476e-07
6.66809e-06
9.37462e-08
6.67459e-06
8.95062e-08
6.6781e-06
8.09539e-08
7.55195e-08
6.68281e-06
6.96946e-06
-4.89268e-07
6.98663e-06
-1.72841e-07
7.02113e-06
2.37525e-07
7.02722e-06
-1.46602e-07
6.99879e-06
-6.19192e-07
6.95734e-06
-8.36867e-07
6.92481e-06
-7.33461e-07
6.90456e-06
-5.31888e-07
6.89032e-06
-3.7748e-07
6.88672e-06
-2.05505e-07
6.88723e-06
-8.64906e-08
6.88919e-06
-1.01656e-08
6.89588e-06
3.0173e-08
6.90315e-06
6.83142e-08
6.91012e-06
7.90436e-08
6.91708e-06
9.45225e-08
6.92104e-06
8.9789e-08
6.92536e-06
8.51777e-08
6.93153e-06
7.47841e-08
7.01473e-08
6.93691e-06
7.23678e-06
-4.52356e-07
7.25165e-06
-1.87718e-07
7.28632e-06
2.02861e-07
7.29214e-06
-1.5242e-07
7.26538e-06
-5.9244e-07
7.22286e-06
-7.94347e-07
7.19018e-06
-7.00774e-07
7.16983e-06
-5.11536e-07
7.15606e-06
-3.63719e-07
7.15191e-06
-2.01348e-07
7.15292e-06
-8.7501e-08
7.15476e-06
-1.2003e-08
7.16069e-06
2.42423e-08
7.16798e-06
6.10165e-08
7.17451e-06
7.25163e-08
7.18174e-06
8.729e-08
7.18753e-06
8.39999e-08
7.19329e-06
7.94181e-08
7.1962e-06
7.1879e-08
6.56987e-08
7.20065e-06
7.51433e-06
-4.16856e-07
7.52663e-06
-2.00017e-07
7.56144e-06
1.68054e-07
7.56707e-06
-1.58057e-07
7.54187e-06
-5.6724e-07
7.49826e-06
-7.50737e-07
7.46603e-06
-6.68539e-07
7.44527e-06
-4.90773e-07
7.43198e-06
-3.50433e-07
7.42736e-06
-1.96725e-07
7.4287e-06
-8.88441e-08
7.4308e-06
-1.41056e-08
7.43553e-06
1.95169e-08
7.44306e-06
5.34816e-08
7.44941e-06
6.61708e-08
7.45638e-06
8.03222e-08
7.46049e-06
7.98865e-08
7.46453e-06
7.5377e-08
7.46981e-06
6.6605e-08
6.09777e-08
7.47453e-06
7.80247e-06
-3.8287e-07
7.81215e-06
-2.09696e-07
7.84665e-06
1.33548e-07
7.85286e-06
-1.64266e-07
7.82533e-06
-5.39705e-07
7.78355e-06
-7.08963e-07
7.753e-06
-6.3799e-07
7.73137e-06
-4.69138e-07
7.71839e-06
-3.37453e-07
7.71365e-06
-1.9199e-07
7.71486e-06
-9.00482e-08
7.71747e-06
-1.67166e-08
7.72132e-06
1.56666e-08
7.72847e-06
4.63338e-08
7.73456e-06
6.00805e-08
7.74155e-06
7.33332e-08
7.74718e-06
7.42493e-08
7.75247e-06
7.00911e-08
7.755e-06
6.40693e-08
5.71531e-08
7.75883e-06
8.10161e-06
-3.50519e-07
8.10842e-06
-2.16503e-07
8.14242e-06
9.95424e-08
8.1497e-06
-1.71541e-07
8.12895e-06
-5.18958e-07
8.09479e-06
-6.74801e-07
8.05288e-06
-5.96085e-07
8.02836e-06
-4.4461e-07
8.0157e-06
-3.24796e-07
8.01102e-06
-1.87308e-07
8.01184e-06
-9.08653e-08
8.01512e-06
-2.00048e-08
8.01815e-06
1.26379e-08
8.0248e-06
3.96818e-08
8.03098e-06
5.39042e-08
8.03754e-06
6.67732e-08
8.042e-06
6.97895e-08
8.04592e-06
6.61706e-08
8.05043e-06
5.95576e-08
5.3424e-08
8.05416e-06
8.41216e-06
-3.19917e-07
8.41526e-06
-2.19601e-07
8.44993e-06
6.48651e-08
8.45668e-06
-1.78283e-07
8.43404e-06
-4.9632e-07
8.39014e-06
-6.30904e-07
8.35926e-06
-5.65203e-07
8.33728e-06
-4.22634e-07
8.32457e-06
-3.12083e-07
8.32011e-06
-1.82846e-07
8.32027e-06
-9.10243e-08
8.32406e-06
-2.37987e-08
8.3268e-06
9.89899e-09
8.33246e-06
3.40203e-08
8.33849e-06
4.78703e-08
8.34492e-06
6.03432e-08
8.35025e-06
6.4464e-08
8.35482e-06
6.15989e-08
8.35765e-06
5.67329e-08
5.03441e-08
8.36072e-06
8.73448e-06
-2.91115e-07
8.73461e-06
-2.19729e-07
8.76851e-06
3.09687e-08