/*--------------------------------*- C++ -*----------------------------------*\
| =========                 |                                                 |
| \\      /  F ield         | OpenFOAM: The Open Source CFD Toolbox           |
|  \\    /   O peration     | Version:  v2012                                 |
|   \\  /    A nd           | Website:  www.openfoam.com                      |
|    \\/     M anipulation  |                                                 |
\*---------------------------------------------------------------------------*/
FoamFile
{
    version     2.0;
    format      ascii;
    class       volVectorField;
    location    "6.1";
    object      U;
}
// * * * * * * * * * * * * * * * * * * * * * * * * * * * * * * * * * * * * * //

dimensions      [0 1 -1 0 0 0 0];


internalField   nonuniform List<vector> 
7000
(
(0.731072 -0.0140194 0)
(1.25524 0.0140828 0)
(0.969657 0.0105623 0)
(1.09875 0.00213711 0)
(0.870208 -0.0306534 0)
(1.09342 -0.0374199 0)
(0.909251 -0.0219898 0)
(1.27764 -0.0124265 0)
(0.841727 -0.000229364 0)
(1.27285 0.0147945 0)
(0.981747 0.00431537 0)
(1.19115 0.0156518 0)
(1.04226 0.00368261 0)
(1.18036 0.000606999 0)
(1.05122 0.00655013 0)
(1.17157 -0.00707195 0)
(1.0123 0.00619542 0)
(1.1655 -0.011673 0)
(0.957238 -0.00152251 0)
(1.15763 -0.0163233 0)
(0.753633 -0.0141261 0)
(1.24847 0.0133947 0)
(0.994972 0.0111647 0)
(1.08483 0.00299533 0)
(0.905934 -0.0307664 0)
(1.04273 -0.0375749 0)
(0.917577 -0.0241295 0)
(1.2505 -0.0114741 0)
(0.863805 -0.000498304 0)
(1.24875 0.0135775 0)
(1.01491 0.00513462 0)
(1.16578 0.0151151 0)
(1.0813 0.00377523 0)
(1.14564 0.000505578 0)
(1.10255 0.00663686 0)
(1.11691 -0.00611558 0)
(1.08011 0.00649846 0)
(1.08846 -0.0104383 0)
(1.04123 -0.000314951 0)
(1.06143 -0.0159612 0)
(0.786133 -0.0142715 0)
(1.23079 0.0124017 0)
(1.03633 0.0119952 0)
(1.07168 0.00361107 0)
(0.933664 -0.0304217 0)
(1.00046 -0.0375485 0)
(0.937247 -0.0259622 0)
(1.20517 -0.0107273 0)
(0.910283 -0.000896042 0)
(1.20294 0.0119561 0)
(1.06185 0.00608954 0)
(1.13418 0.0141728 0)
(1.11547 0.00404033 0)
(1.11923 7.1912e-05 0)
(1.13565 0.00732375 0)
(1.08952 -0.00557077 0)
(1.1119 0.00731822 0)
(1.06089 -0.00900255 0)
(1.07069 0.000516345 0)
(1.03529 -0.0136732 0)
(0.823424 -0.0144567 0)
(1.20367 0.0113519 0)
(1.07596 0.0127385 0)
(1.0623 0.00432027 0)
(0.956869 -0.0298996 0)
(0.966792 -0.0376284 0)
(0.958065 -0.0276461 0)
(1.15112 -0.0104946 0)
(0.964528 -0.00110399 0)
(1.15569 0.0103503 0)
(1.09963 0.00676797 0)
(1.11796 0.0134162 0)
(1.1318 0.00426671 0)
(1.11355 -0.00038859 0)
(1.14491 0.00818193 0)
(1.08492 -0.00520829 0)
(1.1149 0.0085512 0)
(1.05636 -0.00806067 0)
(1.0697 0.00188444 0)
(1.03072 -0.0117556 0)
(0.861306 -0.0146629 0)
(1.17152 0.0102572 0)
(1.10216 0.0133896 0)
(1.05586 0.00511312 0)
(0.974108 -0.0291565 0)
(0.947307 -0.0376946 0)
(0.971976 -0.0290893 0)
(1.10088 -0.0106934 0)
(1.00857 -0.00130002 0)
(1.12418 0.00884271 0)
(1.12266 0.00706379 0)
(1.11977 0.0129782 0)
(1.13899 0.00439099 0)
(1.11943 -0.000686618 0)
(1.14446 0.0090315 0)
(1.08781 -0.00453925 0)
(1.10733 0.00971425 0)
(1.05821 -0.00687399 0)
(1.05942 0.00326548 0)
(1.03147 -0.0099844 0)
(0.896322 -0.0148744 0)
(1.13831 0.00917016 0)
(1.11157 0.0139434 0)
(1.05102 0.00594095 0)
(0.986795 -0.0283351 0)
(0.940567 -0.0377488 0)
(0.976858 -0.0302646 0)
(1.06325 -0.0112321 0)
(1.0355 -0.00168788 0)
(1.11104 0.00744315 0)
(1.13589 0.00699868 0)
(1.13115 0.0127109 0)
(1.14443 0.00454067 0)
(1.12724 -0.000823287 0)
(1.1421 0.0100048 0)
(1.09025 -0.00360375 0)
(1.09828 0.0108405 0)
(1.05933 -0.00538181 0)
(1.04938 0.00459108 0)
(1.03113 -0.00823062 0)
(0.926151 -0.0150756 0)
(1.10644 0.00818149 0)
(1.10637 0.0143734 0)
(1.0467 0.00672196 0)
(0.996743 -0.027489 0)
(0.941858 -0.037724 0)
(0.975824 -0.031207 0)
(1.03972 -0.0120306 0)
(1.04817 -0.00235339 0)
(1.1092 0.00606828 0)
(1.14456 0.00665879 0)
(1.14387 0.012511 0)
(1.14964 0.00481392 0)
(1.13235 -0.00078569 0)
(1.13914 0.0111447 0)
(1.08995 -0.00245014 0)
(1.08995 0.0120069 0)
(1.05804 -0.00373342 0)
(1.0417 0.00588684 0)
(1.02869 -0.0064241 0)
(0.949734 -0.0152483 0)
(1.07709 0.00734974 0)
(1.09133 0.0146639 0)
(1.04238 0.00739113 0)
(1.00523 -0.0266674 0)
(0.946508 -0.0376063 0)
(0.973365 -0.0319828 0)
(1.02633 -0.0130078 0)
(1.05253 -0.00325637 0)
(1.11069 0.00462054 0)
(1.15042 0.00614271 0)
(1.15338 0.0123427 0)
(1.15327 0.00526876 0)
(1.13354 -0.000555817 0)
(1.13461 0.0124388 0)
(1.08699 -0.00109971 0)
(1.08201 0.0132052 0)
(1.05469 -0.00201286 0)
(1.03573 0.00718462 0)
(1.02493 -0.00458296 0)
(0.967099 -0.0153748 0)
(1.05096 0.00669041 0)
(1.07177 0.0148175 0)
(1.0381 0.00790068 0)
(1.01278 -0.0258825 0)
(0.951805 -0.0373998 0)
(0.972498 -0.0326314 0)
(1.01774 -0.0140901 0)
(1.05286 -0.00433037 0)
(1.11065 0.00306145 0)
(1.15258 0.00551708 0)
(1.15775 0.0121963 0)
(1.15368 0.00591631 0)
(1.13082 -0.000130799 0)
(1.12751 0.0138542 0)
(1.08195 0.000400485 0)
(1.07386 0.0144049 0)
(1.04991 -0.00025616 0)
(1.0305 0.00846262 0)
(1.02061 -0.00274541 0)
(0.979015 -0.015443 0)
(1.02869 0.00619435 0)
(1.05215 0.0148429 0)
(1.03422 0.00822974 0)
(1.01936 -0.0251361 0)
(0.956835 -0.0371264 0)
(0.974142 -0.0331624 0)
(1.01013 -0.0152111 0)
(1.05078 -0.00551037 0)
(1.1068 0.00141713 0)
(1.14948 0.00482048 0)
(1.15609 0.012061 0)
(1.14977 0.00672984 0)
(1.12434 0.000482908 0)
(1.11746 0.0153428 0)
(1.07521 0.0019811 0)
(1.06529 0.0155769 0)
(1.04416 0.00150304 0)
(1.02549 0.00969681 0)
(1.01614 -0.000938402 0)
(0.986613 -0.0154483 0)
(1.01089 0.00583638 0)
(1.03537 0.0147521 0)
(1.03103 0.00838418 0)
(1.02471 -0.0244238 0)
(0.961585 -0.0368114 0)
(0.977823 -0.0335619 0)
(1.00169 -0.0163082 0)
(1.04644 -0.0067459 0)
(1.09829 -0.000239784 0)
(1.14007 0.00408513 0)
(1.14804 0.0119146 0)
(1.14104 0.00765896 0)
(1.11412 0.001258 0)
(1.10461 0.0168432 0)
(1.06698 0.00356478 0)
(1.0563 0.0166873 0)
(1.03772 0.00322979 0)
(1.02051 0.0108514 0)
(1.01175 0.000807668 0)
(0.991096 -0.0153941 0)
(0.997862 0.00558175 0)
(1.02268 0.0145642 0)
(1.02854 0.00838905 0)
(1.02852 -0.0237425 0)
(0.96627 -0.0364795 0)
(0.9825 -0.0338055 0)
(0.992168 -0.0173262 0)
(1.03981 -0.00798726 0)
(1.08502 -0.00185558 0)
(1.12438 0.0033407 0)
(1.13379 0.0117247 0)
(1.12758 0.00864265 0)
(1.10027 0.00215281 0)
(1.08952 0.0182761 0)
(1.05749 0.00508769 0)
(1.04689 0.0176971 0)
(1.03088 0.00489659 0)
(1.01558 0.0118847 0)
(1.00762 0.00245544 0)
(0.993552 -0.0152909 0)
(0.98939 0.00539538 0)
(1.01398 0.0143044 0)
(1.02651 0.00827937 0)
(1.03063 -0.023093 0)
(0.971062 -0.036151 0)
(0.987026 -0.0338691 0)
(0.98224 -0.0182217 0)
(1.03128 -0.00917681 0)
(1.06772 -0.00336318 0)
(1.10341 0.00260922 0)
(1.11424 0.011463 0)
(1.11 0.00962259 0)
(1.08326 0.00310874 0)
(1.07295 0.0195494 0)
(1.04709 0.00650177 0)
(1.03706 0.0185763 0)
(1.02397 0.00646092 0)
(1.01075 0.0127667 0)
(1.00389 0.00396937 0)
(0.994857 -0.0151523 0)
(0.984686 0.00525043 0)
(1.00847 0.0139978 0)
(1.02469 0.00809291 0)
(1.03108 -0.0224811 0)
(0.976004 -0.0358359 0)
(0.990395 -0.0337404 0)
(0.973118 -0.0189657 0)
(1.02151 -0.010254 0)
(1.04783 -0.00467665 0)
(1.07904 0.00191305 0)
(1.09093 0.0111074 0)
(1.08946 0.0105504 0)
(1.06406 0.00405625 0)
(1.05576 0.0205739 0)
(1.03629 0.00777052 0)
(1.02692 0.01929 0)
(1.01732 0.00787988 0)
(1.00611 0.0134892 0)
(1.00065 0.0053165 0)
(0.995629 -0.0149916 0)
(0.98263 0.00512995 0)
(1.00511 0.0136666 0)
(1.02293 0.00786128 0)
(1.03013 -0.0219147 0)
(0.980982 -0.0355328 0)
(0.991963 -0.0334304 0)
(0.966081 -0.0195545 0)
(1.01122 -0.0111593 0)
(1.02736 -0.00576244 0)
(1.05361 0.00127588 0)
(1.06589 0.0106506 0)
(1.06746 0.011383 0)
(1.04411 0.00493128 0)
(1.03884 0.0212815 0)
(1.02561 0.00886971 0)
(1.01681 0.0198019 0)
(1.01118 0.00911255 0)
(1.00176 0.0140537 0)
(0.997899 0.00647967 0)
(0.996233 -0.0148189 0)
(0.982104 0.00502333 0)
(1.003 0.0133317 0)
(1.0212 0.00760696 0)
(1.02821 -0.0213987 0)
(0.985735 -0.0352354 0)
(0.991622 -0.0329712 0)
(0.961957 -0.0199991 0)
(1.00104 -0.0118494 0)
(1.00836 -0.00661005 0)
(1.02948 0.000720663 0)
(1.04128 0.0101107 0)
(1.04566 0.0120746 0)
(1.02508 0.00569866 0)
(1.02304 0.0216346 0)
(1.01553 0.00980642 0)
(1.00732 0.020085 0)
(1.0057 0.0101183 0)
(0.997867 0.014442 0)
(0.995607 0.0074417 0)
(0.996831 -0.0146405 0)
(0.982255 0.00492558 0)
(1.00155 0.0130045 0)
(1.01955 0.00734498 0)
(1.02578 -0.0209337 0)
(0.989942 -0.0349328 0)
(0.98978 -0.0324065 0)
(0.960779 -0.0203171 0)
(0.991587 -0.0123106 0)
(0.992488 -0.00723469 0)
(1.00858 0.000264281 0)
(1.01901 0.00951985 0)
(1.02569 0.0125951 0)
(1.00845 0.00634234 0)
(1.00911 0.0216512 0)
(1.00645 0.0105902 0)
(0.999115 0.0201338 0)
(1.00095 0.0108786 0)
(0.994563 0.0146495 0)
(0.993717 0.00820667 0)
(0.997445 -0.0144595 0)
(0.982592 0.0048361 0)
(1.00041 0.0126848 0)
(1.01806 0.00708147 0)
(1.02324 -0.0205154 0)
(0.993336 -0.0346135 0)
(0.987154 -0.0317821 0)
(0.961839 -0.0205316 0)
(0.983441 -0.0125464 0)
(0.980541 -0.00767575 0)
(0.992088 -8.25848e-05 0)
(1.0005 0.00891913 0)
(1.0088 0.0129315 0)
(0.9952 0.0068646 0)
(0.997642 0.0213765 0)
(0.998702 0.0112051 0)
(0.992668 0.0199902 0)
(0.996969 0.0114236 0)
(0.991963 0.0147168 0)
(0.992196 0.00881517 0)
(0.998039 -0.0142764 0)
(0.982916 0.00475313 0)
(0.999471 0.0123727 0)
(1.01676 0.00681937 0)
(1.02089 -0.0201347 0)
(0.995791 -0.0342704 0)
(0.984467 -0.0311338 0)
(0.964096 -0.0206642 0)
(0.977052 -0.0125849 0)
(0.972476 -0.00798446 0)
(0.980283 -0.000313525 0)
(0.986405 0.00834864 0)
(0.995708 0.013073 0)
(0.985616 0.00728199 0)
(0.98895 0.0208829 0)
(0.992542 0.0116516 0)
(0.988128 0.0196726 0)
(0.993795 0.0118008 0)
(0.990094 0.0146642 0)
(0.991029 0.00928842 0)
(0.998563 -0.014091 0)
(0.983193 0.00467475 0)
(0.998681 0.0120686 0)
(1.01565 0.00655821 0)
(1.01885 -0.0197804 0)
(0.997335 -0.0339028 0)
(0.982229 -0.0304825 0)
(0.96662 -0.0207336 0)
(0.97262 -0.0124746 0)
(0.967657 -0.00820293 0)
(0.972722 -0.000442996 0)
(0.976684 0.00783497 0)
(0.986483 0.0130281 0)
(0.979412 0.0076184 0)
(0.982993 0.0202514 0)
(0.988067 0.0119521 0)
(0.98531 0.0192186 0)
(0.99145 0.0120589 0)
(0.988889 0.0145148 0)
(0.990203 0.0096566 0)
(0.998987 -0.0139022 0)
(0.983447 0.00459905 0)
(0.998035 0.011772 0)
(1.01473 0.00629502 0)
(1.01718 -0.0194395 0)
(0.998115 -0.0335161 0)
(0.980662 -0.0298379 0)
(0.968838 -0.0207592 0)
(0.970049 -0.0122617 0)
(0.965234 -0.00835797 0)
(0.968527 -0.000502997 0)
(0.970723 0.00740201 0)
(0.980659 0.0128234 0)
(0.975944 0.00789999 0)
(0.979398 0.0195363 0)
(0.985178 0.0121425 0)
(0.983836 0.0186768 0)
(0.989876 0.0122382 0)
(0.988217 0.0143119 0)
(0.989678 0.00995705 0)
(0.999299 -0.0137094 0)
(0.983705 0.00452405 0)
(0.997523 0.0114818 0)
(1.014 0.00602777 0)
(1.01587 -0.0191014 0)
(0.998332 -0.0331148 0)
(0.979757 -0.0292027 0)
(0.970533 -0.02076 0)
(0.969003 -0.0119883 0)
(0.964421 -0.00846466 0)
(0.966704 -0.00053311 0)
(0.967633 0.00706222 0)
(0.977464 0.0124967 0)
(0.974452 0.00814626 0)
(0.977601 0.0187899 0)
(0.983599 0.0122359 0)
(0.983287 0.0180837 0)
(0.988945 0.0123353 0)
(0.987932 0.0140464 0)
(0.989395 0.0102014 0)
(0.999507 -0.0135117 0)
(0.983981 0.00444782 0)
(0.99712 0.011197 0)
(1.01342 0.00575473 0)
(1.01487 -0.0187585 0)
(0.998188 -0.0327025 0)
(0.979385 -0.0285771 0)
(0.97172 -0.0207468 0)
(0.969027 -0.0116963 0)
(0.964609 -0.00852292 0)
(0.96637 -0.000556681 0)
(0.966513 0.00679618 0)
(0.976071 0.0120784 0)
(0.974235 0.0083782 0)
(0.977015 0.0180406 0)
(0.982972 0.012247 0)
(0.983313 0.0174952 0)
(0.988486 0.0124158 0)
(0.987906 0.0137353 0)
(0.989295 0.0103804 0)
(0.999622 -0.0133084 0)
(0.984285 0.00436826 0)
(0.996792 0.0109178 0)
(1.01297 0.00547336 0)
(1.01411 -0.0184039 0)
(0.997849 -0.0322821 0)
(0.979395 -0.0279595 0)
(0.972511 -0.0207238 0)
(0.969667 -0.0114132 0)
(0.965361 -0.00853947 0)
(0.966846 -0.000592788 0)
(0.966599 0.00660207 0)
(0.975776 0.0115858 0)
(0.974734 0.00858202 0)
(0.977152 0.0173355 0)
(0.982952 0.0121977 0)
(0.983663 0.0168903 0)
(0.988343 0.0125097 0)
(0.988036 0.0134685 0)
(0.989326 0.0105239 0)
(0.999663 -0.0130988 0)
(0.984624 0.00428358 0)
(0.996506 0.0106439 0)
(1.01261 0.00518099 0)
(1.01355 -0.0180346 0)
(0.997434 -0.0318539 0)
(0.979652 -0.0273462 0)
(0.973045 -0.0206988 0)
(0.970549 -0.0111509 0)
(0.966372 -0.00850714 0)
(0.967665 -0.0006892 0)
(0.967317 0.00647439 0)
(0.976055 0.0110643 0)
(0.975556 0.00874143 0)
(0.977659 0.0166879 0)
(0.983256 0.0121458 0)
(0.984173 0.01626 0)
(0.988401 0.0125386 0)
(0.988258 0.0132294 0)
(0.989438 0.010674 0)
(0.999646 -0.012883 0)
(0.985003 0.00419303 0)
(0.99624 0.0103751 0)
(1.01228 0.00487592 0)
(1.01311 -0.0176515 0)
(0.997021 -0.0314168 0)
(0.980047 -0.0267348 0)
(0.97345 -0.0206606 0)
(0.971417 -0.0109431 0)
(0.967439 -0.00840049 0)
(0.968543 -0.000835033 0)
(0.968282 0.00636513 0)
(0.976563 0.0105271 0)
(0.976446 0.00888433 0)
(0.978312 0.0160589 0)
(0.983685 0.0120803 0)
(0.984726 0.015718 0)
(0.988563 0.0125707 0)
(0.98854 0.0129001 0)
(0.989606 0.0107428 0)
(0.999587 -0.0126609 0)
(0.985416 0.0040963 0)
(0.995991 0.0101118 0)
(1.01195 0.00455968 0)
(1.01276 -0.0172565 0)
(0.996657 -0.0309674 0)
(0.9805 -0.0261396 0)
(0.973824 -0.0205804 0)
(0.972135 -0.0108009 0)
(0.968447 -0.00824592 0)
(0.96934 -0.00101749 0)
(0.969266 0.00631639 0)
(0.977106 0.00995286 0)
(0.977269 0.00898435 0)
(0.978973 0.0154922 0)
(0.984133 0.0119796 0)
(0.985276 0.0151239 0)
(0.988742 0.0126852 0)
(0.988825 0.0127025 0)
(0.989805 0.0107552 0)
(0.999503 -0.0124314 0)
(0.985849 0.00399075 0)
(0.995773 0.00985611 0)
(1.01158 0.00422663 0)
(1.01247 -0.0168404 0)
(0.996366 -0.0305212 0)
(0.980951 -0.0255343 0)
(0.974225 -0.0205027 0)
(0.972657 -0.0106737 0)
(0.969339 -0.00806799 0)
(0.97002 -0.00124506 0)
(0.97016 0.00624312 0)
(0.977586 0.0094901 0)
(0.977985 0.00895178 0)
(0.979581 0.0150131 0)
(0.984516 0.0118938 0)
(0.985805 0.0145875 0)
(0.988943 0.0124788 0)
(0.989088 0.0125711 0)
(0.989984 0.0108967 0)
(0.999411 -0.0121957 0)
(0.986278 0.00387738 0)
(0.995609 0.0096069 0)
(1.01119 0.00387644 0)
(1.01221 -0.0164154 0)
(0.99616 -0.0300599 0)
(0.981364 -0.0249393 0)
(0.974671 -0.0203768 0)
(0.973006 -0.0106257 0)
(0.970094 -0.00782824 0)
(0.970594 -0.00146015 0)
(0.970946 0.00611674 0)
(0.977989 0.00902307 0)
(0.978583 0.00894612 0)
(0.980136 0.0144952 0)
(0.984836 0.0117736 0)
(0.986251 0.0142095 0)
(0.989122 0.0123603 0)
(0.989396 0.0122628 0)
(0.990166 0.0108921 0)
(0.999325 -0.011954 0)
(0.986682 0.00375729 0)
(0.995521 0.00936581 0)
(1.01075 0.00352497 0)
(1.01195 -0.0160015 0)
(0.996045 -0.0295484 0)
(0.981725 -0.0244196 0)
(0.975151 -0.0201389 0)
(0.973228 -0.0106661 0)
(0.97072 -0.00754123 0)
(0.971091 -0.00178004 0)
(0.971617 0.00616263 0)
(0.978336 0.00840432 0)
(0.979098 0.00897948 0)
(0.98062 0.0139281 0)
(0.985104 0.0117883 0)
(0.986688 0.0134671 0)
(0.98926 0.0126153 0)
(0.989616 0.0121799 0)
(0.99033 0.0107666 0)
(0.999258 -0.0117005 0)
(0.987041 0.00361859 0)
(0.995521 0.00913818 0)
(1.0103 0.00314708 0)
(1.01168 -0.0155574 0)
(0.99602 -0.0290703 0)
(0.982034 -0.0238359 0)
(0.975647 -0.0199473 0)
(0.973373 -0.0106676 0)
(0.971229 -0.00727949 0)
(0.971544 -0.00200351 0)
(0.972205 0.00594707 0)
(0.978627 0.0081978 0)
(0.979565 0.00865892 0)
(0.981071 0.0135007 0)
(0.985279 0.0116282 0)
(0.987081 0.0132083 0)
(0.989442 0.0121969 0)
(0.989759 0.0118825 0)
(0.990431 0.0108805 0)
(0.999219 -0.0114478 0)
(0.987344 0.00348467 0)
(0.995607 0.00889912 0)
(1.00986 0.00278458 0)
(1.01138 -0.0151585 0)
(0.996075 -0.0284826 0)
(0.982305 -0.0233744 0)
(0.976137 -0.0196138 0)
(0.97349 -0.0107624 0)
(0.971658 -0.00694812 0)
(0.971945 -0.00227344 0)
(0.972754 0.005767 0)
(0.978877 0.00780082 0)
(0.97997 0.00852017 0)
(0.981495 0.0130356 0)
(0.985495 0.0114004 0)
(0.987393 0.0127112 0)
(0.989516 0.0120913 0)
(0.989988 0.0118618 0)
(0.990595 0.0108266 0)
(0.999213 -0.0111823 0)
(0.987589 0.00332945 0)
(0.995767 0.0086934 0)
(1.00942 0.00239233 0)
(1.01103 -0.0147192 0)
(0.996182 -0.0279242 0)
(0.982561 -0.0228896 0)
(0.976614 -0.019278 0)
(0.973617 -0.0108374 0)
(0.972015 -0.00672777 0)
(0.972344 -0.00246006 0)
(0.973244 0.00548123 0)
(0.979106 0.00753025 0)
(0.980385 0.008156 0)
(0.981856 0.0127018 0)
(0.985592 0.0111596 0)
(0.987707 0.0121745 0)
(0.989731 0.0118029 0)
(0.990022 0.0119561 0)
(0.990586 0.0109483 0)
(0.999239 -0.0108945 0)
(0.987783 0.00313392 0)
(0.995975 0.00849745 0)
(1.00903 0.0019869 0)
(1.01063 -0.0142882 0)
(0.996325 -0.0273676 0)
(0.982823 -0.0223463 0)
(0.977068 -0.0189898 0)
(0.973782 -0.0108536 0)
(0.972349 -0.00650999 0)
(0.972719 -0.00259521 0)
(0.973741 0.00503095 0)
(0.979287 0.00750212 0)
(0.980764 0.00774794 0)
(0.982213 0.0122411 0)
(0.985724 0.0109578 0)
(0.987909 0.0121553 0)
(0.989852 0.0112072 0)
(0.990219 0.0114705 0)
(0.990649 0.0110025 0)
(0.999289 -0.0106311 0)
(0.987946 0.00298835 0)
(0.9962 0.00824735 0)
(1.00866 0.00166936 0)
(1.0102 -0.0139801 0)
(0.996468 -0.0265836 0)
(0.983113 -0.0220803 0)
(0.977514 -0.0183814 0)
(0.974008 -0.0110964 0)
(0.972649 -0.00610593 0)
(0.973113 -0.00299522 0)
(0.974227 0.00507049 0)
(0.97947 0.00675743 0)
(0.981114 0.00791973 0)
(0.982529 0.0113506 0)
(0.985864 0.0112401 0)
(0.988078 0.0115419 0)
(0.989963 0.0117675 0)
(0.990304 0.011341 0)
(0.990663 0.0105075 0)
(0.999352 -0.0103355 0)
(0.9881 0.00279385 0)
(0.996409 0.00806791 0)
(1.00834 0.0012786 0)
(1.00973 -0.0135295 0)
(0.996604 -0.0259923 0)
(0.983432 -0.0215616 0)
(0.977966 -0.0180175 0)
(0.97429 -0.0111409 0)
(0.972967 -0.0060099 0)
(0.973524 -0.00294267 0)
(0.974685 0.00448261 0)
(0.979637 0.00671619 0)
(0.981471 0.00740476 0)
(0.982829 0.0110594 0)
(0.985961 0.0108148 0)
(0.988211 0.0114039 0)
(0.990042 0.0112026 0)
(0.990143 0.0111539 0)
(0.990553 0.0106892 0)
(0.999421 -0.0100097 0)
(0.988261 0.00253474 0)
(0.996594 0.0078953 0)
(1.00804 0.000879375 0)
(1.00923 -0.0131612 0)
(0.99671 -0.0253072 0)
(0.983783 -0.0210829 0)
(0.97843 -0.0176813 0)
(0.974636 -0.0110441 0)
(0.973319 -0.00597216 0)
(0.97392 -0.00291884 0)
(0.975211 0.00384575 0)
(0.979789 0.00675794 0)
(0.981804 0.00699093 0)
(0.983111 0.0109107 0)
(0.986091 0.0103748 0)
(0.988289 0.0112115 0)
(0.99011 0.0103629 0)
(0.990342 0.0107088 0)
(0.990571 0.0107918 0)
(0.99949 -0.00973933 0)
(0.988442 0.00238927 0)
(0.996743 0.00760599 0)
(1.00774 0.000634505 0)
(1.00872 -0.0129659 0)
(0.996766 -0.0243837 0)
(0.984176 -0.0209113 0)
(0.978902 -0.0169115 0)
(0.975063 -0.011371 0)
(0.973689 -0.00558203 0)
(0.974364 -0.00333873 0)
(0.975734 0.00399974 0)
(0.979976 0.0058902 0)
(0.982147 0.007189 0)
(0.983385 0.0100003 0)
(0.986191 0.0108111 0)
(0.988331 0.0106931 0)
(0.99015 0.0110856 0)
(0.990379 0.010572 0)
(0.99053 0.0100849 0)
(0.999548 -0.00941172 0)
(0.988659 0.00214757 0)
(0.996847 0.00744307 0)
(1.00746 0.000238889 0)
(1.00821 -0.0125438 0)
(0.996795 -0.0237319 0)
(0.984583 -0.0203918 0)
(0.979396 -0.0166119 0)
(0.975562 -0.0112099 0)
(0.974107 -0.00567431 0)
(0.974848 -0.00309979 0)
(0.976267 0.00323872 0)
(0.980179 0.00596526 0)
(0.982513 0.00671873 0)
(0.98371 0.00973063 0)
(0.986313 0.0101771 0)
(0.988389 0.0105177 0)
(0.990165 0.0104551 0)
(0.990155 0.0103106 0)
(0.990353 0.0102731 0)
(0.999597 -0.00905262 0)
(0.98891 0.00184234 0)
(0.996918 0.00726256 0)
(1.00718 -9.78897e-05 0)
(1.0077 -0.0122462 0)
(0.996789 -0.0230007 0)
(0.985 -0.0198617 0)
(0.979923 -0.0163138 0)
(0.976099 -0.010982 0)
(0.974594 -0.00586522 0)
(0.975324 -0.00288246 0)
(0.976888 0.00260099 0)
(0.980433 0.00603578 0)
(0.982843 0.00618945 0)
(0.983987 0.00949597 0)
(0.986449 0.00954284 0)
(0.988451 0.0103292 0)
(0.990206 0.00967068 0)
(0.990425 0.00993253 0)
(0.990418 0.0104487 0)
(0.999641 -0.00878192 0)
(0.989185 0.00170529 0)
(0.996977 0.00692841 0)
(1.00686 -0.000216075 0)
(1.0072 -0.0121618 0)
(0.996746 -0.0219494 0)
(0.985443 -0.019764 0)
(0.980436 -0.0154845 0)
(0.976698 -0.0113261 0)
(0.975116 -0.00536328 0)
(0.975901 -0.00344497 0)
(0.977511 0.00271441 0)
(0.980719 0.00510201 0)
(0.983221 0.00669745 0)
(0.984361 0.0086428 0)
(0.986652 0.0100486 0)
(0.988539 0.00984461 0)
(0.99024 0.0104215 0)
(0.990486 0.00969854 0)
(0.990378 0.00950865 0)
(0.99967 -0.00842066 0)
(0.989501 0.0014236 0)
(0.997002 0.00677764 0)
(1.00654 -0.000574123 0)
(1.00671 -0.0117824 0)
(0.9967 -0.0213254 0)
(0.985872 -0.0191472 0)
(0.980974 -0.0152593 0)
(0.977356 -0.0110239 0)
(0.975667 -0.00555171 0)
(0.976448 -0.00322942 0)
(0.978169 0.00209726 0)
(0.981137 0.0050752 0)
(0.98361 0.00624835 0)
(0.984691 0.00844547 0)
(0.986801 0.00927812 0)
(0.988613 0.00963614 0)
(0.990222 0.00985894 0)
(0.990243 0.00952211 0)
(0.990229 0.00979871 0)
(0.999693 -0.00804686 0)
(0.989842 0.00110941 0)
(0.997027 0.00654244 0)
(1.00621 -0.00078719 0)
(1.00623 -0.0115637 0)
(0.996658 -0.020586 0)
(0.986294 -0.0185628 0)
(0.981526 -0.0150101 0)
(0.977985 -0.0107594 0)
(0.976283 -0.00572099 0)
(0.977071 -0.00294899 0)
(0.978882 0.00144447 0)
(0.981508 0.00495759 0)
(0.984022 0.00567642 0)
(0.985072 0.00828605 0)
(0.987061 0.0086268 0)
(0.988799 0.00943178 0)
(0.990315 0.00901736 0)
(0.990594 0.00923946 0)
(0.990347 0.0100761 0)
(0.999719 -0.00778729 0)
(0.99019 0.000998495 0)
(0.99706 0.00616316 0)
(1.00585 -0.000783884 0)
(1.00578 -0.0115617 0)
(0.996593 -0.019498 0)
(0.986732 -0.0184977 0)
(0.982058 -0.0141318 0)
(0.978678 -0.0111205 0)
(0.976906 -0.00511088 0)
(0.97767 -0.0034629 0)
(0.979576 0.00168385 0)
(0.982028 0.00395046 0)
(0.984482 0.00619668 0)
(0.985473 0.00733919 0)
(0.987298 0.00915076 0)
(0.988904 0.0090397 0)
(0.990367 0.00989175 0)
(0.990726 0.00901023 0)
(0.990372 0.00910809 0)
(0.999731 -0.00737171 0)
(0.990567 0.000647621 0)
(0.997076 0.00599506 0)
(1.0055 -0.0010622 0)
(1.00532 -0.011164 0)
(0.996559 -0.0189914 0)
(0.987158 -0.0176967 0)
(0.982598 -0.0140437 0)
(0.979365 -0.0107151 0)
(0.977554 -0.00536465 0)
(0.978316 -0.00306105 0)
(0.980263 0.00117208 0)
(0.982524 0.00413948 0)
(0.98491 0.00535684 0)
(0.985894 0.0069525 0)
(0.987618 0.00816403 0)
(0.989145 0.00854282 0)
(0.990391 0.00936539 0)
(0.990461 0.00890441 0)
(0.99023 0.00928691 0)
(0.999737 -0.00703792 0)
(0.990964 0.000397713 0)
(0.997096 0.00568113 0)
(1.00514 -0.00113884 0)
(1.00487 -0.0109772 0)
(0.996544 -0.0182681 0)
(0.987558 -0.0171247 0)
(0.983168 -0.0137915 0)
(0.980035 -0.010344 0)
(0.978244 -0.005544 0)
(0.978915 -0.00269568 0)
(0.981006 0.000710325 0)
(0.983016 0.00391965 0)
(0.985321 0.00484373 0)
(0.986306 0.00647929 0)
(0.987882 0.0071097 0)
(0.989414 0.00822712 0)
(0.99061 0.00851157 0)
(0.990863 0.00922652 0)
(0.990406 0.00996606 0)
(0.999755 -0.00674079 0)
(0.991351 0.000239855 0)
(0.997143 0.00528718 0)
(1.00476 -0.00108815 0)
(1.00446 -0.0109084 0)
(0.996515 -0.0173801 0)
(0.987984 -0.0168145 0)
(0.983714 -0.0131031 0)
(0.980716 -0.0104629 0)
(0.978925 -0.00522769 0)
(0.979584 -0.00281732 0)
(0.981659 0.00080937 0)
(0.983551 0.00325745 0)
(0.985725 0.0048445 0)
(0.98665 0.00584936 0)
(0.988321 0.00737952 0)
(0.989761 0.00784509 0)
(0.990925 0.00881199 0)
(0.991143 0.00916352 0)
(0.990301 0.00935682 0)
(0.999766 -0.0063229 0)
(0.99175 -9.75575e-05 0)
(0.997182 0.00504501 0)
(1.00439 -0.00126088 0)
(1.00405 -0.0105338 0)
(0.996513 -0.0168552 0)
(0.988399 -0.0161549 0)
(0.984254 -0.0128279 0)
(0.9814 -0.0101799 0)
(0.979643 -0.00521076 0)
(0.980189 -0.00263974 0)
(0.98234 0.000447798 0)
(0.984075 0.0030995 0)
(0.986151 0.0044678 0)
(0.987167 0.00588409 0)
(0.988617 0.00716097 0)
(0.990043 0.00728737 0)
(0.991206 0.00852464 0)
(0.991216 0.00822843 0)
(0.990253 0.00847196 0)
(0.999775 -0.00603543 0)
(0.992156 -0.000272551 0)
(0.99723 0.00466283 0)
(1.00403 -0.00122071 0)
(1.00366 -0.0103655 0)
(0.996521 -0.016129 0)
(0.988817 -0.0156881 0)
(0.984807 -0.0123483 0)
(0.982077 -0.00995467 0)
(0.980351 -0.00516177 0)
(0.980829 -0.00263901 0)
(0.98298 0.00046763 0)
(0.984627 0.00258507 0)
(0.986628 0.00450605 0)
(0.987557 0.00550213 0)
(0.988921 0.00669063 0)
(0.990405 0.0070401 0)
(0.991397 0.00792207 0)
(0.991302 0.00760583 0)
(0.990342 0.0082007 0)
(0.999783 -0.00566882 0)
(0.992563 -0.000521893 0)
(0.997281 0.0043268 0)
(1.00367 -0.00130787 0)
(1.00327 -0.0100075 0)
(0.996541 -0.0155299 0)
(0.989232 -0.015126 0)
(0.985357 -0.0119672 0)
(0.982746 -0.00968213 0)
(0.981077 -0.0051506 0)
(0.981464 -0.00247488 0)
(0.983599 0.000179716 0)
(0.985195 0.00247546 0)
(0.987085 0.00408823 0)
(0.987983 0.00520451 0)
(0.989274 0.00650524 0)
(0.990649 0.00661698 0)
(0.991568 0.0073047 0)
(0.99152 0.00734452 0)
(0.990478 0.00787797 0)
(0.999791 -0.00533796 0)
(0.992968 -0.000742097 0)
(0.997343 0.00397222 0)
(1.00333 -0.00134369 0)
(1.0029 -0.0096754 0)
(0.996564 -0.0149568 0)
(0.989646 -0.0145826 0)
(0.985913 -0.0116009 0)
(0.983414 -0.0093577 0)
(0.98181 -0.0051187 0)
(0.982088 -0.00245293 0)
(0.984232 0.000114501 0)
(0.985743 0.0021239 0)
(0.987547 0.00388978 0)
(0.988453 0.00490192 0)
(0.989548 0.00613388 0)
(0.990891 0.00622077 0)
(0.991841 0.00694735 0)
(0.99172 0.00702584 0)
(0.990552 0.00745081 0)
(0.999799 -0.0050074 0)
(0.993372 -0.00094653 0)
(0.997414 0.00363698 0)
(1.00299 -0.00143144 0)
(1.00254 -0.00932088 0)
(0.996599 -0.0143444 0)
(0.990063 -0.0140057 0)
(0.98647 -0.0112387 0)
(0.984079 -0.00903744 0)
(0.982536 -0.00511506 0)
(0.982746 -0.00236095 0)
(0.984813 -4.97489e-05 0)
(0.98632 0.00190846 0)
(0.988034 0.00358338 0)
(0.988855 0.00454092 0)
(0.989891 0.00583426 0)
(0.991153 0.00595359 0)
(0.992048 0.00656263 0)
(0.991916 0.00659935 0)
(0.990685 0.00702025 0)
(0.999808 -0.00467793 0)
(0.993771 -0.00114551 0)
(0.997493 0.00328058 0)
(1.00267 -0.00150374 0)
(1.0022 -0.00891855 0)
(0.996634 -0.0137484 0)
(0.990472 -0.0134895 0)
(0.987026 -0.010885 0)
(0.984738 -0.00871293 0)
(0.983283 -0.00506147 0)
(0.983374 -0.00231738 0)
(0.985427 -0.000138235 0)
(0.986867 0.00165014 0)
(0.988483 0.00330221 0)
(0.989356 0.00423594 0)
(0.990206 0.00551643 0)
(0.991373 0.00567351 0)
(0.992273 0.00615623 0)
(0.992107 0.00619103 0)
(0.990808 0.00661255 0)
(0.999818 -0.00436416 0)
(0.994164 -0.00132385 0)
(0.997584 0.00293296 0)
(1.00237 -0.00156967 0)
(1.00186 -0.00855647 0)
(0.99667 -0.0131572 0)
(0.990885 -0.0129508 0)
(0.987588 -0.0104905 0)
(0.9854 -0.00839095 0)
(0.984009 -0.00499987 0)
(0.984045 -0.00230908 0)
(0.985981 -0.000208191 0)
(0.987437 0.00135453 0)
(0.988985 0.00306683 0)
(0.989768 0.00389676 0)
(0.990576 0.00517735 0)
(0.991612 0.00537923 0)
(0.992438 0.00580275 0)
(0.992311 0.00583439 0)
(0.990991 0.00621611 0)
(0.999829 -0.0040524 0)
(0.994551 -0.00148617 0)
(0.997682 0.00258422 0)
(1.00208 -0.0016684 0)
(1.00155 -0.00818188 0)
(0.996715 -0.0125229 0)
(0.991294 -0.0123981 0)
(0.988145 -0.0101349 0)
(0.986046 -0.00810171 0)
(0.98475 -0.00493111 0)
(0.984684 -0.00229054 0)
(0.986568 -0.000293631 0)
(0.98798 0.00114303 0)
(0.989444 0.00276634 0)
(0.99027 0.00359328 0)
(0.990923 0.00482774 0)
(0.991833 0.00509569 0)
(0.992649 0.00548862 0)
(0.992488 0.00550632 0)
(0.991138 0.00580286 0)
(0.99984 -0.00375282 0)
(0.99493 -0.00163502 0)
(0.997789 0.00223325 0)
(1.00181 -0.00173478 0)
(1.00125 -0.00782468 0)
(0.996759 -0.0118945 0)
(0.991694 -0.0118733 0)
(0.988701 -0.00976663 0)
(0.986699 -0.00782434 0)
(0.985472 -0.00483644 0)
(0.985364 -0.00232942 0)
(0.987104 -0.00031376 0)
(0.98853 0.000900132 0)
(0.989952 0.00251092 0)
(0.990686 0.00329849 0)
(0.991323 0.00447122 0)
(0.992094 0.00484544 0)
(0.992801 0.00517367 0)
(0.992649 0.0051743 0)
(0.991325 0.00541559 0)
(0.999852 -0.00345529 0)
(0.9953 -0.00176232 0)
(0.997904 0.00187961 0)
(1.00156 -0.00178795 0)
(1.00098 -0.00749876 0)
(0.99681 -0.0112717 0)
(0.99209 -0.0113001 0)
(0.989252 -0.00937259 0)
(0.987336 -0.00752947 0)
(0.986201 -0.00474421 0)
(0.986016 -0.00234784 0)
(0.987677 -0.000407848 0)
(0.989047 0.000756055 0)
(0.99042 0.00217155 0)
(0.991184 0.00302302 0)
(0.991708 0.00412959 0)
(0.992337 0.00454743 0)
(0.992985 0.00486022 0)
(0.992795 0.0049012 0)
(0.991481 0.00504044 0)
(0.999864 -0.00320157 0)
(0.995658 -0.00182934 0)
(0.998028 0.00152008 0)
(1.00133 -0.00183988 0)
(1.00072 -0.00719671 0)
(0.996867 -0.0106534 0)
(0.992476 -0.0107489 0)
(0.989798 -0.00897427 0)
(0.987973 -0.00727276 0)
(0.986909 -0.00463569 0)
(0.986696 -0.00241724 0)
(0.988214 -0.000443726 0)
(0.989561 0.000569865 0)
(0.990922 0.00192835 0)
(0.991618 0.00274936 0)
(0.992123 0.00378154 0)
(0.99262 0.00428755 0)
(0.993154 0.00457179 0)
(0.992922 0.00463109 0)
(0.991642 0.00471656 0)
(0.999877 -0.00291105 0)
(0.996006 -0.00193988 0)
(0.998155 0.00117997 0)
(1.00112 -0.00194839 0)
(1.00048 -0.00685852 0)
(0.996948 -0.0100992 0)
(0.992871 -0.0101849 0)
(0.990337 -0.00854001 0)
(0.988589 -0.00698407 0)
(0.987608 -0.00452249 0)
(0.987344 -0.00242914 0)
(0.988777 -0.000565877 0)
(0.990043 0.000505463 0)
(0.991383 0.00161771 0)
(0.992103 0.00247597 0)
(0.992537 0.00345049 0)
(0.992897 0.00400173 0)
(0.993343 0.00428253 0)
(0.993052 0.00437951 0)
(0.991787 0.00439981 0)
(0.999889 -0.00266211 0)
(0.99634 -0.00198728 0)
(0.998292 0.000838098 0)
(1.00093 -0.00202627 0)
(1.00026 -0.00654971 0)
(0.997014 -0.00955724 0)
(0.993241 -0.00962221 0)
(0.990862 -0.00808627 0)
(0.989204 -0.00669052 0)
(0.988301 -0.00438643 0)
(0.988015 -0.00244853 0)
(0.989337 -0.000638264 0)
(0.990528 0.000377237 0)
(0.991853 0.00142649 0)
(0.992548 0.00219337 0)
(0.992969 0.00312074 0)
(0.993208 0.00374173 0)
(0.993532 0.00401892 0)
(0.993158 0.00414258 0)
(0.991912 0.00414298 0)
(0.999901 -0.00244788 0)
(0.99666 -0.00195509 0)
(0.998427 0.000471875 0)
(1.00076 -0.00207135 0)
(1.00006 -0.00626432 0)
(0.997094 -0.00898965 0)
(0.993613 -0.00907576 0)
(0.991377 -0.00765649 0)
(0.9898 -0.00642562 0)
(0.988987 -0.00428586 0)
(0.988666 -0.0024375 0)
(0.989915 -0.000784925 0)
(0.991008 0.000320296 0)
(0.992288 0.00120614 0)
(0.993008 0.00194452 0)
(0.993412 0.00280845 0)
(0.993518 0.00345558 0)
(0.99373 0.00375959 0)
(0.993281 0.00391178 0)
(0.992027 0.00391174 0)
(0.999915 -0.00220125 0)
(0.996958 -0.00197394 0)
(0.998566 0.0001439 0)
(1.00062 -0.00211549 0)
(0.999886 -0.00597104 0)
(0.997188 -0.00843727 0)
(0.99398 -0.00856361 0)
(0.991883 -0.00724589 0)
(0.990381 -0.00615758 0)
(0.989657 -0.00419737 0)
(0.989305 -0.00243938 0)
(0.990482 -0.000914039 0)
(0.991484 0.000185954 0)
(0.992714 0.00105117 0)
(0.993434 0.0017043 0)