/*--------------------------------*- C++ -*----------------------------------*\
| =========                 |                                                 |
| \\      /  F ield         | OpenFOAM: The Open Source CFD Toolbox           |
|  \\    /   O peration     | Version:  v2012                                 |
|   \\  /    A nd           | Website:  www.openfoam.com                      |
|    \\/     M anipulation  |                                                 |
\*---------------------------------------------------------------------------*/
FoamFile
{
    version     2.0;
    format      ascii;
    class       volVectorField;
    location    "6.8";
    object      U;
}
// * * * * * * * * * * * * * * * * * * * * * * * * * * * * * * * * * * * * * //

dimensions      [0 1 -1 0 0 0 0];


internalField   nonuniform List<vector> 
7000
(
(0.743998 -0.0149845 0)
(1.374 0.0187021 0)
(0.761918 0.0044707 0)
(1.11933 -0.0197172 0)
(0.907048 -0.0266192 0)
(1.25634 -0.0120528 0)
(0.777203 -0.00387596 0)
(1.31532 -0.00105315 0)
(0.756972 -0.00121683 0)
(1.27311 0.00972165 0)
(0.845641 0.00511596 0)
(1.17599 0.0146909 0)
(0.898542 0.00344417 0)
(1.1331 0.00640315 0)
(0.91315 0.0010367 0)
(1.12456 -0.00221632 0)
(0.907587 6.26901e-05 0)
(1.12522 -0.00835659 0)
(0.894446 -0.00286441 0)
(1.12511 -0.0101433 0)
(0.760027 -0.0156891 0)
(1.36466 0.018619 0)
(0.821388 0.00566805 0)
(1.09396 -0.0203643 0)
(0.920654 -0.0280638 0)
(1.24194 -0.0107483 0)
(0.802034 -0.00491997 0)
(1.30028 -0.000257966 0)
(0.786063 -0.00128733 0)
(1.2522 0.00918215 0)
(0.88142 0.00589764 0)
(1.14782 0.014367 0)
(0.945402 0.00393451 0)
(1.0964 0.00636385 0)
(0.971253 0.00112194 0)
(1.07315 -0.00203359 0)
(0.979094 2.44742e-05 0)
(1.05544 -0.00840652 0)
(0.980811 -0.00217415 0)
(1.03659 -0.0108175 0)
(0.784841 -0.0163719 0)
(1.34284 0.0186127 0)
(0.901665 0.0068728 0)
(1.06954 -0.0205749 0)
(0.938833 -0.0291148 0)
(1.21465 -0.00967282 0)
(0.848421 -0.00577806 0)
(1.26966 0.000315758 0)
(0.845303 -0.00128316 0)
(1.20844 0.00849262 0)
(0.942247 0.00702811 0)
(1.10277 0.0137116 0)
(1.00042 0.00463791 0)
(1.05637 0.00596481 0)
(1.0209 0.00163367 0)
(1.03445 -0.00223233 0)
(1.02384 0.00051903 0)
(1.01982 -0.00836577 0)
(1.01886 -0.00169587 0)
(1.00758 -0.010073 0)
(0.815389 -0.0170154 0)
(1.30982 0.0183486 0)
(0.97506 0.00808638 0)
(1.0481 -0.0205059 0)
(0.957713 -0.030138 0)
(1.17635 -0.00898207 0)
(0.906335 -0.0064565 0)
(1.22557 0.00059027 0)
(0.91805 -0.000911585 0)
(1.15469 0.00771603 0)
(1.00073 0.00818266 0)
(1.06625 0.0130422 0)
(1.036 0.00527816 0)
(1.03689 0.00555831 0)
(1.04262 0.00221195 0)
(1.02233 -0.00247095 0)
(1.03706 0.00117661 0)
(1.01178 -0.00845018 0)
(1.02576 -0.000965114 0)
(1.00262 -0.00941383 0)
(0.848679 -0.0176307 0)
(1.26877 0.0177329 0)
(1.03005 0.0093051 0)
(1.03244 -0.020195 0)
(0.973326 -0.0309833 0)
(1.13259 -0.00865857 0)
(0.962237 -0.00698704 0)
(1.17585 0.000596879 0)
(0.982654 -0.000289495 0)
(1.1086 0.00696051 0)
(1.0402 0.00913551 0)
(1.05077 0.0126563 0)
(1.05206 0.00573245 0)
(1.0359 0.00536929 0)
(1.04818 0.00273814 0)
(1.02406 -0.00252355 0)
(1.03722 0.00179682 0)
(1.0134 -0.00834878 0)
(1.02216 -0.00021382 0)
(1.00386 -0.00875809 0)
(0.881685 -0.0182051 0)
(1.22329 0.0169262 0)
(1.0639 0.0104384 0)
(1.02361 -0.0197111 0)
(0.983389 -0.0315921 0)
(1.09068 -0.00870099 0)
(1.0051 -0.007382 0)
(1.12987 0.000432577 0)
(1.02628 0.000348855 0)
(1.07938 0.00640096 0)
(1.05975 0.00975948 0)
(1.05148 0.0125542 0)
(1.0579 0.00606738 0)
(1.04184 0.00534019 0)
(1.04862 0.00328627 0)
(1.02805 -0.00244861 0)
(1.03453 0.00243773 0)
(1.01554 -0.00804462 0)
(1.01707 0.00048987 0)
(1.00465 -0.00804259 0)
(0.911831 -0.0187142 0)
(1.17678 0.0160982 0)
(1.0785 0.0114144 0)
(1.02053 -0.0191187 0)
(0.988199 -0.0319539 0)
(1.05628 -0.00904015 0)
(1.03043 -0.00768256 0)
(1.09354 0.000197533 0)
(1.04781 0.000837493 0)
(1.06487 0.00605576 0)
(1.06585 0.0100565 0)
(1.05751 0.0125784 0)
(1.05965 0.00640287 0)
(1.0464 0.0053894 0)
(1.04769 0.00392818 0)
(1.02942 -0.00228924 0)
(1.03157 0.00312689 0)
(1.01562 -0.00759506 0)
(1.01277 0.00115966 0)
(1.00376 -0.00722753 0)
(0.937377 -0.0191348 0)
(1.13209 0.0153362 0)
(1.07827 0.0121814 0)
(1.02081 -0.0184855 0)
(0.989836 -0.0320974 0)
(1.03124 -0.00956168 0)
(1.03986 -0.00792718 0)
(1.06738 -4.6499e-05 0)
(1.0529 0.00112668 0)
(1.05753 0.00581999 0)
(1.0646 0.0101253 0)
(1.06104 0.0126118 0)
(1.05874 0.00680967 0)
(1.0465 0.00548461 0)
(1.04529 0.00465633 0)
(1.0276 -0.00206168 0)
(1.02801 0.00382402 0)
(1.01394 -0.00704474 0)
(1.00905 0.00179984 0)
(1.0019 -0.00633186 0)
(0.957542 -0.0194513 0)
(1.09144 0.0146774 0)
(1.06871 0.012718 0)
(1.02213 -0.017873 0)
(0.990563 -0.0320648 0)
(1.01421 -0.0101493 0)
(1.03817 -0.00813538 0)
(1.04854 -0.000294397 0)
(1.04834 0.00124782 0)
(1.05091 0.00559637 0)
(1.0591 0.0100796 0)
(1.05909 0.0126129 0)
(1.05474 0.00730077 0)
(1.04217 0.00560269 0)
(1.04076 0.00542874 0)
(1.02362 -0.00178934 0)
(1.02344 0.00448331 0)
(1.0114 -0.0064251 0)
(1.00555 0.00238864 0)
(0.999852 -0.00539977 0)
(0.97238 -0.0196579 0)
(1.05651 0.0141413 0)
(1.05505 0.0130211 0)
(1.02307 -0.0173308 0)
(0.991682 -0.0318975 0)
(1.00267 -0.0107138 0)
(1.03048 -0.00830769 0)
(1.03371 -0.000550829 0)
(1.03917 0.00126593 0)
(1.04214 0.0053483 0)
(1.05038 0.00999397 0)
(1.05186 0.0125773 0)
(1.04752 0.0078465 0)
(1.03475 0.00571752 0)
(1.03424 0.00618189 0)
(1.01864 -0.00150273 0)
(1.01811 0.00505684 0)
(1.00863 -0.00577336 0)
(1.00225 0.00290292 0)
(0.998003 -0.00447548 0)
(0.982527 -0.0197572 0)
(1.0284 0.0137263 0)
(1.04131 0.0131153 0)
(1.02319 -0.0168841 0)
(0.99337 -0.0316296 0)
(0.994622 -0.0112022 0)
(1.02072 -0.00843317 0)
(1.02092 -0.000809339 0)
(1.02832 0.00124227 0)
(1.03117 0.00508281 0)
(1.03917 0.00990475 0)
(1.04098 0.0125031 0)
(1.0379 0.00839937 0)
(1.02582 0.00580172 0)
(1.02653 0.00685329 0)
(1.01351 -0.00122592 0)
(1.01262 0.00550589 0)
(1.00591 -0.00512903 0)
(0.999344 0.00332886 0)
(0.996407 -0.003588 0)
(0.988924 -0.0197605 0)
(1.00748 0.0134089 0)
(1.02986 0.0130505 0)
(1.02267 -0.0165326 0)
(0.995173 -0.0312883 0)
(0.988975 -0.0115939 0)
(1.0113 -0.00849891 0)
(1.00965 -0.00106846 0)
(1.01734 0.00121827 0)
(1.01925 0.00482137 0)
(1.02664 0.00982798 0)
(1.02847 0.0123827 0)
(1.02726 0.00891015 0)
(1.01677 0.00583085 0)
(1.01867 0.00740148 0)
(1.00875 -0.000980939 0)
(1.00756 0.00581841 0)
(1.00334 -0.00450798 0)
(0.996955 0.00366037 0)
(0.995001 -0.00275794 0)
(0.992587 -0.019685 0)
(0.993336 0.0131599 0)
(1.02154 0.012867 0)
(1.02183 -0.0162617 0)
(0.996578 -0.0308941 0)
(0.985194 -0.0118921 0)
(1.00334 -0.00849709 0)
(1.00015 -0.00131662 0)
(1.00719 0.00121812 0)
(1.00783 0.00458207 0)
(1.01427 0.00976941 0)
(1.01615 0.0122081 0)
(1.01699 0.00934261 0)
(1.0086 0.00578965 0)
(1.01148 0.00780044 0)
(1.00461 -0.000776146 0)
(1.00325 0.0060025 0)
(1.00095 -0.00391966 0)
(0.995075 0.003901 0)
(0.99372 -0.00199244 0)
(0.994431 -0.0195506 0)
(0.984853 0.0129514 0)
(1.01612 0.0126035 0)
(1.02088 -0.0160477 0)
(0.997318 -0.0304627 0)
(0.982887 -0.0121126 0)
(0.997142 -0.00842671 0)
(0.99278 -0.00154583 0)
(0.998451 0.00125422 0)
(0.997949 0.00437217 0)
(1.00334 0.00973053 0)
(1.00538 0.0119741 0)
(1.00809 0.00967734 0)
(1.00187 0.00567995 0)
(1.00547 0.00805362 0)
(1.00119 -0.000605528 0)
(0.999781 0.00607839 0)
(0.99879 -0.00336444 0)
(0.993606 0.00407135 0)
(0.992534 -0.00128438 0)
(0.995186 -0.019376 0)
(0.980552 0.0127621 0)
(1.0129 0.0122935 0)
(1.0199 -0.0158672 0)
(0.997382 -0.0300063 0)
(0.981655 -0.0122754 0)
(0.992542 -0.00829677 0)
(0.987667 -0.00174529 0)
(0.991411 0.00133336 0)
(0.990149 0.00418942 0)
(0.99459 0.00970845 0)
(0.99683 0.0116856 0)
(1.00104 0.00991195 0)
(0.996774 0.00551729 0)
(1.00076 0.00816992 0)
(0.998467 -0.000451542 0)
(0.997104 0.00605546 0)
(0.996878 -0.00283875 0)
(0.992443 0.00418529 0)
(0.991452 -0.000631647 0)
(0.995372 -0.0191763 0)
(0.978983 0.0125781 0)
(1.01114 0.0119618 0)
(1.01888 -0.0157017 0)
(0.996904 -0.0295341 0)
(0.981115 -0.012399 0)
(0.98926 -0.00812126 0)
(0.984634 -0.00191435 0)
(0.986144 0.00145805 0)
(0.984487 0.00402667 0)
(0.988218 0.00969507 0)
(0.99066 0.0113569 0)
(0.995915 0.0100544 0)
(0.993212 0.00532152 0)
(0.997312 0.00816618 0)
(0.996364 -0.000298865 0)
(0.995116 0.00595695 0)
(0.995246 -0.00233408 0)
(0.991514 0.00425417 0)
(0.990506 -2.84489e-05 0)
(0.995326 -0.0189621 0)
(0.978988 0.0123906 0)
(1.01025 0.0116278 0)
(1.01778 -0.015538 0)
(0.996056 -0.0290529 0)
(0.980963 -0.0124996 0)
(0.987042 -0.00791561 0)
(0.983292 -0.00206289 0)
(0.98257 0.00162702 0)
(0.980727 0.00387725 0)
(0.984007 0.00968155 0)
(0.986634 0.011003 0)
(0.992511 0.0101083 0)
(0.990945 0.00513114 0)
(0.99494 0.00806969 0)
(0.994794 -0.00014314 0)
(0.993704 0.00581148 0)
(0.993916 -0.0018385 0)
(0.990783 0.00429365 0)
(0.989733 0.000534341 0)
(0.995243 -0.0187405 0)
(0.979769 0.0121944 0)
(1.00987 0.0113032 0)
(1.01663 -0.0153679 0)
(0.994997 -0.0285671 0)
(0.980996 -0.0125908 0)
(0.985709 -0.00769638 0)
(0.983179 -0.00219591 0)
(0.980525 0.00183787 0)
(0.978523 0.00373712 0)
(0.981553 0.00966139 0)
(0.984335 0.010639 0)
(0.9905 0.0100805 0)
(0.989672 0.00496867 0)
(0.993435 0.00790321 0)
(0.993677 2.74859e-05 0)
(0.992746 0.00563253 0)
(0.992886 -0.00136004 0)
(0.99023 0.00430866 0)
(0.989152 0.00106168 0)
(0.995225 -0.0185152 0)
(0.980827 0.0119872 0)
(1.00973 0.0109922 0)
(1.01545 -0.0151866 0)
(0.993858 -0.0280795 0)
(0.9811 -0.0126843 0)
(0.985125 -0.00747528 0)
(0.983873 -0.00232214 0)
(0.979802 0.0020849 0)
(0.977541 0.00360934 0)
(0.980432 0.00962645 0)
(0.983303 0.0102813 0)
(0.989525 0.0099815 0)
(0.989101 0.00484195 0)
(0.99257 0.00769161 0)
(0.992934 0.000223119 0)
(0.992112 0.00543337 0)
(0.992127 -0.000896949 0)
(0.989827 0.00430811 0)
(0.988749 0.00155613 0)
(0.995303 -0.0182878 0)
(0.98187 0.0117677 0)
(1.00969 0.0106985 0)
(1.01431 -0.0149916 0)
(0.992751 -0.0275916 0)
(0.981229 -0.01279 0)
(0.985154 -0.00726163 0)
(0.985034 -0.00244897 0)
(0.980149 0.00235847 0)
(0.977504 0.00350209 0)
(0.98028 0.0095684 0)
(0.983121 0.00994991 0)
(0.989246 0.00981985 0)
(0.988981 0.00476294 0)
(0.992129 0.00744496 0)
(0.992476 0.000438075 0)
(0.991681 0.0052308 0)
(0.99158 -0.000434152 0)
(0.989534 0.00431003 0)
(0.988483 0.00201848 0)
(0.995467 -0.0180584 0)
(0.982752 0.0115359 0)
(1.00966 0.0104227 0)
(1.01327 -0.0147826 0)
(0.991769 -0.0271042 0)
(0.981372 -0.0129146 0)
(0.985642 -0.00706291 0)
(0.986397 -0.00258039 0)
(0.981278 0.00264834 0)
(0.978177 0.00342088 0)
(0.980801 0.00948171 0)
(0.983461 0.00966648 0)
(0.989379 0.00960679 0)
(0.989119 0.00473285 0)
(0.991922 0.00717358 0)
(0.992215 0.000662627 0)
(0.991357 0.00503729 0)
(0.991173 2.52555e-05 0)
(0.989309 0.00431865 0)
(0.988299 0.00245115 0)
(0.995685 -0.0178264 0)
(0.983431 0.0112922 0)
(1.00957 0.0101636 0)
(1.01238 -0.0145608 0)
(0.99099 -0.0266165 0)
(0.981528 -0.0130626 0)
(0.986407 -0.00688173 0)
(0.987755 -0.00272079 0)
(0.982874 0.00294503 0)
(0.979338 0.00337885 0)
(0.981756 0.00935639 0)
(0.984096 0.00944193 0)
(0.989715 0.00935083 0)
(0.989387 0.00474656 0)
(0.991818 0.00691085 0)
(0.992072 0.000909537 0)
(0.991084 0.00487093 0)
(0.990845 0.00047555 0)
(0.989119 0.0043289 0)
(0.988156 0.00285125 0)
(0.995923 -0.0175906 0)
(0.98394 0.0110368 0)
(1.0094 0.00991898 0)
(1.01167 -0.0143288 0)
(0.99047 -0.0261269 0)
(0.981695 -0.0132348 0)
(0.987254 -0.00671731 0)
(0.988945 -0.00287414 0)
(0.984629 0.00322812 0)
(0.980771 0.00338903 0)
(0.982949 0.00919484 0)
(0.984885 0.00927819 0)
(0.990132 0.00905858 0)
(0.989724 0.00480202 0)
(0.991756 0.00665881 0)
(0.992002 0.00116599 0)
(0.990847 0.00473615 0)
(0.990564 0.000910726 0)
(0.988954 0.00434047 0)
(0.988037 0.00321094 0)
(0.996154 -0.0173499 0)
(0.984337 0.0107702 0)
(1.00913 0.00968616 0)
(1.01114 -0.0140902 0)
(0.990242 -0.0256343 0)
(0.981864 -0.0134254 0)
(0.988004 -0.00657415 0)
(0.98985 -0.0030314 0)
(0.986279 0.00348242 0)
(0.982286 0.00344803 0)
(0.984226 0.00900852 0)
(0.985758 0.00917288 0)
(0.990585 0.00875208 0)
(0.990122 0.00489221 0)
(0.991735 0.00641518 0)
(0.991999 0.0014077 0)
(0.990672 0.00462879 0)
(0.990338 0.0013314 0)
(0.988827 0.00435798 0)
(0.987955 0.00353553 0)
(0.996365 -0.0171034 0)
(0.984677 0.0104927 0)
(1.00874 0.00946248 0)
(1.01078 -0.0138495 0)
(0.990313 -0.0251368 0)
(0.982024 -0.013627 0)
(0.988516 -0.00644438 0)
(0.990407 -0.0032011 0)
(0.987631 0.00370385 0)
(0.983734 0.00356486 0)
(0.985489 0.0087871 0)
(0.986684 0.00912327 0)
(0.99108 0.008432 0)
(0.990602 0.00499987 0)
(0.991792 0.00621836 0)
(0.992086 0.00163717 0)
(0.990603 0.00453986 0)
(0.9902 0.00174728 0)
(0.988771 0.0043799 0)
(0.98794 0.00381995 0)
(0.996546 -0.0168506 0)
(0.98499 0.0102051 0)
(1.00825 0.00924577 0)
(1.01057 -0.0136126 0)
(0.990673 -0.0246287 0)
(0.982166 -0.0138366 0)
(0.988716 -0.00631872 0)
(0.990607 -0.00337326 0)
(0.988578 0.00385865 0)
(0.98502 0.00374548 0)
(0.98668 0.00852938 0)
(0.98765 0.00912317 0)
(0.991637 0.00810805 0)
(0.99119 0.00509488 0)
(0.991971 0.0060797 0)
(0.992294 0.00188249 0)
(0.990688 0.00447216 0)
(0.990194 0.0021871 0)
(0.988823 0.0044189 0)
(0.988031 0.00405337 0)
(0.996691 -0.0165912 0)
(0.985282 0.00990875 0)
(1.00767 0.00903417 0)
(1.0105 -0.0133821 0)
(0.991284 -0.0241166 0)
(0.982289 -0.014021 0)
(0.988594 -0.00622568 0)
(0.990489 -0.00351434 0)
(0.989091 0.00393849 0)
(0.986096 0.00395443 0)
(0.987775 0.0082361 0)
(0.988643 0.0091521 0)
(0.992267 0.00781298 0)
(0.991892 0.00517488 0)
(0.992303 0.00598304 0)
(0.992644 0.00213991 0)
(0.990955 0.00437413 0)
(0.99035 0.00264721 0)
(0.989008 0.00455796 0)
(0.988253 0.00430747 0)
(0.996795 -0.0163238 0)
(0.985549 0.00960359 0)
(1.00703 0.00882588 0)
(1.01054 -0.0131634 0)
(0.99209 -0.0235963 0)
(0.982398 -0.0141798 0)
(0.988198 -0.00613059 0)
(0.990128 -0.00366856 0)
(0.989199 0.0039694 0)
(0.986941 0.00418997 0)
(0.988757 0.007909 0)
(0.989634 0.00918578 0)
(0.992953 0.00754793 0)
(0.992682 0.00524355 0)
(0.992778 0.00592024 0)
(0.99312 0.0023649 0)
(0.991406 0.00437221 0)
(0.990696 0.00290065 0)
(0.989353 0.00468182 0)
(0.988613 0.00456851 0)
(0.996858 -0.0160481 0)
(0.985781 0.00928817 0)
(1.00639 0.00861984 0)
(1.01067 -0.012967 0)
(0.993015 -0.0230458 0)
(0.982507 -0.0143341 0)
(0.987604 -0.00601918 0)
(0.989611 -0.0037971 0)
(0.988976 0.00390684 0)
(0.98755 0.00443309 0)
(0.989605 0.00758431 0)
(0.990576 0.00920466 0)
(0.993654 0.0073178 0)
(0.993501 0.00528151 0)
(0.993357 0.00592265 0)
(0.993697 0.00263279 0)
(0.991979 0.0043561 0)
(0.991166 0.00317957 0)
(0.989857 0.00473898 0)
(0.989103 0.00474888 0)
(0.996889 -0.0157653 0)
(0.985966 0.00897035 0)
(1.0058 0.00840743 0)
(1.01087 -0.0127689 0)
(0.993978 -0.0225213 0)
(0.982628 -0.0143723 0)
(0.986909 -0.00599645 0)
(0.989019 -0.00385616 0)
(0.988514 0.00375251 0)
(0.987933 0.00469149 0)
(0.990298 0.00717653 0)
(0.991412 0.0092473 0)
(0.994311 0.00707941 0)
(0.994286 0.00534361 0)
(0.993983 0.0057742 0)
(0.994286 0.00312327 0)
(0.992653 0.00430581 0)
(0.99174 0.00377463 0)
(0.990449 0.00489118 0)
(0.989693 0.00492275 0)
(0.996902 -0.0154667 0)
(0.986099 0.00863202 0)
(1.00528 0.00820216 0)
(1.0111 -0.0126129 0)
(0.994901 -0.0219386 0)
(0.982778 -0.0144334 0)
(0.986198 -0.00590111 0)
(0.988429 -0.00394845 0)
(0.987914 0.00356377 0)
(0.988101 0.00491602 0)
(0.990818 0.00679658 0)
(0.992094 0.0091851 0)
(0.994862 0.00697432 0)
(0.994958 0.00526922 0)
(0.994606 0.0058701 0)
(0.99487 0.0031989 0)
(0.993357 0.00446447 0)
(0.992363 0.00396953 0)
(0.991081 0.00503611 0)
(0.990343 0.00512208 0)
(0.996913 -0.0151649 0)
(0.986178 0.00829592 0)
(1.00485 0.00797148 0)
(1.01132 -0.0124374 0)
(0.995721 -0.0213981 0)
(0.982968 -0.0143778 0)
(0.985552 -0.00586083 0)
(0.987888 -0.00396394 0)
(0.987269 0.00327741 0)
(0.988101 0.00513988 0)
(0.99116 0.00639873 0)
(0.992591 0.00905231 0)
(0.995265 0.00690819 0)
(0.995503 0.00520054 0)
(0.995109 0.00587222 0)
(0.995348 0.00350907 0)
(0.994019 0.0044159 0)
(0.992925 0.00428253 0)
(0.99172 0.00539473 0)
(0.99097 0.00542945 0)
(0.99694 -0.0148502 0)
(0.986208 0.0079519 0)
(1.00452 0.00774815 0)
(1.01149 -0.012286 0)
(0.996406 -0.0208449 0)
(0.983201 -0.0142465 0)
(0.985022 -0.00588391 0)
(0.987442 -0.00392029 0)
(0.986669 0.0029742 0)
(0.987963 0.00525734 0)
(0.991349 0.00608611 0)
(0.992903 0.00876677 0)
(0.995509 0.00694183 0)
(0.99586 0.00498736 0)
(0.995555 0.00594398 0)
(0.995715 0.00371978 0)
(0.994596 0.0044977 0)
(0.993531 0.00436469 0)
(0.992305 0.00578982 0)
(0.991557 0.00582041 0)
(0.99699 -0.0145062 0)
(0.986207 0.00755712 0)
(1.00427 0.00753401 0)
(1.01159 -0.0121809 0)
(0.996938 -0.0202205 0)
(0.98348 -0.0141914 0)
(0.984652 -0.00577373 0)
(0.987105 -0.00397192 0)
(0.986171 0.00273464 0)
(0.987758 0.00530298 0)
(0.991423 0.00582058 0)
(0.993056 0.00847195 0)
(0.995593 0.00695701 0)
(0.996092 0.00488371 0)
(0.995828 0.0059908 0)
(0.995945 0.00373279 0)
(0.995036 0.00480197 0)
(0.994 0.00438801 0)
(0.992877 0.00584467 0)
(0.992046 0.0059928 0)
(0.997068 -0.0141815 0)
(0.986197 0.00720611 0)
(1.00408 0.00725466 0)
(1.01157 -0.0119704 0)
(0.997334 -0.0197467 0)
(0.983795 -0.0138706 0)
(0.98444 -0.00587041 0)
(0.986887 -0.00381429 0)
(0.985835 0.00224188 0)
(0.98752 0.0055565 0)
(0.991438 0.00523715 0)
(0.993091 0.00843812 0)
(0.995576 0.0066273 0)
(0.996161 0.00513016 0)
(0.996015 0.00555853 0)
(0.996106 0.0047068 0)
(0.995364 0.00484939 0)
(0.99435 0.00526197 0)
(0.993272 0.00585472 0)
(0.992469 0.00594671 0)
(0.997166 -0.0138254 0)
(0.98621 0.00682641 0)
(1.00391 0.00701037 0)
(1.01145 -0.0118352 0)
(0.997607 -0.0191697 0)
(0.984135 -0.0136435 0)
(0.984385 -0.00588739 0)
(0.986789 -0.00369835 0)
(0.985662 0.00188542 0)
(0.987305 0.00551308 0)
(0.991437 0.00507661 0)
(0.993072 0.00790596 0)
(0.995469 0.0067688 0)
(0.996161 0.00487481 0)
(0.996167 0.00568014 0)
(0.996185 0.00464259 0)
(0.995594 0.00510364 0)
(0.99465 0.00505933 0)
(0.99351 0.0061697 0)
(0.992816 0.0063836 0)
(0.997279 -0.013436 0)
(0.986267 0.00636902 0)
(1.00375 0.00678735 0)
(1.01122 -0.0117194 0)
(0.997782 -0.0185892 0)
(0.984498 -0.0134337 0)
(0.984454 -0.005791 0)
(0.986811 -0.00377907 0)
(0.98565 0.00180923 0)
(0.98717 0.00524499 0)
(0.991421 0.00511873 0)
(0.993063 0.00728 0)
(0.995323 0.00691482 0)
(0.996108 0.00476402 0)
(0.99619 0.00586438 0)
(0.996222 0.00446591 0)
(0.9957 0.00530763 0)
(0.994861 0.00476172 0)
(0.993859 0.00626011 0)
(0.993056 0.0066263 0)
(0.997401 -0.0130911 0)
(0.986383 0.00601525 0)
(1.00358 0.00646216 0)
(1.0109 -0.0114418 0)
(0.997901 -0.0181732 0)
(0.984858 -0.0129845 0)
(0.984631 -0.00595109 0)
(0.986925 -0.00348544 0)
(0.985787 0.00115204 0)
(0.987109 0.00558725 0)
(0.991457 0.0043291 0)
(0.993063 0.00744821 0)
(0.995197 0.00638277 0)
(0.996046 0.0051547 0)
(0.996213 0.00553952 0)
(0.996206 0.00548835 0)
(0.995753 0.00529645 0)
(0.995011 0.00585056 0)
(0.994051 0.0061508 0)
(0.993269 0.00639902 0)
(0.997521 -0.0126994 0)
(0.986568 0.00559835 0)
(1.00339 0.00621629 0)
(1.01051 -0.0112768 0)
(0.99797 -0.0176666 0)
(0.985226 -0.0126508 0)
(0.984875 -0.00595944 0)
(0.987106 -0.00342218 0)
(0.986071 0.000960751 0)
(0.987108 0.00521394 0)
(0.991533 0.00449026 0)
(0.993132 0.00672122 0)
(0.995055 0.00655494 0)
(0.995994 0.00491768 0)
(0.996288 0.00557545 0)
(0.996225 0.00521471 0)
(0.99583 0.00554197 0)
(0.99514 0.00560008 0)
(0.994065 0.00643741 0)
(0.993439 0.00676556 0)
(0.997637 -0.0122741 0)
(0.986823 0.00509843 0)
(1.00317 0.00598218 0)
(1.01009 -0.0111348 0)
(0.998011 -0.0171029 0)
(0.985594 -0.0124254 0)
(0.985159 -0.00580039 0)
(0.987378 -0.00358848 0)
(0.986386 0.00102825 0)
(0.987248 0.00482013 0)
(0.991614 0.00456436 0)
(0.993235 0.00600415 0)
(0.994977 0.00684819 0)
(0.995936 0.00474406 0)
(0.996269 0.00567584 0)
(0.996231 0.00484652 0)
(0.995826 0.00577392 0)
(0.995257 0.00526916 0)
(0.994347 0.00662114 0)
(0.993557 0.00708757 0)
(0.997756 -0.011921 0)
(0.987124 0.00476007 0)
(1.00295 0.00561254 0)
(1.00962 -0.0107497 0)
(0.998052 -0.0168032 0)
(0.985952 -0.0118583 0)
(0.98548 -0.00603374 0)
(0.987662 -0.00319159 0)
(0.986815 0.000273234 0)
(0.98739 0.00517799 0)
(0.991734 0.0038012 0)
(0.993425 0.00619041 0)
(0.994916 0.00608378 0)
(0.995873 0.00544348 0)
(0.996309 0.00531724 0)
(0.996277 0.00594394 0)
(0.995875 0.00580719 0)
(0.995348 0.00650095 0)
(0.994473 0.0064117 0)
(0.99369 0.00667054 0)
(0.997865 -0.0115001 0)
(0.987477 0.00430655 0)
(1.0027 0.0053748 0)
(1.00915 -0.0105552 0)
(0.998089 -0.0163155 0)
(0.986313 -0.0115473 0)
(0.985813 -0.00593119 0)
(0.98797 -0.0032746 0)
(0.987248 0.000206953 0)
(0.987616 0.00476332 0)
(0.991864 0.00389236 0)
(0.993578 0.00552412 0)
(0.994946 0.00619723 0)
(0.99587 0.00536874 0)
(0.996387 0.00547075 0)
(0.996339 0.00552248 0)
(0.995949 0.00588504 0)
(0.995402 0.00612962 0)
(0.994381 0.00672008 0)
(0.9938 0.00706026 0)
(0.997968 -0.0110533 0)
(0.987866 0.00379092 0)
(1.00244 0.00512721 0)
(1.00867 -0.0103665 0)
(0.99811 -0.0158041 0)
(0.986695 -0.0113243 0)
(0.98613 -0.00571601 0)
(0.988312 -0.00344852 0)
(0.987699 0.000211729 0)
(0.987854 0.00442875 0)
(0.991968 0.00399045 0)
(0.993842 0.00490807 0)
(0.994965 0.00624389 0)
(0.995834 0.00510636 0)
(0.99637 0.00566413 0)
(0.996393 0.00508129 0)
(0.99601 0.00613323 0)
(0.995568 0.00581003 0)
(0.994723 0.00710684 0)
(0.993904 0.00758966 0)
(0.998079 -0.0107204 0)
(0.988265 0.00350712 0)
(1.00219 0.00469517 0)
(1.00817 -0.00986353 0)
(0.998162 -0.0156067 0)
(0.98706 -0.010689 0)
(0.986472 -0.00599866 0)
(0.988628 -0.00297694 0)
(0.988153 -0.000523933 0)
(0.98814 0.00485203 0)
(0.992085 0.00334732 0)
(0.994021 0.00517216 0)
(0.995066 0.00538041 0)
(0.995867 0.00588639 0)
(0.99642 0.00519872 0)
(0.996483 0.0061044 0)
(0.996096 0.00612967 0)
(0.995661 0.00706556 0)
(0.994846 0.00681031 0)
(0.993992 0.00708706 0)
(0.998178 -0.0102469 0)
(0.988681 0.00298692 0)
(1.00193 0.00448819 0)
(1.00769 -0.00971232 0)
(0.998198 -0.0150466 0)
(0.987456 -0.0105676 0)
(0.986802 -0.00563628 0)
(0.988938 -0.00328365 0)
(0.988643 -0.000446084 0)
(0.988381 0.00437069 0)
(0.992168 0.0036071 0)
(0.994243 0.00460553 0)
(0.995184 0.00561468 0)
(0.995857 0.00546497 0)
(0.996476 0.00514861 0)
(0.99662 0.00547815 0)
(0.996286 0.0061194 0)
(0.995758 0.00674904 0)
(0.99475 0.00716728 0)
(0.994107 0.0075452 0)
(0.998267 -0.00983534 0)
(0.989122 0.00254653 0)
(1.00166 0.00417528 0)
(1.00723 -0.00942963 0)
(0.998226 -0.0145867 0)
(0.987873 -0.0103407 0)
(0.987115 -0.00540664 0)
(0.989275 -0.00343523 0)
(0.989067 -0.000415517 0)
(0.988716 0.00374452 0)
(0.992239 0.00409664 0)
(0.994439 0.00398116 0)
(0.995289 0.00564176 0)
(0.995856 0.00493077 0)
(0.996484 0.00512598 0)
(0.996757 0.00483114 0)
(0.996462 0.00619756 0)
(0.995986 0.00645356 0)
(0.995127 0.00791654 0)
(0.994159 0.00843317 0)
(0.998375 -0.00948203 0)
(0.98954 0.00224963 0)
(1.00142 0.00376003 0)
(1.00674 -0.00893158 0)
(0.998273 -0.0143398 0)
(0.988281 -0.00987436 0)
(0.98745 -0.00548516 0)
(0.989582 -0.0031238 0)
(0.989519 -0.000891453 0)
(0.989026 0.00394194 0)
(0.992302 0.00374335 0)
(0.994607 0.00415161 0)
(0.995415 0.00500371 0)
(0.995838 0.00528877 0)
(0.996514 0.00497182 0)
(0.996947 0.00536203 0)
(0.996744 0.00612219 0)
(0.996318 0.00709077 0)
(0.995402 0.00783526 0)
(0.994198 0.00826565 0)
(0.998481 -0.0089891 0)
(0.989959 0.00172467 0)
(1.00118 0.00355181 0)
(1.00628 -0.00879015 0)
(0.998321 -0.0137653 0)
(0.988703 -0.00973829 0)
(0.987789 -0.00523114 0)
(0.989866 -0.0031421 0)
(0.98996 -0.00102519 0)
(0.989361 0.00370008 0)
(0.992357 0.00386702 0)
(0.994725 0.0039448 0)
(0.995563 0.0047554 0)
(0.995901 0.0053563 0)
(0.996566 0.00532815 0)
(0.997094 0.00547101 0)
(0.996999 0.00604557 0)
(0.996564 0.00696682 0)
(0.995573 0.00740809 0)
(0.994238 0.00790549 0)
(0.998582 -0.00864408 0)
(0.990378 0.00139354 0)
(1.00095 0.00316172 0)
(1.00583 -0.00838287 0)
(0.998359 -0.0133639 0)
(0.989128 -0.00944435 0)
(0.988128 -0.00514817 0)
(0.990146 -0.00302922 0)
(0.9904 -0.00117546 0)
(0.989713 0.00349315 0)
(0.992398 0.00385933 0)
(0.994829 0.00384416 0)
(0.995737 0.00455481 0)
(0.996001 0.00535077 0)
(0.996592 0.005438 0)
(0.997181 0.00542311 0)
(0.997233 0.00588441 0)
(0.996797 0.00675096 0)
(0.995786 0.00718517 0)
(0.99435 0.00782684 0)
(0.998681 -0.00821051 0)
(0.990798 0.00101303 0)
(1.00072 0.00285834 0)
(1.00538 -0.00814484 0)
(0.998394 -0.0128611 0)
(0.989554 -0.00921292 0)
(0.988476 -0.0050075 0)
(0.990418 -0.00290521 0)
(0.990826 -0.0012939 0)
(0.990082 0.00319258 0)
(0.992456 0.00387558 0)
(0.994905 0.00379025 0)
(0.995905 0.00432464 0)
(0.996126 0.00522806 0)
(0.996626 0.00547371 0)
(0.997259 0.00551137 0)
(0.997453 0.0058211 0)
(0.997041 0.00662663 0)
(0.99603 0.00706306 0)
(0.994481 0.00772755 0)
(0.998779 -0.00781501 0)
(0.991214 0.000623404 0)
(1.0005 0.00252547 0)
(1.00495 -0.00786455 0)
(0.998425 -0.0123491 0)
(0.989974 -0.00900452 0)
(0.988828 -0.00485791 0)
(0.99068 -0.00282382 0)
(0.991243 -0.00136519 0)
(0.990477 0.00289265 0)
(0.99253 0.00391651 0)
(0.99496 0.00371806 0)
(0.996071 0.00416038 0)
(0.996287 0.00510392 0)
(0.9967 0.00552062 0)
(0.997316 0.00563905 0)
(0.997633 0.0057474 0)
(0.997268 0.00649167 0)
(0.996268 0.00687835 0)
(0.994615 0.0075508 0)
(0.998872 -0.00742139 0)
(0.991631 0.000275819 0)
(1.00029 0.00222777 0)
(1.00452 -0.00763944 0)
(0.998446 -0.0118592 0)
(0.990391 -0.00875321 0)
(0.989188 -0.00469343 0)
(0.990939 -0.00271694 0)
(0.991653 -0.00138539 0)
(0.990893 0.00258213 0)
(0.992625 0.00389113 0)
(0.994997 0.00367123 0)
(0.996235 0.00401185 0)
(0.996467 0.00494451 0)
(0.996793 0.00547118 0)
(0.997352 0.00570669 0)
(0.997776 0.00569276 0)
(0.997483 0.00634869 0)
(0.996511 0.00669319 0)
(0.994774 0.00737696 0)
(0.998967 -0.0070264 0)
(0.992042 -7.16779e-05 0)
(1.00009 0.00191079 0)
(1.00411 -0.00741051 0)
(0.998472 -0.0113286 0)
(0.990802 -0.00848529 0)
(0.98955 -0.00456626 0)
(0.99119 -0.00261991 0)
(0.992044 -0.00139958 0)
(0.99132 0.00225966 0)
(0.992747 0.00381863 0)
(0.995028 0.00367249 0)
(0.996385 0.00386653 0)
(0.996661 0.00476932 0)
(0.996929 0.00536869 0)
(0.997402 0.0057738 0)
(0.997889 0.00567684 0)
(0.997672 0.00621086 0)
(0.996749 0.0065105 0)
(0.99494 0.00715803 0)
(0.999055 -0.00664734 0)
(0.992451 -0.000404461 0)
(0.999913 0.00161962 0)
(1.00371 -0.00718096 0)
(0.998488 -0.0108496 0)
(0.991199 -0.00822757 0)
(0.989916 -0.00443019 0)
(0.991443 -0.00249964 0)
(0.992425 -0.00138718 0)
(0.991762 0.00195445 0)
(0.992905 0.00372839 0)
(0.995048 0.00370683 0)
(0.996519 0.0037244 0)
(0.996864 0.00461799 0)
(0.997096 0.00524368 0)
(0.997459 0.00578172 0)
(0.997961 0.00565198 0)
(0.99783 0.00608984 0)
(0.996966 0.0063341 0)
(0.995121 0.0069313 0)
(0.999144 -0.00626493 0)
(0.992853 -0.000723515 0)
(0.999739 0.00133078 0)
(1.00332 -0.00697467 0)
(0.998513 -0.0103815 0)
(0.991598 -0.00792725 0)
(0.990287 -0.00426417 0)
(0.991689 -0.0023755 0)
(0.992779 -0.00136 0)
(0.992207 0.00164448 0)
(0.993097 0.00357257 0)
(0.995065 0.00371848 0)
(0.996635 0.0036068 0)
(0.997075 0.00446797 0)
(0.997288 0.00510309 0)
(0.997539 0.00573109 0)
(0.998028 0.00567777 0)
(0.997965 0.00602872 0)
(0.997169 0.00622672 0)
(0.995311 0.00674222 0)
(0.999226 -0.00590064 0)
(0.993251 -0.00103293 0)
(0.999589 0.0010445 0)
(1.00295 -0.00673428 0)
(0.998535 -0.00994131 0)
(0.991985 -0.00762969 0)
(0.990656 -0.00412636 0)
(0.991933 -0.00226174 0)
(0.993116 -0.0013154 0)
(0.992653 0.00140757 0)
(0.993327 0.0034052 0)
(0.995092 0.0037661 0)
(0.996739 0.00353862 0)
(0.997286 0.00431529 0)
(0.997497 0.00493039 0)
(0.997656 0.00563709 0)
(0.998094 0.0056838 0)
(0.998074 0.0059453 0)
(0.997333 0.00609806 0)
(0.995485 0.00648695 0)
(0.999307 -0.00552976 0)
(0.99364 -0.00130721 0)
(0.999447 0.000757538 0)
(1.00258 -0.00650844 0)
(0.998562 -0.00955251 0)
(0.992372 -0.00731425 0)
(0.991028 -0.00394492 0)
(0.992177 -0.00212825 0)
(0.993436 -0.00124275 0)
(0.993095 0.00118194 0)
(0.99359 0.00316318 0)
(0.995128 0.00376102 0)
(0.996812 0.00349876 0)
(0.997484 0.00415534 0)
(0.997722 0.00479325 0)
(0.997806 0.00553815 0)
(0.998163 0.00569334 0)
(0.998156 0.0058824 0)
(0.997455 0.00600231 0)
(0.995643 0.0062728 0)
(0.999382 -0.00520558 0)
(0.994022 -0.00155015 0)
(0.999326 0.000444898 0)
(1.00223 -0.00623451 0)
(0.998585 -0.00922032 0)
(0.992747 -0.00692545 0)
(0.991394 -0.00379213 0)
(0.992421 -0.00203764 0)
(0.993739 -0.00119012 0)
(0.993523 0.000972854 0)
(0.993888 0.00288634 0)
(0.995201 0.0037169 0)
(0.99688 0.00347258 0)
(0.997681 0.00398145 0)
(0.997962 0.00462989 0)
(0.997982 0.00536213 0)
(0.998237 0.00563494 0)
(0.998214 0.00577689 0)
(0.997539 0.00589524 0)
(0.995783 0.00607372 0)
(0.999458 -0.00484146 0)
(0.994389 -0.00182325 0)
(0.999213 0.000227153 0)
(1.0019 -0.00613705 0)
(0.998628 -0.00875778 0)
(0.993147 -0.00675236 0)
(0.991755 -0.00358874 0)
(0.992659 -0.0018249 0)
(0.994015 -0.0010893 0)
(0.993923 0.00083835 0)
(0.994197 0.00266457 0)
(0.995286 0.00366397 0)
(0.99691 0.00349624 0)
(0.997846 0.00384997 0)
(0.998196 0.00447824 0)
(0.998182 0.0051864 0)
(0.998334 0.00557313 0)
(0.998275 0.00569063 0)
(0.997611 0.00583254 0)
(0.995907 0.00591862 0)
(0.999524 -0.00451566 0)
(0.994756 -0.00204962 0)
(0.99912 -2.84841e-05 0)
(1.00158 -0.00592918 0)
(0.998655 -0.00836461 0)
(0.993516 -0.00656452 0)
(0.992145 -0.00333419 0)
(0.992899 -0.00160171 0)
(0.994275 -0.00099047 0)
(0.994321 0.000733318 0)
(0.994541 0.00244603 0)
(0.995427 0.00356129 0)
(0.99696 0.00355876 0)
(0.998009 0.00377072 0)
(0.998442 0.00434798 0)
(0.998415 0.00502756 0)
(0.998454 0.00550301 0)
(0.998342 0.00562799 0)
(0.997658 0.00578258 0)
(0.995995 0.0058016 0)
(0.999589 -0.00422003 0)
(0.995105 -0.00220424 0)
(0.999043 -0.000319209 0)
(1.00128 -0.0056412 0)
(0.998682 -0.00813068 0)
(0.9939 -0.00618397 0)
(0.992523 -0.0031766 0)
(0.993132 -0.00151191 0)
(0.994523 -0.000919877 0)
(0.9947 0.000621936 0)
(0.994889 0.00220891 0)
(0.995601 0.00339501 0)
(0.996997 0.00357052 0)
(0.998124 0.00366161 0)
(0.99866 0.00417345 0)
(0.998652 0.00480678 0)
(0.998593 0.0053625 0)
(0.998409 0.00552053 0)
(0.99769 0.005682 0)
(0.996063 0.00568485 0)
(0.99965 -0.00389162 0)
(0.995445 -0.00241582 0)
(0.998982 -0.000513709 0)
(1.00098 -0.00545743 0)
(0.998718 -0.00772753 0)
(0.994283 -0.00591537 0)
(0.992899 -0.0030803 0)