/*--------------------------------*- C++ -*----------------------------------*\
| =========                 |                                                 |
| \\      /  F ield         | OpenFOAM: The Open Source CFD Toolbox           |
|  \\    /   O peration     | Version:  v2012                                 |
|   \\  /    A nd           | Website:  www.openfoam.com                      |
|    \\/     M anipulation  |                                                 |
\*---------------------------------------------------------------------------*/
FoamFile
{
    version     2.0;
    format      ascii;
    class       volScalarField;
    location    "9.3";
    object      p;
}
// * * * * * * * * * * * * * * * * * * * * * * * * * * * * * * * * * * * * * //

dimensions      [0 2 -2 0 0 0 0];


internalField   nonuniform List<scalar> 
7000
(
-5.72235e-10
-0.000643059
-0.000148464
0.000269459
-0.00349624
0.00715125
0.00622278
0.0085084
0.00905116
0.0107032
0.0101898
0.01244
0.0112699
0.0130476
0.0124426
0.0148081
0.0150881
0.0169162
0.0179826
0.0206565
1.57665e-06
-0.000627026
-0.000156721
0.000238535
-0.00348092
0.00715033
0.00621901
0.0085117
0.0090394
0.0107
0.0102028
0.0124353
0.0112813
0.0130367
0.0124596
0.0147934
0.0150932
0.0168974
0.0179871
0.0205327
4.6632e-06
-0.000609493
-0.000179848
0.000214007
-0.00346149
0.00713821
0.00621911
0.00851032
0.00902443
0.0107045
0.0102182
0.0124258
0.0112981
0.0130108
0.0124911
0.0147602
0.0151093
0.0168582
0.0179924
0.0203398
8.5689e-06
-0.000595495
-0.000205181
0.000217697
-0.00343055
0.00711455
0.00622737
0.00849946
0.00900829
0.010716
0.0102321
0.012413
0.0113185
0.0129741
0.0125276
0.0147174
0.0151284
0.0168094
0.0179875
0.0201298
1.34084e-05
-0.000585359
-0.000225122
0.000249725
-0.00338312
0.00707958
0.00624551
0.00847851
0.00899
0.0107323
0.0102461
0.0123971
0.0113426
0.0129292
0.012569
0.0146684
0.0151478
0.016755
0.017969
0.0199284
1.9406e-05
-0.00057913
-0.000237495
0.000306949
-0.00331525
0.00703593
0.00627416
0.00844914
0.00897002
0.0107517
0.0102618
0.0123779
0.0113702
0.0128796
0.0126152
0.0146157
0.0151678
0.0166963
0.0179377
0.0197417
2.6539e-05
-0.000576385
-0.000240959
0.000385349
-0.00322749
0.00698666
0.00631247
0.00841428
0.00894955
0.0107721
0.0102802
0.0123557
0.0114014
0.0128279
0.012666
0.014561
0.0151886
0.0166338
0.0178948
0.0195664
3.45463e-05
-0.000575669
-0.000234096
0.000479395
-0.00312364
0.00693422
0.00635866
0.00837699
0.00892926
0.0107918
0.0103018
0.0123304
0.0114361
0.0127753
0.0127212
0.0145055
0.0152093
0.0165685
0.0178408
0.019398
4.30825e-05
-0.000574591
-0.000216507
0.000583259
-0.0030094
0.00688001
0.00641078
0.00833946
0.00890921
0.0108096
0.0103263
0.012302
0.0114745
0.0127223
0.0127811
0.0144501
0.0152284
0.0165022
0.0177759
0.0192344
5.18735e-05
-0.000570405
-0.000188997
0.000691909
-0.00289057
0.00682461
0.00646737
0.00830293
0.00888944
0.0108245
0.0103525
0.01227
0.0115162
0.012669
0.0128456
0.0143955
0.0152451
0.0164371
0.0177006
0.0190747
6.07963e-05
-0.000560677
-0.000152922
0.000801682
-0.00277197
0.00676819
0.00652771
0.00826813
0.00887025
0.0108355
0.0103791
0.0122341
0.0115611
0.0126156
0.0129139
0.0143433
0.0152584
0.0163748
0.0176158
0.0189186
6.98846e-05
-0.000543796
-0.000109607
0.000910397
-0.00265675
0.00671079
0.00659168
0.00823563
0.00885218
0.0108421
0.0104054
0.0121942
0.0116085
0.012562
0.0129847
0.0142952
0.0152671
0.0163164
0.0175236
0.0187659
7.92738e-05
-0.00051919
-6.0192e-05
0.00101714
-0.00254615
0.00665242
0.00665931
0.00820585
0.00883577
0.010844
0.0104313
0.01215
0.0116581
0.0125087
0.013056
0.0142531
0.0152694
0.0162624
0.0174258
0.0186166
8.91246e-05
-0.000487291
-5.66643e-06
0.00112185
-0.00243973
0.00659306
0.00673055
0.00817895
0.0088214
0.0108412
0.010457
0.0121015
0.0117096
0.012456
0.0131258
0.0142185
0.0152638
0.0162125
0.0173244
0.01847
9.95719e-05
-0.00044922
5.31048e-05
0.0012249
-0.00233591
0.00653268
0.00680513
0.00815476
0.00880921
0.010834
0.0104835
0.012049
0.0117624
0.0124047
0.0131917
0.0141922
0.015249
0.0161656
0.0172207
0.0183255
0.00011071
-0.000406354
0.000115406
0.00132674
-0.00223267
0.00647124
0.00688267
0.00813288
0.00879912
0.0108227
0.0105113
0.0119929
0.0118161
0.0123556
0.0132516
0.0141742
0.0152247
0.0161199
0.0171156
0.0181823
0.000122604
-0.000359977
0.000180701
0.00142772
-0.00212811
0.00640868
0.00696273
0.00811279
0.00879097
0.0108077
0.0105412
0.0119338
0.0118696
0.0123101
0.0133035
0.014164
0.015191
0.0160731
0.0170096
0.0180395
0.000135304
-0.000311094
0.000248647
0.00152802
-0.00202071
0.00634495
0.00704495
0.00809398
0.00878457
0.0107893
0.0105735
0.0118726
0.0119216
0.0122693
0.0133461
0.014161
0.0151483
0.0160229
0.0169034
0.0178968
0.00014886
-0.00026039
0.000319065
0.00162773
-0.00190941
0.00628003
0.00712899
0.00807603
0.00877976
0.0107678
0.0106083
0.0118104
0.0119707
0.0122344
0.0133784
0.014164
0.015098
0.0159671
0.0167973
0.0177543
0.000163332
-0.000208281
0.000391901
0.00172684
-0.00179348
0.00621386
0.00721459
0.00805865
0.00877628
0.0107437
0.0106456
0.0117486
0.0120153
0.0122063
0.0133998
0.0141716
0.0150416
0.0159042
0.0166912
0.0176125
0.000178787
-0.000154983
0.00046718
0.00182532
-0.0016725
0.00614646
0.00730148
0.0080417
0.00877384
0.0107174
0.0106852
0.0116887
0.012054
0.0121853
0.0134099
0.0141816
0.0149811
0.0158337
0.0165849
0.0174717
0.000195305
-0.000100584
0.000544978
0.00192309
-0.00154625
0.00607784
0.00738936
0.00802516
0.00877213
0.0106896
0.0107248
0.0116319
0.0120858
0.0121716
0.0134093
0.0141915
0.0149177
0.0157557
0.0164789
0.017332
0.000212975
-4.50927e-05
0.000625396
0.00202009
-0.00141467
0.00600806
0.00747795
0.00800916
0.00877072
0.0106611
0.0107628
0.0115791
0.0121099
0.0121644
0.0133993
0.0141991
0.0148513
0.0156707
0.0163738
0.0171944
0.000231897
1.15222e-05
0.000708541
0.00211621
-0.00127781
0.00593721
0.00756697
0.00799407
0.00876889
0.0106329
0.0107986
0.0115312
0.0121261
0.0121624
0.0133816
0.0142037
0.0147817
0.0155775
0.0162701
0.0170603
0.000252181
6.93031e-05
0.000794521
0.00221131
-0.00113582
0.00586544
0.00765598
0.00798051
0.00876572
0.0106058
0.0108318
0.011488
0.0121347
0.0121641
0.0133569
0.0142049
0.0147107
0.0154749
0.0161664
0.0169309
0.000273951
0.000128285
0.000883447
0.00230524
-0.000988987
0.00579307
0.00774442
0.00796922
0.00876035
0.0105807
0.0108616
0.0114495
0.0121362
0.012168
0.0133254
0.0142017
0.0146404
0.0153635
0.0160605
0.0168065
0.000297338
0.000188508
0.000975384
0.00239791
-0.000837541
0.00572036
0.00783178
0.00796118
0.00875173
0.0105582
0.0108876
0.0114155
0.0121313
0.0121725
0.0132878
0.0141922
0.0145721
0.0152455
0.0159511
0.016686
0.000322487
0.000249984
0.00107041
0.00248912
-0.000681557
0.00564772
0.00791718
0.00795756
0.00873912
0.0105385
0.01091
0.0113842
0.0121218
0.0121766
0.013245
0.0141748
0.0145061
0.0151232
0.0158376
0.0165683
0.000349563
0.000312706
0.00116867
0.00257875
-0.000521519
0.00557602
0.0079997
0.00795906
0.00872225
0.0105215
0.0109295
0.011355
0.0121082
0.0121798
0.0131965
0.0141479
0.0144458
0.0150007
0.015713
0.0164527
0.000378704
0.000376712
0.00127013
0.00266686
-0.000357597
0.00550579
0.00807874
0.0079667
0.0087003
0.0105075
0.0109456
0.0113279
0.0120909
0.0121827
0.0131404
0.0141089
0.0143848
0.0148781
0.0155944
0.0163384
0.000410117
0.000441949
0.00137491
0.0027534
-0.000189948
0.00543786
0.0081531
0.00798155
0.00867211
0.0104957
0.01096
0.0113008
0.0120703
0.0121878
0.0130774
0.0140563
0.0143225
0.0147547
0.0154827
0.0162246
0.000443953
0.000508474
0.00148305
0.0028385
-1.91958e-05
0.00537355
0.00822149
0.00800381
0.00864086
0.0104846
0.0109754
0.0112708
0.0120485
0.0121931
0.0130116
0.0139958
0.0142631
0.0146317
0.0153369
0.0161114
0.000480325
0.000576295
0.00159434
0.00292246
0.00015484
0.00531325
0.00828387
0.00803359
0.00860585
0.0104736
0.0109922
0.011234
0.0120275
0.0121962
0.0129427
0.0139226
0.0142009
0.0145078
0.015199
0.0160014
0.000519667
0.000645144
0.00170903
0.00300524
0.000331416
0.00525828
0.00833961
0.00807086
0.00856901
0.0104596
0.0110174
0.0111887
0.0120067
0.0122027
0.0128749
0.0138405
0.0141382
0.0143881
0.0150044
0.0158933
0.000561943
0.000715422
0.00182686
0.0030874
0.00050948
0.0052101
0.00838708
0.0081167
0.00852934
0.0104426
0.0110454
0.0111509
0.0119679
0.0122158
0.0128052
0.0137288
0.0140625
0.0142827
0.0148649
0.0157837
0.000607232
0.000787005
0.00194731
0.00316978
0.000688991
0.00516883
0.00842699
0.00816992
0.00848841
0.0104242
0.0110725
0.0111217
0.0119167
0.0122158
0.0127288
0.0136043
0.0139718
0.0141895
0.014791
0.0156736
0.000656308
0.00085933
0.00207076
0.00325202
0.000869202
0.00513545
0.00846007
0.00822694
0.00845462
0.0103909
0.0111125
0.0110792
0.0118631
0.012225
0.0126672
0.0134763
0.013882
0.014102
0.0146007
0.0155687
0.000708848
0.000933233
0.00219637
0.00333528
0.00104881
0.00511099
0.00848485
0.00829091
0.008423
0.010353
0.011149
0.0110496
0.01179
0.0122119
0.0126021
0.0133464
0.0137755
0.0140258
0.0145047
0.0154683
0.000764931
0.00100855
0.00232321
0.00342071
0.00122803
0.00509468
0.00850301
0.00836051
0.00839287
0.0103178
0.0111796
0.0110422
0.011704
0.0121653
0.0125318
0.013217
0.0136548
0.0139514
0.0145112
0.0153734
0.000825772
0.00108451
0.00245182
0.00350751
0.00140681
0.00508641
0.00851787
0.00842573
0.0083788
0.0102515
0.0112208
0.0110132
0.011624
0.0121607
0.0124863
0.0130918
0.0135396
0.0138487
0.0143033
0.0152885
0.00089061
0.0011626
0.00258085
0.0035974
0.00158346
0.00508742
0.0085265
0.00849497
0.00836869
0.010142
0.0112476
0.0110101
0.0115369
0.0120976
0.0124319
0.0129742
0.0134098
0.0137543
0.0142307
0.0152167
0.000959359
0.00124275
0.00270894
0.00369162
0.00175944
0.00509546
0.0085307
0.0085696
0.00836149
0.0100912
0.0112526
0.0110001
0.0114003
0.0120267
0.012372
0.0128611
0.0132622
0.0136665
0.014308
0.0151549
0.00103371
0.00132379
0.0028375
0.00378825
0.00193551
0.00510958
0.00853655
0.00863435
0.00837112
0.0100119
0.0112771
0.0110284
0.0113218
0.0119416
0.0123277
0.0127504
0.0131305
0.0135193
0.0140573
0.0150982
0.00111229
0.00140796
0.00296401
0.00389003
0.00211
0.00513118
0.00853798
0.00870469
0.00837874
0.00994453
0.0112809
0.0110265
0.0112323
0.0118475
0.0122663
0.0126451
0.0129792
0.0133913
0.013981
0.0150508
0.00119536
0.00149517
0.00308723
0.00399728
0.00228533
0.00515706
0.00853612
0.00878322
0.00838714
0.00987454
0.0112435
0.0110312
0.0111152
0.0117474
0.012188
0.0125424
0.0128026
0.0132825
0.0140959
0.0150123
0.00128465
0.00158416
0.00320978
0.00410607
0.00246503
0.00518414
0.00853998
0.00884976
0.00841351
0.00979435
0.0112454
0.0111049
0.0110478
0.0116246
0.0121127
0.0124375
0.0126322
0.0130454
0.0137688
0.014985
0.00137797
0.00167748
0.00332825
0.0042198
0.00264752
0.00521405
0.0085417
0.00891772
0.00844234
0.00971263
0.0112256
0.0111201
0.0109824
0.0114871
0.0120116
0.0123285
0.0124544
0.0127845
0.0135715
0.0149886
0.00147664
0.0017747
0.00344263
0.00433844
0.00283209
0.0052486
0.00853654
0.00899259
0.00847401
0.00962698
0.0111771
0.0111707
0.0109233
0.0113504
0.0118878
0.0122225
0.0122954
0.0125777
0.0134269
0.0149748
0.00158135
0.00187543
0.00355421
0.00445872
0.00302187
0.00528794
0.00852689
0.00906464
0.00851358
0.00953858
0.0111205
0.0112142
0.0108828
0.011215
0.0117413
0.0121129
0.0121756
0.0124234
0.0132894
0.0149399
0.0016906
0.00198087
0.00366234
0.00458045
0.00321735
0.00533137
0.00851272
0.00913278
0.00856036
0.00945477
0.0110494
0.0112513
0.0108608
0.0110835
0.0115755
0.0119964
0.0120899
0.0123074
0.0131721
0.0148909
0.00180549
0.00209094
0.00376792
0.00470214
0.00341717
0.00538043
0.00849377
0.00919634
0.00861767
0.00937491
0.0109585
0.0112816
0.0108553
0.0109623
0.0114021
0.0118727
0.012028
0.0122336
0.0130762
0.0148343
0.00192602
0.0022056
0.00387136
0.00482291
0.00362149
0.00543557
0.00846955
0.00925566
0.00868532
0.00929748
0.010853
0.0113058
0.010864
0.0108564
0.0112291
0.0117341
0.01197
0.0121893
0.0130104
0.0147833
0.00205198
0.00232479
0.00397409
0.00494235
0.00382769
0.00549703
0.00844291
0.00930894
0.00875955
0.00923
0.0107387
0.0113175
0.0108799
0.0107662
0.0110624
0.0115807
0.0119095
0.0121724
0.0129759
0.0147474
0.00218357
0.002449
0.00407587
0.00505861
0.00403471
0.00556679
0.0084148
0.00935391
0.00884015
0.00917827
0.0106109
0.0113073
0.0109021
0.0106971
0.0109135
0.0114187
0.0118344
0.0121679
0.0129777
0.0147304
0.00232094
0.00257792
0.00417724
0.00517268
0.00424194
0.00564377
0.00838489
0.00939141
0.00892649
0.00914172
0.0104707
0.0112767
0.0109376
0.0106525
0.0107835
0.0112486
0.0117385
0.0121669
0.0130055
0.0147387
0.00246428
0.0027119
0.00428622
0.0052852
0.00444746
0.00572587
0.0083552
0.00942327
0.00901582
0.00912104
0.0103273
0.0112281
0.0109801
0.0106228
0.010664
0.0110757
0.0116273
0.0121595
0.0130577
0.0147747
0.00261313
0.00285173
0.0043869
0.00539618
0.00465084
0.00581285
0.0083261
0.00944832
0.00910573
0.00911897
0.0101864
0.0111562
0.0110177
0.0106037
0.0105608
0.0109177
0.0115136
0.012147
0.0131111
0.0148239
0.00276697
0.00299747
0.00448746
0.00550688
0.00484951
0.005903
0.00830106
0.0094676
0.0091945
0.00913464
0.0100583
0.0110607
0.0110457
0.0106031
0.0104833
0.0107767
0.0113896
0.0121097
0.0131509
0.0148775
0.00292697
0.00314786
0.00459019
0.00560435
0.00504157
0.00599698
0.00827843
0.00948161
0.00928357
0.00916679
0.0099433
0.0109437
0.0110618
0.0106224
0.0104276
0.0106463
0.0112549
0.0120519
0.0131739
0.0149386
0.00309345
0.00330324
0.00469607
0.00570601
0.00523286
0.00609759
0.00824284
0.00948765
0.00937731
0.00921655
0.0098459
0.0108111
0.0110606
0.0106532
0.0103892
0.0105305
0.011118
0.0119763
0.0131877
0.0150016
0.00326453
0.00346498
0.00480374
0.00580958
0.00541839
0.00619679
0.00820945
0.00949129
0.00947081
0.00927808
0.00976987
0.0106708
0.0110341
0.0106881
0.0103727
0.0104374
0.0109859
0.0118906
0.0131789
0.0150526
0.00343986
0.00363286
0.00491326
0.00591219
0.00559501
0.00629801
0.0081854
0.0094903
0.00955718
0.00934704
0.00971731
0.0105298
0.0109797
0.0107219
0.0103779
0.0103673
0.0108616
0.0117902
0.0131455
0.0150874
0.00362032
0.00380577
0.00502421
0.00601119
0.00576828
0.00640646
0.00816735
0.00948138
0.00963618
0.00942175
0.00968648
0.010397
0.0109028
0.0107464
0.0103972
0.0103214
0.0107521
0.0116797
0.0130883
0.0151095
0.00380515
0.0039828
0.00513622
0.00610957
0.00593999
0.00652084
0.00815466
0.00946601
0.00970736
0.00949859
0.00967523
0.0102796
0.0108089
0.0107535
0.0104239
0.0102997
0.0106617
0.0115681
0.0130201
0.0151197
0.00399349
0.0041638
0.00525064
0.00620789
0.00610929
0.00663945
0.00814817
0.00944557
0.00977018
0.00957682
0.00967745
0.0101795
0.0107032
0.0107412
0.0104539
0.0102982
0.0105918
0.0114656
0.0129459
0.0151163
0.00418515
0.00434886
0.00536768
0.00630598
0.00627537
0.00676189
0.00814923
0.00942069
0.00982364
0.00965487
0.00968983
0.0100978
0.010595
0.0107128
0.010482
0.0103106
0.0105453
0.0113797
0.0128712
0.0151043
0.00437989
0.00453756
0.00548734
0.00640415
0.00643854
0.00688799
0.00815791
0.00939215
0.00986667
0.0097317
0.00971404
0.0100377
0.0104928
0.0106679
0.0104992
0.0103317
0.0105222
0.0113126
0.0128021
0.0150866
0.00457728
0.00472942
0.00561043
0.00650307
0.00659808
0.00701632
0.00817431
0.0093619
0.00989932
0.00980833
0.00974614
0.00999521
0.0103983
0.0106077
0.0105031
0.0103572
0.0105174
0.0112645
0.0127436
0.0150672
0.00477696
0.00492432
0.00573735
0.00660242
0.00675306
0.0071462
0.0081995
0.00933231
0.00992194
0.00988343
0.00978431
0.0099644
0.0103129
0.0105395
0.0104946
0.0103819
0.0105271
0.0112373
0.0127012
0.0150524
0.00497862
0.00512201
0.00586797
0.006702
0.00690376
0.00727758
0.00823356
0.00930511
0.00993391
0.00995377
0.00982793
0.00994502
0.0102412
0.0104698
0.0104742
0.0104031
0.0105489
0.0112312
0.0126777
0.0150445
0.00518196
0.00532201
0.00600238
0.0068024
0.00705006
0.0074095
0.00827606
0.00928173
0.00993527
0.0100176
0.00987834
0.00993803
0.010183
0.0104021
0.0104445
0.0104171
0.010576
0.0112417
0.0126718
0.0150431
0.00538661
0.00552397
0.00614071
0.00690365
0.00719162
0.00754142
0.00832663
0.00926382
0.00992802
0.0100738
0.00993479
0.00994069
0.0101361
0.0103399
0.010408
0.01042
0.0106033
0.0112652
0.0126811
0.0150502
0.00559215
0.00572745
0.00628303
0.00700587
0.00732851
0.00767272
0.00838427
0.00925278
0.00991468
0.0101195
0.00999422
0.00995218
0.0100999
0.0102846
0.0103678
0.0104145
0.0106293
0.0112961
0.0127024
0.0150668
0.00579831
0.00593198
0.00642914
0.0071094
0.00746088
0.00780253
0.00844817
0.00924983
0.00989725
0.0101532
0.0100542
0.00997289
0.0100732
0.0102362
0.0103296
0.0104047
0.0106488
0.0113271
0.0127319
0.0150912
0.00600469
0.00613709
0.00657906
0.00721442
0.00758846
0.00793025
0.00851767
0.00925535
0.00987819
0.0101748
0.0101124
0.0100018
0.0100548
0.0101946
0.0102953
0.0103906
0.0106597
0.0113557
0.0127647
0.0151193
0.00621092
0.0063422
0.00673244
0.00732113
0.00771156
0.00805555
0.00859168
0.00926905
0.00986028
0.0101846
0.0101651
0.0100376
0.010045
0.0101587
0.0102628
0.0103745
0.010666
0.0113798
0.0127944
0.0151477
0.00641667
0.00654685
0.00688903
0.00742966
0.0078302
0.00817785
0.00866911
0.00929039
0.00984606
0.0101841
0.0102091
0.0100785
0.0100439
0.0101273
0.0102316
0.0103592
0.0106687
0.0113967
0.0128186
0.0151742
0.00662156
0.00675041
0.00704838
0.00754041
0.00794457
0.00829663
0.00874921
0.00931789
0.00983702
0.0101765
0.0102421
0.0101215
0.0100511
0.0101007
0.0102008
0.0103424
0.0106668
0.0114073
0.0128373
0.0151964
0.00682522
0.00695241
0.00720995
0.00765337
0.00805504
0.00841134
0.00883128
0.00935077
0.00983377
0.010165
0.0102623
0.0101621
0.0100658
0.0100803
0.0101695
0.0103217
0.0106605
0.0114128
0.0128498
0.0152135
0.00702719
0.00715225
0.00737318
0.0077689
0.00816213
0.00852119
0.00891425
0.00938818
0.00983587
0.0101526
0.0102701
0.0101961
0.0100857
0.0100667
0.0101388
0.0102968
0.0106492
0.0114123
0.0128561
0.015225
0.00722715
0.00734953
0.00753707
0.0078866
0.00826671
0.00862615
0.00899717
0.00942939
0.00984212
0.0101417
0.0102677
0.0102191
0.010106
0.010059
0.0101103
0.0102686
0.0106322
0.0114058
0.0128567
0.0152302
0.00742454
0.00754377
0.00770118
0.00800621
0.0083691
0.00872599
0.00907861
0.00947388
0.00985109
0.010133
0.0102596
0.0102297
0.0101218
0.0100539
0.0100841
0.0102377
0.0106093
0.0113925
0.0128499
0.0152279
0.00761888
0.00773433
0.00786449
0.0081276
0.00847011
0.0088211
0.00915746
0.00952095
0.00986085
0.0101245
0.010249
0.0102298
0.0101298
0.010048
0.010059
0.0102042
0.0105798
0.0113709
0.012835
0.0152181
0.00780978
0.00792089
0.00802625
0.00825016
0.00856985
0.00891201
0.00923248
0.00956992
0.00987244
0.0101142
0.0102362
0.0102217
0.0101277
0.0100368
0.0100313
0.010166
0.0105422
0.0113396
0.0128102
0.0151988
0.00799631
0.00810286
0.0081858
0.00837353
0.00866851
0.00899943
0.00930251
0.00961818
0.00988611
0.0101016
0.0102203
0.0102086
0.0101181
0.0100197
0.00999892
0.0101224
0.010496
0.0112969
0.0127717
0.0151644
0.00817777
0.00827976
0.00834276
0.00849769
0.00876594
0.0090835
0.00936775
0.00966303
0.00990835
0.0100862
0.0101982
0.0101894
0.010101
0.00999698
0.00996194
0.0100737
0.0104423
0.0112444
0.0127218
0.0151172
0.00835341
0.00845067
0.00849555
0.00862233
0.00886393
0.00916514
0.00942797
0.00970058
0.00992569
0.0100705
0.0101674
0.0101609
0.0100747
0.00996633
0.00991772
0.0100165
0.0103773
0.0111782
0.0126571
0.015055
0.0085225
0.0086161
0.00864377
0.00874427
0.00895947
0.00924664
0.00948932
0.0097303
0.00993693
0.0100555
0.0101309
0.0101242
0.0100399
0.00992772
0.00986464
0.00994793
0.0102966
0.011093
0.0125724
0.0149723
0.00868261
0.00877403
0.00879052
0.00887049
0.00905318
0.00931593
0.00954023
0.00975252
0.00994862
0.0100436
0.0100943
0.0100831
0.00999953
0.00988363
0.00980564
0.00986996
0.0102037
0.0109907
0.0124652
0.0148611
0.00883356
0.00892274
0.00892794
0.00899944
0.00916175
0.00939442
0.0095865
0.00975978
0.00992958
0.010019
0.0100482
0.0100312
0.00994735
0.00982745
0.0097355
0.00977938
0.0100943
0.0108684
0.0123342
0.0147239
0.00897446
0.00905884
0.00905312
0.00910854
0.00925155
0.00947549
0.00964856
0.00976853
0.00990916
0.0099962
0.0100122
0.00998313
0.0098916
0.00976237
0.00965499
0.00967807
0.00997258
0.01073
0.0121856
0.0145701
0.00910419
0.00921438
0.00921866
0.00925533
0.00934102
0.00948328
0.00961466
0.00973309
0.0098893
0.00997779
0.00998777
0.00994229
0.00983316
0.009686
0.0095563
0.0095548
0.00982836
0.0105677
0.0120101
0.0143859
0.00916583
0.00927407
0.00933758
0.0094125
0.00955887
0.00967571
0.00963108
0.0096252
0.00973199
0.00988082
0.00991805
0.00986499
0.00973624
0.00956369
0.00940413
0.0093671
0.00961318
0.0103231
0.0117373
0.0140888
0.00937568
0.00947411
0.00944792
0.00942953
0.00943353
0.00953888
0.00974325
0.00987057
0.00994732
0.0100186
0.0100223
0.00995247
0.00981454
0.0096297
0.00943404
0.00932814
0.00945385
0.0100352
0.0113271
0.0135627
0.00942022
0.00958198
0.00949508
0.00954475
0.00962509
0.00958877
0.00956491
0.00962144
0.00971292
0.00979932
0.0097932
0.00972257
0.00961247
0.00953745
0.00951799
0.00960903
0.00989904
0.0105666
0.011858
0.0140431
0.00968232
0.00966549
0.0095467
0.00947268
0.00948416
0.00960788
0.00984
0.0100602
0.0100899
0.0101325
0.0100715
0.00990508
0.00960661
0.00918421
0.00872515
0.00834323
0.00821853
0.00857167
0.00965118
0.011691
0.00995665
0.00963558
0.00948931
0.00939666
0.00944462
0.00944637
0.00944553
0.00957141
0.00972361
0.00970539
0.00966562
0.00968094
0.00991382
0.0104129
0.0112265
0.0122877
0.013426
0.0143512
0.0147148
0.0141835
0.0100075
0.00973661
0.00954197
0.00952112
0.00962871
0.00979977
0.0100316
0.0102034
0.0102583
0.0101801
0.00994924
0.00951833
0.008894
0.00817353
0.00747332
0.00688522
0.0065381
0.00663535
0.00744629
0.0092196
0.0102069
0.00974869
0.00952143
0.00948328
0.00962402
0.00967374
0.00966886
0.00954946
0.00945542
0.00954168
0.00962865
0.00956214
0.00950621
0.0096307
0.0100319
0.0107031
0.0115597
0.0123264
0.0126219
0.0120863
0.0102244
0.0097595
0.00956595
0.00962279
0.00986369
0.0101481
0.0104646
0.0106437
0.010639
0.0103653
0.0097802
0.00881258
0.00751766
0.00608524
0.00477165
0.00378547
0.00327251
0.00339599
0.00436641
0.0063737
0.0237261
0.0131412
0.00966154
0.0116659
0.0141262
0.015998
0.0176431
0.0193557
0.0211204
0.0228128
0.0244242
0.0261028
0.0279623
0.0298417
0.0316137
0.0334139
0.0353071
0.0372076
0.039133
0.0411765
0.0433145
0.0455135
0.0478228
0.0502417
0.0526658
0.0551469
0.057753
0.060483
0.0633051
0.0662494
0.069296
0.0724346
0.0756708
0.0790432
0.0825497
0.0861619
0.0899113
0.0937847
0.0978151
0.101973
0.106302
0.110763
0.115368
0.12013
0.125011
0.130117
0.13522
0.140599
0.145638
0.150616
0.0234902
0.0131979
0.0097043
0.0116838
0.0141358
0.016004
0.0176472
0.019359
0.0211231
0.0228151
0.0244261
0.0261044
0.0279637
0.0298429
0.0316148
0.0334148
0.035308
0.0372084
0.0391337
0.0411771
0.043315
0.045514
0.0478233
0.0502422
0.0526662
0.0551472
0.0577533
0.0604833
0.0633054
0.0662497
0.0692962
0.0724348
0.075671
0.0790434
0.0825499
0.086162
0.0899114
0.0937848
0.0978152
0.101973
0.106302
0.110763
0.115368
0.120131
0.125011
0.130117
0.13522
0.140599
0.145638
0.150616
0.0232043
0.0132906
0.00977234
0.0117061
0.014147
0.0160107
0.0176516
0.0193621
0.0211256
0.0228172
0.0244279
0.0261059
0.027965
0.0298441
0.0316158
0.0334157
0.0353087
0.0372091
0.0391343
0.0411777
0.0433156
0.0455145
0.0478237
0.0502426
0.0526666
0.0551476
0.0577536
0.0604835
0.0633056
0.0662499
0.0692964
0.072435
0.0756712
0.0790435
0.08255
0.0861622
0.0899116
0.0937849
0.0978153
0.101974
0.106302
0.110763
0.115368
0.120131
0.125011
0.130118
0.13522
0.140599
0.145638
0.150616
0.022942
0.0134199
0.00987321
0.0117388
0.0141628
0.0160203
0.0176573
0.0193659
0.0211285
0.0228196
0.0244299
0.0261075
0.0279664
0.0298453
0.0316168
0.0334166
0.0353095
0.0372098
0.0391349
0.0411782
0.0433161
0.045515
0.0478241
0.050243
0.0526669
0.0551479
0.0577539
0.0604838
0.0633059
0.0662501
0.0692966
0.0724352
0.0756714
0.0790437
0.0825502
0.0861623
0.0899117
0.093785
0.0978154
0.101974
0.106302
0.110763
0.115368
0.120131
0.125011
0.130118
0.13522
0.140599
0.145638
0.150616
0.0226995
0.0135723
0.0100002
0.0117823
0.0141845
0.0160342
0.0176656
0.0193711
0.0211321
0.0228225
0.0244323
0.0261094
0.027968
0.0298467
0.0316181
0.0334176
0.0353104
0.0372106
0.0391356
0.0411788
0.0433167
0.0455155
0.0478246
0.0502434
0.0526673
0.0551482
0.0577542
0.0604841
0.0633061
0.0662504
0.0692968
0.0724354
0.0756715
0.0790439
0.0825503
0.0861624
0.0899118
0.0937852
0.0978156
0.101974
0.106302
0.110764
0.115369
0.120131
0.125011
0.130118
0.13522
0.1406
0.145638
0.150616
0.0224578
0.0137338
0.0101416
0.0118325
0.014211
0.0160524
0.0176769
0.0193781
0.0211369
0.0228261
0.0244353
0.0261119
0.0279699
0.0298483
0.0316195
0.0334188
0.0353114
0.0372114
0.0391363
0.0411795
0.0433173
0.0455161
0.0478251
0.0502439
0.0526678
0.0551486
0.0577545
0.0604844
0.0633064
0.0662506
0.0692971
0.0724356
0.0756717
0.079044
0.0825505
0.0861626
0.089912
0.0937853
0.0978157
0.101974
0.106303
0.110764
0.115369
0.120131
0.125011
0.130118
0.13522
0.1406
0.145638
0.150616
0.0222101
0.0138984
0.0102911
0.0118862
0.0142404
0.0160738
0.0176909
0.0193868
0.0211427
0.0228307
0.0244393
0.0261151
0.0279723
0.0298502
0.0316211
0.0334203
0.0353126
0.0372124
0.0391372
0.0411803
0.043318
0.0455167
0.0478257
0.0502445
0.0526683
0.055149
0.0577549
0.0604848
0.0633068
0.0662509
0.0692973
0.0724359
0.0756719
0.0790442
0.0825507
0.0861628
0.0899121
0.0937854
0.0978158
0.101974
0.106303
0.110764
0.115369
0.120131
0.125011
0.130118
0.13522
0.1406
0.145638
0.150617
0.0219577
0.0140649
0.0104473
0.0119423
0.0142713
0.0160972
0.0177067
0.019397
0.0211496
0.0228361
0.0244441
0.0261191
0.027975
0.0298522
0.031623
0.033422
0.035314
0.0372136
0.0391382
0.0411811
0.0433187
0.0455174
0.0478264
0.0502451
0.0526689
0.0551495
0.0577553
0.0604852
0.0633071
0.0662513
0.0692977
0.0724361
0.0756722
0.0790444
0.0825509
0.0861629
0.0899123
0.0937856
0.097816
0.101974
0.106303
0.110764
0.115369
0.120131
0.125011
0.130118
0.13522
0.1406
0.145639
0.150617
0.0217033
0.0142331
0.01061
0.0120004
0.014303
0.016122
0.0177239
0.0194082
0.0211572
0.0228423
0.0244499
0.0261239
0.0279783
0.0298545
0.031625
0.0334239
0.0353157
0.037215
0.0391395
0.0411822
0.0433196
0.0455181
0.0478271
0.0502459
0.0526696
0.0551501
0.0577559
0.0604856
0.0633075
0.0662517
0.069298
0.0724365
0.0756724
0.0790447
0.0825511
0.0861631
0.0899125
0.0937857
0.0978161
0.101974
0.106303
0.110764
0.115369
0.120131
0.125011
0.130118
0.13522
0.1406
0.145639
0.150618
0.021449
0.0144022
0.0107794
0.0120607
0.0143353
0.0161477
0.017742
0.0194202
0.0211654
0.022849
0.0244564
0.0261295
0.027982
0.0298569
0.0316272
0.033426
0.0353175
0.0372166
0.039141
0.0411835
0.0433206
0.0455189
0.0478278
0.0502466
0.0526703
0.0551508
0.0577565
0.0604862
0.063308
0.0662521
0.0692984
0.0724368
0.0756727
0.0790449
0.0825513
0.0861633
0.0899127
0.0937859
0.0978163
0.101974
0.106303
0.110764
0.115369
0.120131
0.125011
0.130118
0.13522
0.1406
0.14564
0.150618
0.0211965
0.0145713
0.010955
0.0121234
0.0143681
0.0161741
0.0177609
0.0194328
0.021174
0.0228561
0.0244634
0.0261357
0.0279861
0.0298594
0.0316294
0.0334281
0.0353194
0.0372184
0.0391428
0.0411851
0.0433218
0.0455199
0.0478286
0.0502474
0.0526712
0.0551516
0.0577572
0.0604868
0.0633086
0.0662526
0.0692989
0.0724372
0.0756731
0.0790452
0.0825516
0.0861636
0.0899129
0.0937861
0.0978164
0.101975
0.106303
0.110764
0.115369
0.120132
0.125012
0.130118
0.135221
0.140601
0.14564
0.150619
0.0209474
0.0147392
0.0111365
0.0121885
0.0144012
0.0162012
0.0177805
0.0194459
0.021183
0.0228635
0.0244707
0.0261423
0.0279906
0.0298621
0.0316316
0.0334303
0.0353213
0.0372202
0.0391447
0.041187
0.0433234
0.045521
0.0478294
0.0502482
0.052672
0.0551525
0.0577581
0.0604876
0.0633092
0.0662532
0.0692994
0.0724377
0.0756735
0.0790456
0.0825519
0.0861638
0.0899131
0.0937863
0.0978166
0.101975
0.106303
0.110764
0.115369
0.120132
0.125012
0.130119
0.135221
0.140601
0.145641
0.15062
0.0207031
0.0149048
0.0113233
0.0122562
0.0144346
0.0162288
0.0178007
0.0194595
0.0211924
0.0228712
0.0244783
0.0261493
0.0279954
0.029865
0.0316338
0.0334324
0.0353232
0.0372221
0.0391467
0.041189
0.0433252
0.0455223
0.0478302
0.0502489
0.0526729
0.0551535
0.0577591
0.0604885
0.06331
0.0662538
0.0693
0.0724383
0.075674
0.079046
0.0825523
0.0861642
0.0899134
0.0937865
0.0978168
0.101975
0.106304
0.110765
0.11537
0.120132
0.125012
0.130119
0.135221
0.140602
0.145642
0.150621
0.0204645
0.0150675
0.011515
0.0123267
0.0144681
0.016257
0.0178217
0.0194737
0.0212023
0.0228793
0.0244861
0.0261566
0.0280005
0.029868
0.0316362
0.0334346
0.0353252
0.037224
0.0391489
0.0411912
0.0433272
0.0455239
0.0478312
0.0502495
0.0526736
0.0551545
0.0577603
0.0604896
0.0633108
0.0662545
0.0693006
0.0724389
0.0756745
0.0790465
0.0825527
0.0861645
0.0899137
0.0937868
0.097817
0.101975
0.106304
0.110765
0.11537
0.120132
0.125012
0.130119
0.135221
0.140602
0.145644
0.150622
0.0202319
0.0152266
0.0117115
0.0124004
0.0145018
0.0162857
0.0178435
0.0194883
0.0212126
0.0228877
0.0244943
0.0261641
0.0280058
0.0298711
0.0316386
0.0334369
0.0353272
0.037226
0.039151
0.0411935
0.0433294
0.0455257
0.0478322
0.05025
0.0526742
0.0551555
0.0577615
0.0604908
0.0633118
0.0662552
0.0693012
0.0724395
0.0756752
0.079047
0.0825531
0.0861649
0.0899141
0.0937871
0.0978172
0.101975
0.106304
0.110765
0.11537
0.120132
0.125012
0.130119
0.135222
0.140603
0.145645
0.150624
0.020005
0.0153816
0.0119131
0.012478
0.0145358
0.0163147
0.0178659
0.0195036
0.0212233
0.0228965
0.0245028
0.0261719
0.0280115
0.0298745
0.0316411
0.0334393
0.0353294
0.037228
0.0391533
0.0411959
0.0433316
0.0455276
0.0478333
0.0502505
0.0526747
0.0551564
0.0577629
0.0604922
0.0633129
0.0662561
0.0693019
0.0724401
0.0756758
0.0790476
0.0825536
0.0861654
0.0899145
0.0937874
0.0978175
0.101975
0.106304
0.110765
0.11537
0.120132
0.125013
0.13012
0.135222
0.140603
0.145647
0.150625
0.0197834
0.0155322
0.0121201
0.01256
0.0145701
0.0163441
0.0178892
0.0195194
0.0212346
0.0229057
0.0245116
0.0261799
0.0280175
0.029878
0.0316437
0.0334417
0.0353316
0.0372301
0.0391556
0.0411983
0.0433339
0.0455295
0.0478344
0.0502508
0.0526751
0.0551572
0.0577642
0.0604936
0.0633141
0.066257
0.0693025
0.0724407
0.0756765
0.0790482
0.0825541
0.0861658
0.0899149
0.0937878
0.0978178
0.101976
0.106304
0.110765
0.11537