/*--------------------------------*- C++ -*----------------------------------*\
| =========                 |                                                 |
| \\      /  F ield         | OpenFOAM: The Open Source CFD Toolbox           |
|  \\    /   O peration     | Version:  v2012                                 |
|   \\  /    A nd           | Website:  www.openfoam.com                      |
|    \\/     M anipulation  |                                                 |
\*---------------------------------------------------------------------------*/
FoamFile
{
    version     2.0;
    format      ascii;
    class       surfaceScalarField;
    location    "9.3";
    object      phi;
}
// * * * * * * * * * * * * * * * * * * * * * * * * * * * * * * * * * * * * * //

dimensions      [0 3 -1 0 0 0 0];
oriented        oriented;


internalField   nonuniform List<scalar> 
13830
(
9.67377e-07
-1.28382e-06
1.06043e-06
-7.30014e-07
9.90757e-07
1.48438e-06
8.39935e-07
1.15104e-06
9.68257e-07
-2.48461e-06
9.60928e-07
-1.34231e-06
9.43266e-07
-7.4685e-07
9.59366e-07
2.56926e-07
9.3417e-07
8.75921e-08
9.41578e-07
2.68754e-07
9.68284e-07
-2.467e-07
9.61851e-07
-2.07378e-07
9.76425e-07
-1.86681e-07
9.65403e-07
-1.37684e-07
9.65979e-07
-1.5758e-09
9.59638e-07
6.17257e-08
9.53736e-07
9.66496e-08
9.50598e-07
1.14343e-07
9.43761e-07
1.11775e-07
1.2895e-07
9.32783e-07
1.00847e-06
-1.31976e-06
1.1001e-06
-8.21646e-07
1.02396e-06
1.56053e-06
9.02288e-07
1.27272e-06
1.02446e-06
-2.60679e-06
1.00558e-06
-1.32342e-06
9.886e-07
-7.29874e-07
1.00721e-06
2.38312e-07
9.76676e-07
1.1813e-07
9.89892e-07
2.55538e-07
1.01306e-06
-2.69867e-07
1.00801e-06
-2.02325e-07
1.01929e-06
-1.97963e-07
1.00903e-06
-1.27427e-07
1.00417e-06
3.2877e-09
1.00309e-06
6.28064e-08
9.88039e-07
1.11698e-07
9.94179e-07
1.08203e-07
9.73197e-07
1.32756e-07
1.19107e-07
9.8304e-07
1.04916e-06
-1.35946e-06
1.13839e-06
-9.1087e-07
1.06103e-06
1.63788e-06
9.65689e-07
1.36806e-06
1.07177e-06
-2.71288e-06
1.05726e-06
-1.3089e-06
1.03639e-06
-7.09008e-07
1.06065e-06
2.14054e-07
1.02469e-06
1.54089e-07
1.04277e-06
2.3746e-07
1.05651e-06
-2.83607e-07
1.05884e-06
-2.04659e-07
1.06049e-06
-1.99606e-07
1.05898e-06
-1.25917e-07
1.04372e-06
1.85436e-08
1.04939e-06
5.71372e-08
1.02796e-06
1.33124e-07
1.03431e-06
1.01861e-07
1.01512e-06
1.51945e-07
1.17518e-07
1.01671e-06
1.0873e-06
-1.39899e-06
1.17583e-06
-9.99395e-07
1.10484e-06
1.70886e-06
1.03252e-06
1.44039e-06
1.11144e-06
-2.7918e-06
1.10773e-06
-1.30518e-06
1.08358e-06
-6.84867e-07
1.1116e-06
1.86036e-07
1.07622e-06
1.89472e-07
1.09348e-06
2.20194e-07
1.09717e-06
-2.87294e-07
1.10424e-06
-2.11726e-07
1.09927e-06
-1.94637e-07
1.10286e-06
-1.2951e-07
1.08586e-06
3.55488e-08
1.09074e-06
5.22583e-08
1.07306e-06
1.50803e-07
1.07388e-06
1.01036e-07
1.06068e-06
1.65149e-07
1.21435e-07
1.05676e-06
1.12214e-06
-1.43358e-06
1.21168e-06
-1.08893e-06
1.15604e-06
1.76449e-06
1.0996e-06
1.49683e-06
1.14282e-06
-2.83502e-06
1.15089e-06
-1.31326e-06
1.12863e-06
-6.62606e-07
1.15702e-06
1.57651e-07
1.12976e-06
2.16728e-07
1.14142e-06
2.08538e-07
1.13684e-06
-2.82718e-07
1.1437e-06
-2.18581e-07
1.13637e-06
-1.87307e-07
1.14115e-06
-1.34289e-07
1.12784e-06
4.88518e-08
1.13049e-06
4.96081e-08
1.11815e-06
1.6315e-07
1.11582e-06
1.03362e-07
1.10617e-06
1.74796e-07
1.27164e-07
1.10044e-06
1.15448e-06
-1.45922e-06
1.24542e-06
-1.17986e-06
1.21257e-06
1.79734e-06
1.16477e-06
1.54463e-06
1.16958e-06
-2.83983e-06
1.18552e-06
-1.3292e-06
1.17199e-06
-6.49076e-07
1.19873e-06
1.30914e-07
1.18374e-06
2.31712e-07
1.18849e-06
2.03793e-07
1.1773e-06
-2.71529e-07
1.18063e-06
-2.21911e-07
1.17277e-06
-1.79451e-07
1.1773e-06
-1.38816e-07
1.16807e-06
5.80841e-08
1.17034e-06
4.73348e-08
1.16156e-06
1.71932e-07
1.15895e-06
1.05968e-07
1.15124e-06
1.82507e-07
1.32823e-07
1.14558e-06
1.18622e-06
-1.47374e-06
1.27706e-06
-1.2707e-06
1.27069e-06
1.80371e-06
1.22659e-06
1.58874e-06
1.19687e-06
-2.81011e-06
1.21499e-06
-1.34732e-06
1.21457e-06
-6.4866e-07
1.23996e-06
1.05522e-07
1.23629e-06
2.35388e-07
1.23579e-06
2.04289e-07
1.21873e-06
-2.54465e-07
1.21757e-06
-2.20752e-07
1.20887e-06
-1.70756e-07
1.2132e-06
-1.43145e-07
1.20672e-06
6.45682e-08
1.21038e-06
4.36712e-08
1.20405e-06
1.78268e-07
1.20258e-06
1.07436e-07
1.19657e-06
1.88514e-07
1.37642e-07
1.19175e-06
1.21969e-06
-1.47725e-06
1.30711e-06
-1.35812e-06
1.32617e-06
1.78464e-06
1.28418e-06
1.63073e-06
1.22864e-06
-2.75457e-06
1.24433e-06
-1.36301e-06
1.25673e-06
-6.61059e-07
1.28242e-06
7.98401e-08
1.28607e-06
2.31736e-07
1.28283e-06
2.07523e-07
1.26049e-06
-2.32119e-07
1.25539e-06
-2.15657e-07
1.24501e-06
-1.60372e-07
1.24937e-06
-1.47505e-07
1.24469e-06
6.92456e-08
1.25041e-06
3.79531e-08
1.24646e-06
1.82214e-07
1.24652e-06
1.07377e-07
1.24258e-06
1.9246e-07
1.41341e-07
1.23888e-06
1.25685e-06
-1.47175e-06
1.33633e-06
-1.4376e-06
1.37561e-06
1.74536e-06
1.3372e-06
1.66914e-06
1.26629e-06
-2.68365e-06
1.27738e-06
-1.3741e-06
1.29847e-06
-6.82149e-07
1.3257e-06
5.26098e-08
1.33261e-06
2.24825e-07
1.3285e-06
2.1163e-07
1.30206e-06
-2.05681e-07
1.29428e-06
-2.07877e-07
1.28175e-06
-1.47835e-07
1.28607e-06
-1.5183e-07
1.28272e-06
7.25988e-08
1.29023e-06
3.04462e-08
1.28891e-06
1.83528e-07
1.29038e-06
1.0591e-07
1.28884e-06
1.93997e-07
1.43826e-07
1.28636e-06
1.2987e-06
-1.46017e-06
1.36563e-06
-1.50453e-06
1.41751e-06
1.69348e-06
1.38596e-06
1.70068e-06
1.30912e-06
-2.60681e-06
1.3156e-06
-1.38058e-06
1.33985e-06
-7.06404e-07
1.36846e-06
2.40037e-08
1.37596e-06
2.17319e-07
1.37208e-06
2.15514e-07
1.34342e-06
-1.7702e-07
1.33447e-06
-1.98929e-07
1.31987e-06
-1.33232e-07
1.32387e-06
-1.55837e-07
1.32139e-06
7.50874e-08
1.32983e-06
2.19982e-08
1.33109e-06
1.82267e-07
1.33354e-06
1.03464e-07
1.33445e-06
1.93091e-07
1.45132e-07
1.33314e-06
1.34528e-06
-1.44543e-06
1.39603e-06
-1.55527e-06
1.45278e-06
1.63673e-06
1.43161e-06
1.72185e-06
1.3558e-06
-2.531e-06
1.35866e-06
-1.38344e-06
1.38122e-06
-7.28956e-07
1.40977e-06
-4.55124e-09
1.41665e-06
2.10443e-07
1.41375e-06
2.18406e-07
1.38502e-06
-1.48287e-07
1.3764e-06
-1.90306e-07
1.36022e-06
-1.17051e-07
1.36356e-06
-1.59181e-07
1.36136e-06
7.7292e-08
1.36961e-06
1.37425e-08
1.37294e-06
1.78938e-07
1.37572e-06
1.00684e-07
1.37871e-06
1.90108e-07
1.45432e-07
1.37841e-06
1.39594e-06
-1.42972e-06
1.42882e-06
-1.58815e-06
1.48444e-06
1.58111e-06
1.47602e-06
1.73027e-06
1.40531e-06
-2.46028e-06
1.40557e-06
-1.38371e-06
1.42317e-06
-7.46558e-07
1.44991e-06
-3.12864e-08
1.45582e-06
2.04536e-07
1.45462e-06
2.19604e-07
1.4277e-06
-1.21368e-07
1.4206e-06
-1.83211e-07
1.40356e-06
-1.00011e-07
1.40593e-06
-1.61548e-07
1.40347e-06
7.97546e-08
1.4104e-06
6.81069e-09
1.41501e-06
1.74329e-07
1.4174e-06
9.82964e-08
1.4218e-06
1.85702e-07
1.45021e-07
1.42221e-06
1.4498e-06
-1.41428e-06
1.46544e-06
-1.60379e-06
1.51649e-06
1.53006e-06
1.52131e-06
1.72545e-06
1.45713e-06
-2.39611e-06
1.45547e-06
-1.38204e-06
1.46662e-06
-7.57715e-07
1.49029e-06
-5.49533e-08
1.4953e-06
1.99526e-07
1.49634e-06
2.18565e-07
1.47242e-06
-9.74527e-08
1.46755e-06
-1.78332e-07
1.45042e-06
-8.28844e-08
1.45157e-06
-1.62701e-07
1.44857e-06
8.27531e-08
1.45331e-06
2.07712e-09
1.45842e-06
1.6922e-07
1.4598e-06
9.6913e-08
1.46488e-06
1.8062e-07
1.44238e-07
1.46566e-06
1.50614e-06
-1.39954e-06
1.50706e-06
-1.60471e-06
1.55256e-06
1.48456e-06
1.5693e-06
1.70871e-06
1.51116e-06
-2.33797e-06
1.50792e-06
-1.37879e-06
1.51256e-06
-7.62355e-07
1.53282e-06
-7.52135e-08
1.53716e-06
1.95186e-07
1.54066e-06
2.15063e-07
1.52009e-06
-7.68831e-08
1.51753e-06
-1.75771e-07
1.501e-06
-6.6359e-08
1.5008e-06
-1.62499e-07
1.49735e-06
8.61977e-08
1.49943e-06
6.93927e-12
1.5045e-06
1.64149e-07
1.50453e-06
9.68817e-08
1.50964e-06
1.75505e-07
1.43379e-07
1.5105e-06
1.56448e-06
-1.38541e-06
1.55432e-06
-1.59455e-06
1.59492e-06
1.44396e-06
1.62111e-06
1.68251e-06
1.5674e-06
-2.28426e-06
1.56278e-06
-1.37418e-06
1.56176e-06
-7.61331e-07
1.5791e-06
-9.25523e-08
1.58308e-06
1.91206e-07
1.58892e-06
2.09216e-07
1.57135e-06
-5.9305e-08
1.57069e-06
-1.7512e-07
1.55526e-06
-5.09284e-08
1.55365e-06
-1.60886e-07
1.55015e-06
8.9699e-08
1.54952e-06
6.39045e-10
1.55433e-06
1.59338e-07
1.55297e-06
9.82384e-08
1.5577e-06
1.70778e-07
1.42641e-07
1.55844e-06
1.62469e-06
-1.37156e-06
1.60718e-06
-1.57704e-06
1.64428e-06
1.40686e-06
1.67711e-06
1.64968e-06
1.62586e-06
-2.233e-06
1.62006e-06
-1.36838e-06
1.61462e-06
-7.55895e-07
1.62999e-06
-1.07922e-07
1.63399e-06
1.8721e-07
1.64186e-06
2.01349e-07
1.62656e-06
-4.40134e-08
1.62709e-06
-1.75647e-07
1.61303e-06
-3.687e-08
1.60998e-06
-1.57832e-07
1.60692e-06
9.27591e-08
1.60389e-06
3.66324e-09
1.60845e-06
1.5478e-07
1.60592e-06
1.00768e-07
1.61007e-06
1.66633e-07
1.42111e-07
1.6106e-06
1.68679e-06
-1.3576e-06
1.66513e-06
-1.55538e-06
1.70017e-06
1.37182e-06
1.73715e-06
1.61271e-06
1.68656e-06
-2.18241e-06
1.6798e-06
-1.36161e-06
1.67122e-06
-7.47318e-07
1.68565e-06
-1.2235e-07
1.69007e-06
1.82783e-07
1.69959e-06
1.91829e-07
1.68588e-06
-3.03018e-08
1.68672e-06
-1.76485e-07
1.67413e-06
-2.42762e-08
1.66958e-06
-1.53284e-07
1.66738e-06
9.49532e-08
1.66244e-06
8.60562e-09
1.66686e-06
1.50366e-07
1.66351e-06
1.04118e-07
1.66705e-06
1.63092e-07
1.41788e-07
1.66737e-06
1.75095e-06
-1.34324e-06
1.72749e-06
-1.53192e-06
1.76163e-06
1.33768e-06
1.80085e-06
1.57348e-06
1.74956e-06
-2.13113e-06
1.74206e-06
-1.35411e-06
1.73144e-06
-7.3669e-07
1.74576e-06
-1.36675e-07
1.75104e-06
1.77508e-07
1.7619e-06
1.80965e-07
1.74929e-06
-1.76884e-08
1.74959e-06
-1.76785e-07
1.73843e-06
-1.31197e-08
1.73229e-06
-1.47145e-07
1.7312e-06
9.604e-08
1.72482e-06
1.49868e-08
1.72919e-06
1.46002e-07
1.72539e-06
1.07912e-07
1.7284e-06
1.60088e-07
1.41621e-07
1.72856e-06
1.81734e-06
-1.32824e-06
1.79362e-06
-1.50819e-06
1.82767e-06
1.30363e-06
1.8679e-06
1.53326e-06
1.81495e-06
-2.07818e-06
1.80696e-06
-1.34612e-06
1.79516e-06
-7.24891e-07
1.80993e-06
-1.51441e-07
1.81641e-06
1.71025e-07
1.82837e-06
1.69009e-07
1.81667e-06
-5.98638e-09
1.81569e-06
-1.75814e-07
1.80587e-06
-3.29652e-09
1.79805e-06
-1.39322e-07
1.79809e-06
9.59951e-08
1.79068e-06
2.24048e-08
1.79499e-06
1.41683e-07
1.79108e-06
1.11824e-07
1.79364e-06
1.57528e-07
1.41544e-07
1.79372e-06
1.88616e-06
-1.31251e-06
1.86308e-06
-1.48511e-06
1.89756e-06
1.26914e-06
1.93807e-06
1.49275e-06
1.88288e-06
-2.02299e-06
1.87461e-06
-1.33785e-06
1.86233e-06
-7.12605e-07
1.8778e-06
-1.6691e-07
1.88575e-06
1.63068e-07
1.89855e-06
1.56211e-07
1.88784e-06
4.72492e-09
1.88504e-06
-1.73009e-07
1.87643e-06
5.31166e-09
1.86686e-06
-1.29751e-07
1.86787e-06
9.49835e-08
1.85972e-06
3.0551e-08
1.86391e-06
1.37496e-07
1.86012e-06
1.15613e-07
1.86232e-06
1.5533e-07
1.41489e-07
1.86237e-06
1.95756e-06
-1.29596e-06
1.93556e-06
-1.46311e-06
1.97078e-06
1.23392e-06
2.01126e-06
1.45227e-06
1.95352e-06
-1.96525e-06
1.94514e-06
-1.32947e-06
1.93289e-06
-7.00357e-07
1.94908e-06
-1.83104e-07
1.95869e-06
1.53462e-07
1.97202e-06
1.42876e-07
1.96257e-06
1.41727e-08
1.9576e-06
-1.68033e-07
1.95008e-06
1.28302e-08
1.93877e-06
-1.18441e-07
1.94045e-06
9.3298e-08
1.93181e-06
3.91939e-08
1.93571e-06
1.33602e-07
1.93218e-06
1.19134e-07
1.93408e-06
1.53438e-07
1.4141e-07
1.93416e-06
2.03168e-06
-1.27859e-06
2.0109e-06
-1.44233e-06
2.04696e-06
1.19786e-06
2.08738e-06
1.41184e-06
2.02709e-06
-1.90496e-06
2.01866e-06
-1.32104e-06
2.00681e-06
-6.88505e-07
2.02355e-06
-1.99848e-07
2.0349e-06
1.42111e-07
2.04838e-06
1.29401e-07
2.04054e-06
2.20082e-08
2.03334e-06
-1.60826e-07
2.02678e-06
1.9388e-08
2.01386e-06
-1.05521e-07
2.01587e-06
9.12845e-08
2.00691e-06
4.81582e-08
2.01032e-06
1.30187e-07
2.00713e-06
1.22325e-07
2.00874e-06
1.5183e-07
1.41286e-07
2.00886e-06
2.10867e-06
-1.26042e-06
2.08907e-06
-1.42273e-06
2.1259e-06
1.16103e-06
2.16641e-06
1.37134e-06
2.10379e-06
-1.84234e-06
2.09532e-06
-1.31257e-06
2.08406e-06
-6.77253e-07
2.10102e-06
-2.16799e-07
2.11416e-06
1.28964e-07
2.12731e-06
1.16259e-07
2.1214e-06
2.79155e-08
2.11216e-06
-1.51584e-07
2.10647e-06
2.50706e-08
2.09219e-06
-9.12346e-08
2.0942e-06
8.92674e-08
2.08506e-06
5.73017e-08
2.08782e-06
1.27429e-07
2.08496e-06
1.25186e-07
2.08629e-06
1.50501e-07
1.41134e-07
2.08644e-06
2.18867e-06
-1.24151e-06
2.17009e-06
-1.40415e-06
2.20748e-06
1.12365e-06
2.24831e-06
1.3305e-06
2.18382e-06
-1.77785e-06
2.17525e-06
-1.30399e-06
2.16465e-06
-6.66651e-07
2.18133e-06
-2.33481e-07
2.19629e-06
1.13997e-07
2.20863e-06
1.03928e-07
2.20485e-06
3.16882e-08
2.19397e-06
-1.407e-07
2.18911e-06
2.99313e-08
2.17381e-06
-7.59382e-08
2.17557e-06
8.75126e-08
2.1664e-06
6.64714e-08
2.16835e-06
1.2548e-07
2.16577e-06
1.27759e-07
2.16684e-06
1.49439e-07
1.41001e-07
2.16697e-06
2.27181e-06
-1.22192e-06
2.25409e-06
-1.38644e-06
2.29169e-06
1.08605e-06
2.33308e-06
1.28911e-06
2.26738e-06
-1.71215e-06
2.25859e-06
-1.2952e-06
2.24858e-06
-6.5664e-07
2.26442e-06
-2.49323e-07
2.28112e-06
9.7297e-08
2.29228e-06
9.27632e-08
2.29069e-06
3.32822e-08
2.27868e-06
-1.28692e-07
2.27461e-06
3.40016e-08
2.25875e-06
-6.00779e-08
2.26007e-06
8.61938e-08
2.25105e-06
7.54881e-08
2.25209e-06
1.24445e-07
2.2497e-06
1.30151e-07
2.25061e-06
1.4853e-07
1.40943e-07
2.25066e-06
2.3582e-06
-1.20174e-06
2.34119e-06
-1.36942e-06
2.37859e-06
1.04865e-06
2.42076e-06
1.24694e-06
2.35462e-06
-1.646e-06
2.34547e-06
-1.28605e-06
2.33592e-06
-6.47093e-07
2.35031e-06
-2.63712e-07
2.36856e-06
7.90484e-08
2.37834e-06
8.29812e-08
2.3788e-06
3.28171e-08
2.36624e-06
-1.16126e-07
2.36292e-06
3.73206e-08
2.347e-06
-4.41629e-08
2.3478e-06
8.53938e-08
2.33914e-06
8.41474e-08
2.33913e-06
1.24458e-07
2.3367e-06
1.32578e-07
2.33783e-06
1.474e-07
1.40996e-07
2.33778e-06
2.44797e-06
-1.18103e-06
2.4315e-06
-1.35296e-06
2.46832e-06
1.01184e-06
2.51142e-06
1.20383e-06
2.44566e-06
-1.58024e-06
2.43598e-06
-1.27637e-06
2.42675e-06
-6.37871e-07
2.4391e-06
-2.76058e-07
2.45863e-06
5.95151e-08
2.46694e-06
7.46715e-08
2.46918e-06
3.05815e-08
2.45663e-06
-1.03575e-07
2.45398e-06
3.99645e-08
2.43853e-06
-2.87048e-08
2.43881e-06
8.51112e-08
2.43076e-06
9.21947e-08
2.42907e-06
1.26151e-07
2.42671e-06
1.34936e-07
2.42872e-06
1.45386e-07
1.41167e-07
2.42855e-06
2.54121e-06
-1.15983e-06
2.52516e-06
-1.33691e-06
2.56106e-06
9.75939e-07
2.6052e-06
1.15969e-06
2.54061e-06
-1.51566e-06
2.53019e-06
-1.26594e-06
2.52118e-06
-6.28868e-07
2.53097e-06
-2.85847e-07
2.55146e-06
3.9022e-08
2.55832e-06
6.78204e-08
2.56192e-06
2.69749e-08
2.54988e-06
-9.15327e-08
2.54784e-06
4.20011e-08
2.53323e-06
-1.40928e-08
2.53309e-06
8.52505e-08
2.52595e-06
9.93322e-08
2.52796e-06
1.2414e-07
2.52826e-06
1.34639e-07
2.5234e-06
1.50245e-07
1.41433e-07
2.52314e-06
2.63801e-06
-1.13816e-06
2.62225e-06
-1.32115e-06
2.65704e-06
9.41143e-07
2.70227e-06
1.11447e-06
2.63954e-06
-1.45293e-06
2.62813e-06
-1.25453e-06
2.6193e-06
-6.20041e-07
2.62616e-06
-2.92703e-07
2.64724e-06
1.79357e-08
2.65273e-06
6.23346e-08
2.65723e-06
2.24677e-08
2.64611e-06
-8.0411e-08
2.64458e-06
4.35389e-08
2.63107e-06
-5.91214e-10
2.63114e-06
8.51821e-08
2.62301e-06
1.07459e-07
2.62008e-06
1.27074e-07
2.61844e-06
1.36281e-07
2.62181e-06
1.46872e-07
1.41619e-07
2.62163e-06
2.73848e-06
-1.11599e-06
2.72287e-06
-1.30554e-06
2.75654e-06
9.07476e-07
2.80283e-06
1.06818e-06
2.74248e-06
-1.39258e-06
2.72982e-06
-1.24186e-06
2.72118e-06
-6.11399e-07
2.72495e-06
-2.96471e-07
2.74618e-06
-3.2946e-09
2.75057e-06
5.79374e-08
2.75529e-06
1.77535e-08
2.74567e-06
-7.07963e-08
2.74412e-06
4.50944e-08
2.73241e-06
1.1116e-08
2.73243e-06
8.51618e-08
2.72426e-06
1.15628e-07
2.7204e-06
1.30932e-07
2.71849e-06
1.38199e-07
2.72421e-06
1.4115e-07
1.41896e-07
2.72393e-06
2.84275e-06
-1.09328e-06
2.82715e-06
-1.28994e-06
2.85983e-06
8.74791e-07
2.90711e-06
1.02089e-06
2.84947e-06
-1.33494e-06
2.83527e-06
-1.22766e-06
2.8269e-06
-6.03026e-07
2.82762e-06
-2.97193e-07
2.84853e-06
-2.42057e-08
2.85224e-06
5.423e-08
2.85638e-06
1.36084e-08
2.84893e-06
-6.3343e-08
2.84664e-06
4.73866e-08
2.83722e-06
2.05373e-08
2.83837e-06
8.4012e-08
2.83821e-06
1.15784e-07
2.83958e-06
1.29561e-07
2.83958e-06
1.38201e-07
2.83059e-06
1.50137e-07
1.42512e-07
2.82998e-06
2.95093e-06
-1.06996e-06
2.93519e-06
-1.27421e-06
2.96717e-06
8.42814e-07
3.01531e-06
9.72753e-07
2.96053e-06
-1.28016e-06
2.94452e-06
-1.21165e-06
2.93655e-06
-5.95055e-07
2.93442e-06
-2.95067e-07
2.95462e-06
-4.43982e-08
2.958e-06
5.08465e-08
2.96107e-06
1.0533e-08
2.95589e-06
-5.81622e-08
2.95291e-06
5.03746e-08
2.94532e-06
2.81209e-08
2.94201e-06
8.73213e-08
2.93739e-06
1.2041e-07
2.93223e-06
1.34721e-07
2.92991e-06
1.40521e-07
2.94024e-06
1.39801e-07
1.42785e-07
2.93997e-06
3.06317e-06
-1.04598e-06
3.04718e-06
-1.25821e-06
3.0788e-06
8.11193e-07
3.12759e-06
9.23963e-07
3.07569e-06
-1.22826e-06
3.05766e-06
-1.19362e-06
3.0502e-06
-5.87595e-07
3.04558e-06
-2.90454e-07
3.06474e-06
-6.35528e-08
3.06809e-06
4.74904e-08
3.06999e-06
8.63981e-09
3.06627e-06
-5.44469e-08
3.06377e-06
5.2873e-08
3.05786e-06
3.40381e-08
3.06005e-06
8.51301e-08
3.06452e-06
1.15936e-07
3.06611e-06
1.33134e-07
3.06588e-06
1.40751e-07
3.05377e-06
1.51909e-07
1.42858e-07
3.0537e-06
3.17966e-06
-1.02128e-06
3.16329e-06
-1.24184e-06
3.19494e-06
7.79543e-07
3.24409e-06
8.74818e-07
3.19504e-06
-1.17921e-06
3.17478e-06
-1.17336e-06
3.16803e-06
-5.80851e-07
3.1612e-06
-2.83623e-07
3.17932e-06
-8.16664e-08
3.18256e-06
4.42461e-08
3.18394e-06
7.26568e-09
3.17966e-06
-5.01672e-08
3.18095e-06
5.15775e-08
3.17291e-06
4.20826e-08
3.17571e-06
8.23299e-08
3.1649e-06
1.26745e-07
3.16079e-06
1.37242e-07
3.16065e-06
1.40893e-07
3.1701e-06
1.42453e-07
1.413e-07
3.17166e-06
3.30057e-06
-9.95836e-07
3.28377e-06
-1.22504e-06
3.31577e-06
7.47537e-07
3.36492e-06
8.25668e-07
3.31863e-06
-1.13292e-06
3.29613e-06
-1.15085e-06
3.29007e-06
-5.74797e-07
3.28168e-06
-2.7523e-07
3.29823e-06
-9.82181e-08
3.30238e-06
4.01037e-08
3.30207e-06
7.57039e-09
3.29872e-06
-4.68147e-08
3.30082e-06
4.9474e-08
3.28726e-06
5.56407e-08
3.28495e-06
8.46465e-08
3.2836e-06
1.28094e-07
3.28107e-06
1.39773e-07
3.28022e-06
1.41742e-07
3.29141e-06
1.31261e-07
1.39262e-07
3.29345e-06
3.42609e-06
-9.69646e-07
3.40884e-06
-1.20778e-06
3.44144e-06
7.1493e-07
3.49024e-06
7.76875e-07
3.44655e-06
-1.08924e-06
3.42199e-06
-1.12629e-06
3.41631e-06
-5.69117e-07
3.40741e-06
-2.66333e-07
3.42143e-06
-1.12239e-07
3.42809e-06
3.34427e-08
3.42432e-06
1.13427e-08
3.42349e-06
-4.59872e-08
3.42118e-06
5.17841e-08
3.42424e-06
5.25881e-08
3.42611e-06
8.27755e-08
3.43247e-06
1.21733e-07
3.43676e-06
1.35483e-07
3.43545e-06
1.4305e-07
3.41817e-06
1.48538e-07
1.38332e-07
3.4191e-06
3.55645e-06
-9.42745e-07
3.53872e-06
-1.19006e-06
3.57217e-06
6.81488e-07
3.6201e-06
7.28945e-07
3.57904e-06
-1.04818e-06
3.55236e-06
-1.09961e-06
3.54743e-06
-5.64189e-07
3.53767e-06
-2.56576e-07
3.55054e-06
-1.25109e-07
3.55695e-06
2.70326e-08
3.55492e-06
1.33729e-08
3.55011e-06
-4.11693e-08
3.55235e-06
4.95405e-08
3.54105e-06
6.38875e-08
3.53797e-06
8.58591e-08
3.53565e-06
1.2405e-07
3.53445e-06
1.36683e-07
3.53558e-06
1.41921e-07
3.547e-06
1.37122e-07
1.35171e-07
3.55016e-06
3.69182e-06
-9.1518e-07
3.67369e-06
-1.17193e-06
3.70806e-06
6.47113e-07
3.75476e-06
6.8225e-07
3.71616e-06
-1.00958e-06
3.68772e-06
-1.07118e-06
3.68316e-06
-5.59624e-07
3.67349e-06
-2.46912e-07
3.6843e-06
-1.35918e-07
3.69202e-06
1.9319e-08
3.6897e-06
1.56845e-08
3.68488e-06
-3.63446e-08
3.69087e-06
4.35519e-08
3.67552e-06
7.92383e-08
3.67182e-06
8.95529e-08
3.66946e-06
1.26412e-07
3.66845e-06
1.37697e-07
3.66928e-06
1.41084e-07
3.68239e-06
1.24019e-07
1.32019e-07
3.68554e-06
3.83243e-06
-8.87021e-07
3.81394e-06
-1.15345e-06
3.84928e-06
6.11776e-07
3.89447e-06
6.37063e-07
3.85803e-06
-9.73141e-07
3.8286e-06
-1.04175e-06
3.82325e-06
-5.54275e-07
3.81568e-06
-2.39345e-07
3.82197e-06
-1.42207e-07
3.83422e-06
7.07316e-09
3.82593e-06
2.39775e-08
3.82466e-06
-3.50776e-08
3.82146e-06
4.67535e-08
3.83452e-06
6.61758e-08
3.83675e-06
8.73267e-08
3.84359e-06
1.19569e-07
3.8495e-06
1.31784e-07
3.84729e-06
1.43295e-07
3.82505e-06
1.46264e-07
1.3177e-07
3.8253e-06
3.97851e-06
-8.58373e-07
3.95965e-06
-1.13459e-06
3.9961e-06
5.75326e-07
4.03928e-06
5.93883e-07
4.00522e-06
-9.39079e-07
3.97441e-06
-1.01094e-06
3.96963e-06
-5.49488e-07
3.96124e-06
-2.30958e-07
3.96877e-06
-1.49743e-07
3.97698e-06
-1.13717e-09
3.97774e-06
2.32268e-08
3.97353e-06
-3.08718e-08
3.97962e-06
4.06661e-08
3.96072e-06
8.507e-08
3.95564e-06
9.24065e-08
3.95318e-06
1.22035e-07
3.95262e-06
1.3234e-07
3.95595e-06
1.39966e-07
3.96843e-06
1.3379e-07
1.28221e-07
3.97197e-06
4.13023e-06
-8.2932e-07
4.11105e-06
-1.11541e-06
4.14856e-06
5.37823e-07
4.18971e-06
5.52733e-07
4.15761e-06
-9.06982e-07
4.12617e-06
-9.79502e-07
4.12098e-06
-5.44289e-07
4.11324e-06
-2.23221e-07
4.12006e-06
-1.56566e-07
4.12718e-06
-8.25168e-09
4.13e-06
2.03991e-08
4.11304e-06
-1.39097e-08
4.11443e-06
3.92809e-08
4.11009e-06
8.94112e-08
4.1067e-06
9.57883e-08
4.10375e-06
1.24987e-07
4.10317e-06
1.3292e-07
4.10576e-06
1.37373e-07
4.1202e-06
1.19351e-07
1.25074e-07
4.12335e-06
4.28781e-06
-7.99947e-07
4.26836e-06
-1.09596e-06
4.30676e-06
4.9942e-07
4.34606e-06
5.13436e-07
4.31526e-06
-8.76185e-07
4.28466e-06
-9.48901e-07
4.27642e-06
-5.36045e-07
4.27321e-06
-2.20014e-07
4.27387e-06
-1.57224e-07
4.28693e-06
-2.13166e-08
4.27883e-06
2.85078e-08
4.28689e-06
-2.19709e-08
4.29112e-06
3.50477e-08
4.29659e-06
8.39413e-08
4.29783e-06
9.4544e-08
4.3053e-06
1.17519e-07
4.31203e-06
1.2619e-07
4.3079e-06
1.4151e-07
4.28142e-06
1.45822e-07
1.27177e-07
4.27932e-06
4.45152e-06
-7.70384e-07
4.43163e-06
-1.07607e-06
4.47118e-06
4.59863e-07
4.50818e-06
4.76443e-07
4.47917e-06
-8.47176e-07
4.44796e-06
-9.17689e-07
4.44097e-06
-5.29063e-07
4.43421e-06
-2.13255e-07
4.44029e-06
-1.63303e-07
4.44596e-06
-2.69864e-08
4.45103e-06
2.34438e-08
4.43258e-06
-3.52373e-09
4.4328e-06
3.48254e-08
4.42893e-06
8.78139e-08
4.42655e-06
9.69234e-08
4.42241e-06
1.21658e-07
4.42252e-06
1.26084e-07
4.42683e-06
1.37199e-07
4.44085e-06
1.31794e-07
1.24316e-07
4.44371e-06
4.62152e-06
-7.40692e-07
4.60124e-06
-1.05579e-06
4.64164e-06
4.1947e-07
4.67686e-06
4.41218e-07
4.6487e-06
-8.19018e-07
4.61854e-06
-8.87529e-07
4.60973e-06
-5.20246e-07
4.60408e-06
-2.07613e-07
4.60953e-06
-1.68746e-07
4.61177e-06
-2.92327e-08
4.61466e-06
2.05572e-08
4.59948e-06
1.1652e-08
4.60127e-06
3.30385e-08
4.59791e-06
9.11777e-08
4.5961e-06
9.87269e-08
4.59174e-06
1.26021e-07
4.59092e-06
1.26907e-07
4.59517e-06
1.32952e-07
4.61079e-06
1.16165e-07
1.22127e-07
4.61298e-06
4.79803e-06
-7.10933e-07
4.77742e-06
-1.03519e-06
4.8183e-06
3.78593e-07
4.85244e-06
4.0708e-07
4.82374e-06
-7.90319e-07
4.79781e-06
-8.61597e-07
4.78199e-06
-5.04428e-07
4.78466e-06
-2.10283e-07
4.7783e-06
-1.62388e-07
4.79604e-06
-4.69709e-08
4.78856e-06
2.80395e-08
4.79886e-06
1.35021e-09
4.80381e-06
2.80919e-08
4.81275e-06
8.22368e-08
4.81549e-06
9.59896e-08
4.8239e-06
1.17611e-07
4.82927e-06
1.21535e-07
4.82292e-06
1.39296e-07
4.79259e-06
1.46496e-07
1.27839e-07
4.78688e-06
4.98139e-06
-6.81252e-07
4.96012e-06
-1.01392e-06
5.00194e-06
3.36771e-07
5.03417e-06
3.74849e-07
5.00675e-06
-7.62901e-07
4.97979e-06
-8.3464e-07
4.96695e-06
-4.91587e-07
4.96427e-06
-2.07602e-07
4.9617e-06
-1.59821e-07
4.96926e-06
-5.45269e-08
4.96776e-06
2.95427e-08
4.95689e-06
1.22176e-08
4.95535e-06
2.96334e-08
4.95659e-06
8.09979e-08
4.95391e-06
9.8664e-08
4.95248e-06
1.19041e-07
4.94834e-06
1.2568e-07
4.95191e-06
1.35722e-07
4.96955e-06
1.28861e-07
1.26444e-07
4.97094e-06
5.17173e-06
-6.51671e-07
5.15003e-06
-9.92217e-07
5.19214e-06
2.94666e-07
5.22332e-06
3.43672e-07
5.19618e-06
-7.35766e-07
5.16925e-06
-8.07705e-07
5.15902e-06
-4.81358e-07
5.15101e-06
-1.9959e-07
5.15433e-06
-1.63146e-07
5.15478e-06
-5.49715e-08
5.15695e-06
2.73715e-08
5.14504e-06
2.41296e-08
5.14477e-06
2.98969e-08
5.14401e-06
8.17639e-08
5.1444e-06
9.82743e-08
5.14131e-06
1.22125e-07
5.1441e-06
1.22893e-07
5.15159e-06
1.28229e-07
5.1567e-06
1.23747e-07
1.22194e-07
5.16096e-06
5.36938e-06
-6.22275e-07
5.34729e-06
-9.70129e-07
5.38919e-06
2.52766e-07
5.42035e-06
3.1252e-07
5.39185e-06
-7.07269e-07
5.36737e-06
-7.8323e-07
5.35478e-06
-4.6877e-07
5.34852e-06
-1.93331e-07
5.34558e-06
-1.60199e-07
5.35016e-06
-5.95552e-08
5.35149e-06
2.60431e-08
5.34184e-06
3.37777e-08
5.33996e-06
3.17821e-08
5.34008e-06
8.16448e-08
5.3408e-06
9.75542e-08
5.34006e-06
1.22859e-07
5.34448e-06
1.18472e-07
5.34998e-06
1.22732e-07
5.35266e-06
1.21063e-07
1.1723e-07
5.35763e-06
5.57463e-06
-5.93163e-07
5.55204e-06
-9.47543e-07
5.59371e-06
2.11092e-07
5.62497e-06
2.81259e-07
5.59538e-06
-6.77675e-07
5.57185e-06
-7.597e-07
5.55887e-06
-4.55788e-07
5.5529e-06
-1.87364e-07
5.54795e-06
-1.55246e-07
5.5527e-06
-6.43059e-08
5.5542e-06
2.45451e-08
5.5461e-06
4.18789e-08
5.5429e-06
3.49794e-08
5.54372e-06
8.08259e-08
5.54485e-06
9.64204e-08
5.54633e-06
1.21384e-07
5.54786e-06
1.16938e-07
5.55047e-06
1.20124e-07
5.55629e-06
1.15244e-07
1.11876e-07
5.56164e-06
5.7877e-06
-5.64386e-07
5.76489e-06
-9.24728e-07
5.80569e-06
1.70293e-07
5.83803e-06
2.48916e-07
5.80673e-06
-6.46379e-07
5.78393e-06
-7.36899e-07
5.77045e-06
-4.42301e-07
5.76498e-06
-1.81897e-07
5.75854e-06
-1.48802e-07
5.76283e-06
-6.86035e-08
5.7649e-06
2.24826e-08
5.75797e-06
4.88019e-08
5.75402e-06
3.89354e-08
5.75517e-06
7.96764e-08
5.75675e-06
9.48349e-08
5.75952e-06
1.18613e-07
5.76077e-06
1.15688e-07
5.76629e-06
1.14606e-07
5.76799e-06
1.13545e-07
1.06602e-07
5.77326e-06
6.00893e-06
-5.36022e-07
5.98593e-06
-9.01724e-07
6.0256e-06
1.30621e-07
6.0588e-06
2.15719e-07
6.02659e-06
-6.14171e-07
6.00353e-06
-7.13833e-07
5.99021e-06
-4.28988e-07
5.98495e-06
-1.76633e-07
5.97758e-06
-1.41437e-07
5.9809e-06
-7.19239e-08
5.98386e-06
1.95321e-08
5.97793e-06
5.47281e-08
5.97355e-06
4.33105e-08
5.97478e-06
7.84456e-08
5.97663e-06
9.29871e-08
5.98e-06
1.15243e-07
5.98006e-06
1.15636e-07
5.98096e-06
1.13699e-07
5.98779e-06
1.06716e-07
1.01484e-07
5.99291e-06
6.23862e-06
-5.08142e-07
6.21552e-06
-8.7862e-07
6.25384e-06
9.22966e-08
6.28735e-06
1.82212e-07
6.25513e-06
-5.81949e-07
6.23134e-06
-6.90042e-07
6.21848e-06
-4.1613e-07
6.21326e-06
-1.71414e-07
6.20541e-06
-1.33591e-07
6.20732e-06
-7.3833e-08
6.21125e-06
1.56004e-08
6.20633e-06
5.96556e-08
6.20168e-06
4.7961e-08
6.20288e-06
7.72461e-08
6.20462e-06
9.12442e-08
6.20869e-06
1.11176e-07
6.21004e-06
1.14282e-07
6.21558e-06
1.08158e-07
6.2161e-06
1.06193e-07
9.67221e-08
6.22087e-06
6.47709e-06
-4.80831e-07
6.45388e-06
-8.55406e-07
6.49077e-06
5.54087e-08
6.52411e-06
1.48868e-07
6.49275e-06
-5.50589e-07
6.46797e-06
-6.65259e-07
6.45557e-06
-4.03728e-07
6.45033e-06
-1.66179e-07
6.44222e-06
-1.25476e-07
6.44247e-06
-7.40914e-08
6.44723e-06
1.08476e-08
6.44349e-06
6.33917e-08
6.43866e-06
5.27895e-08
6.43983e-06
7.60804e-08
6.44129e-06
8.97823e-08
6.4458e-06
1.06662e-07
6.44661e-06
1.13476e-07
6.44706e-06
1.07708e-07
6.45304e-06
1.0021e-07
9.23252e-08
6.45744e-06
6.72465e-06
-4.54146e-07
6.70134e-06
-8.32092e-07
6.73685e-06
1.98963e-08
6.76955e-06
1.16167e-07
6.73969e-06
-5.20729e-07
6.71406e-06
-6.39626e-07
6.7017e-06
-3.91365e-07
6.69645e-06
-1.60937e-07
6.68824e-06
-1.17262e-07
6.68685e-06
-7.27023e-08
6.6921e-06
5.59897e-09
6.68981e-06
6.56778e-08
6.68479e-06
5.78115e-08
6.68589e-06
7.49808e-08
6.68699e-06
8.86811e-08
6.6917e-06
1.01952e-07
6.69416e-06
1.11018e-07
6.6991e-06
1.02767e-07
6.69922e-06
1.00088e-07
8.85288e-08
6.70302e-06
6.98168e-06
-4.28176e-07
6.95814e-06
-8.08549e-07
6.99248e-06
-1.44446e-08
7.024e-06
8.4644e-08
6.99632e-06
-4.93051e-07
6.97002e-06
-6.13321e-07
6.95726e-06
-3.78605e-07
6.95202e-06
-1.55699e-07
6.94386e-06
-1.09106e-07
6.94092e-06
-6.97612e-08
6.94611e-06
4.14104e-10
6.94551e-06
6.62762e-08
6.94035e-06
6.29754e-08
6.94134e-06
7.39882e-08
6.94222e-06
8.7802e-08
6.94684e-06
9.73316e-08
6.94922e-06
1.08633e-07
6.95007e-06
1.01917e-07
6.95481e-06
9.53559e-08
8.53937e-08
6.95794e-06
7.24849e-06
-4.0298e-07
7.22454e-06
-7.84598e-07
7.25804e-06
-4.79438e-08
7.28805e-06
5.46329e-08
7.26459e-06
-4.69591e-07
7.23621e-06
-5.84941e-07
7.22254e-06
-3.64935e-07
7.21734e-06
-1.50491e-07
7.20929e-06
-1.0106e-07
7.20506e-06
-6.55333e-08
7.20962e-06
-4.13924e-09
7.21087e-06
6.50235e-08
7.20582e-06
6.80273e-08
7.20663e-06
7.31751e-08
7.20744e-06
8.69961e-08
7.21171e-06
9.30553e-08
7.21552e-06
1.04825e-07
7.21992e-06
9.75173e-08
7.22021e-06
9.50645e-08
8.30071e-08
7.2226e-06
7.52546e-06
-3.78611e-07
7.50126e-06
-7.60394e-07
7.53339e-06
-8.00735e-08
7.56238e-06
2.56445e-08
7.54283e-06
-4.50047e-07
7.51116e-06
-5.53269e-07
7.49811e-06
-3.51887e-07
7.49283e-06
-1.45208e-07
7.48487e-06
-9.3099e-08
7.4797e-06
-6.03706e-08
7.4832e-06
-7.63496e-09
7.48623e-06
6.19963e-08
7.48166e-06
7.25905e-08
7.48204e-06
7.2803e-08
7.48289e-06
8.61463e-08
7.4866e-06
8.93366e-08
7.49022e-06
1.01207e-07
7.49135e-06
9.63926e-08
7.4956e-06
9.0814e-08
8.11948e-08
7.49741e-06
7.8129e-06
-3.55051e-07
7.78948e-06
-7.36977e-07
7.81838e-06
-1.08972e-07
7.84757e-06
-3.55344e-09
7.81889e-06
-4.21365e-07
7.7933e-06
-5.27674e-07
7.78469e-06
-3.43284e-07
7.77876e-06
-1.39276e-07
7.77084e-06
-8.5179e-08
7.7652e-06
-5.47302e-08
7.76732e-06
-9.75629e-09
7.77179e-06
5.75259e-08
7.76811e-06
7.62702e-08
7.76793e-06
7.29905e-08
7.76894e-06
8.51383e-08
7.77208e-06
8.61951e-08
7.77651e-06
9.6769e-08
7.7807e-06
9.22092e-08
7.78156e-06
8.99468e-08
7.97634e-08
7.783e-06
8.1113e-06
-3.32395e-07
8.08815e-06
-7.13821e-07
8.1136e-06
-1.34421e-07
8.14572e-06
-3.56777e-08
8.12782e-06
-4.03466e-07
8.10794e-06
-5.07795e-07
8.08678e-06
-3.22123e-07
8.07531e-06
-1.27798e-07
8.06779e-06
-7.76616e-08
8.06207e-06
-4.90106e-08
8.06253e-06
-1.02137e-08
8.06789e-06
5.21589e-08
8.0655e-06
7.86622e-08
8.06473e-06
7.37633e-08
8.06598e-06
8.38843e-08
8.06847e-06
8.37034e-08
8.07244e-06
9.27992e-08
8.07395e-06
9.06997e-08
8.07814e-06
8.57583e-08
7.84385e-08
8.07947e-06
8.42112e-06
-3.10749e-07
8.3961e-06
-6.88811e-07
8.42347e-06
-1.6179e-07
8.45023e-06
-6.2434e-08
8.43048e-06
-3.83721e-07
8.39941e-06
-4.76721e-07
8.38826e-06
-3.10973e-07
8.38331e-06
-1.22844e-07
8.37611e-06
-7.04644e-08
8.37037e-06
-4.32724e-08
8.36939e-06
-9.22938e-09
8.37496e-06
4.65867e-08
8.37424e-06
7.93851e-08
8.37306e-06
7.49415e-08
8.37444e-06
8.25042e-08
8.37637e-06
8.17752e-08
8.38079e-06
8.83765e-08
8.38431e-06
8.71773e-08
8.38617e-06
8.3901e-08
7.71813e-08
8.38742e-06
8.74262e-06
-2.90087e-07
8.717e-06
-6.63191e-07