/*--------------------------------*- C++ -*----------------------------------*\
| =========                 |                                                 |
| \\      /  F ield         | OpenFOAM: The Open Source CFD Toolbox           |
|  \\    /   O peration     | Version:  v2012                                 |
|   \\  /    A nd           | Website:  www.openfoam.com                      |
|    \\/     M anipulation  |                                                 |
\*---------------------------------------------------------------------------*/
FoamFile
{
    version     2.0;
    format      ascii;
    class       volVectorField;
    location    "9.3";
    object      U;
}
// * * * * * * * * * * * * * * * * * * * * * * * * * * * * * * * * * * * * * //

dimensions      [0 1 -1 0 0 0 0];


internalField   nonuniform List<vector> 
7000
(
(0.675777 -0.0100901 0)
(1.34969 -0.00595692 0)
(0.941951 0.0148727 0)
(1.15884 0.0119646 0)
(0.657125 -0.0308694 0)
(1.37544 -0.0196421 0)
(0.708301 -0.0125798 0)
(1.27357 0.00498413 0)
(0.802682 0.00143192 0)
(1.17083 0.0064626 0)
(0.853896 -0.00610044 0)
(1.19855 -0.00635252 0)
(0.86615 -0.0060565 0)
(1.2068 -0.00555412 0)
(0.864139 -0.000151456 0)
(1.18843 0.00297531 0)
(0.867803 0.00490978 0)
(1.15971 0.00736062 0)
(0.873166 0.00728477 0)
(1.13262 0.010418 0)
(0.696374 -0.0103716 0)
(1.33911 -0.00694488 0)
(0.947899 0.0152715 0)
(1.14621 0.0138307 0)
(0.727826 -0.033232 0)
(1.351 -0.019555 0)
(0.747913 -0.0122467 0)
(1.25545 0.00466889 0)
(0.841078 0.00212406 0)
(1.14949 0.00628428 0)
(0.898771 -0.00696719 0)
(1.17242 -0.00618066 0)
(0.91086 -0.00663194 0)
(1.17464 -0.00508704 0)
(0.911406 -3.55597e-05 0)
(1.14401 0.00306262 0)
(0.927579 0.00571498 0)
(1.09699 0.00688811 0)
(0.95219 0.00877131 0)
(1.0466 0.00935607 0)
(0.729015 -0.0107046 0)
(1.31478 -0.00783012 0)
(0.963022 0.0161713 0)
(1.12938 0.0152443 0)
(0.796811 -0.034628 0)
(1.30621 -0.0192225 0)
(0.812455 -0.0119013 0)
(1.21751 0.00425695 0)
(0.903076 0.00288303 0)
(1.11511 0.00587586 0)
(0.957613 -0.00752495 0)
(1.12985 -0.00612354 0)
(0.971795 -0.00687295 0)
(1.12555 -0.0048446 0)
(0.97648 0.000442736 0)
(1.08914 0.00291474 0)
(0.991442 0.0068672 0)
(1.04492 0.00642113 0)
(1.00309 0.010216 0)
(1.01046 0.00907654 0)
(0.770013 -0.0110337 0)
(1.27553 -0.00861734 0)
(0.987477 0.0170537 0)
(1.11399 0.0162107 0)
(0.864355 -0.035899 0)
(1.24513 -0.0191176 0)
(0.88479 -0.0115164 0)
(1.16762 0.00375003 0)
(0.966487 0.00364866 0)
(1.08179 0.00542764 0)
(1.00694 -0.00772341 0)
(1.08737 -0.00631007 0)
(1.01856 -0.0067633 0)
(1.08162 -0.00494269 0)
(1.02191 0.00120294 0)
(1.05346 0.00264073 0)
(1.02571 0.00795463 0)
(1.02541 0.00626744 0)
(1.02135 0.0112655 0)
(1.0065 0.00942063 0)
(0.815356 -0.0113339 0)
(1.22431 -0.00941486 0)
(1.01769 0.0177217 0)
(1.10319 0.0169503 0)
(0.921867 -0.0366368 0)
(1.17598 -0.019174 0)
(0.947624 -0.0110948 0)
(1.1188 0.00319159 0)
(1.01528 0.00432414 0)
(1.06072 0.00507043 0)
(1.03651 -0.00769042 0)
(1.05793 -0.00656574 0)
(1.04019 -0.00652616 0)
(1.05455 -0.00513195 0)
(1.03963 0.00188854 0)
(1.03908 0.00246818 0)
(1.0356 0.00877905 0)
(1.02407 0.00637745 0)
(1.02501 0.0120375 0)
(1.0119 0.00995457 0)
(0.860491 -0.0115732 0)
(1.1673 -0.0102463 0)
(1.0478 0.0181699 0)
(1.09755 0.0175547 0)
(0.965629 -0.0368788 0)
(1.10997 -0.0193672 0)
(0.990627 -0.0107688 0)
(1.08162 0.00266055 0)
(1.04447 0.00477475 0)
(1.05357 0.00487661 0)
(1.04886 -0.00747508 0)
(1.04266 -0.00672623 0)
(1.04273 -0.00626988 0)
(1.04111 -0.00529746 0)
(1.03955 0.00237135 0)
(1.03475 0.00237837 0)
(1.03439 0.00936626 0)
(1.02655 0.00655132 0)
(1.0246 0.0126614 0)
(1.01703 0.0104438 0)
(0.901411 -0.011729 0)
(1.11171 -0.0110864 0)
(1.07195 0.0183798 0)
(1.09552 0.0180805 0)
(0.99538 -0.0366416 0)
(1.05656 -0.0196194 0)
(1.01261 -0.0106455 0)
(1.05912 0.00218247 0)
(1.05746 0.00496113 0)
(1.05449 0.00483686 0)
(1.05132 -0.007089 0)
(1.03539 -0.00674367 0)
(1.03638 -0.00599687 0)
(1.03322 -0.00544934 0)
(1.03244 0.00270357 0)
(1.03174 0.00225379 0)
(1.03016 0.00978513 0)
(1.02741 0.00667911 0)
(1.02381 0.0131604 0)
(1.02001 0.0108515 0)
(0.935523 -0.0117942 0)
(1.06369 -0.0119028 0)
(1.08598 0.0183238 0)
(1.09421 0.0185695 0)
(1.01329 -0.036039 0)
(1.01998 -0.0198628 0)
(1.01871 -0.0107582 0)
(1.04765 0.00172213 0)
(1.06038 0.00494348 0)
(1.05652 0.00489231 0)
(1.04949 -0.00654637 0)
(1.03016 -0.00663147 0)
(1.0279 -0.00567465 0)
(1.02559 -0.0056106 0)
(1.02396 0.00294466 0)
(1.02688 0.00202053 0)
(1.02556 0.0100679 0)
(1.02599 0.00672518 0)
(1.02304 0.01351 0)
(1.0213 0.0111805 0)
(0.961871 -0.0117784 0)
(1.0268 -0.0126608 0)
(1.08827 0.0180204 0)
(1.09073 0.0190237 0)
(1.02245 -0.0351978 0)
(0.998854 -0.0200525 0)
(1.01593 -0.0110624 0)
(1.04124 0.00123591 0)
(1.0579 0.00481613 0)
(1.05551 0.00498678 0)
(1.04563 -0.00587653 0)
(1.02432 -0.00642137 0)
(1.01993 -0.00527912 0)
(1.01687 -0.00578154 0)
(1.01582 0.00311888 0)
(1.01998 0.00167692 0)
(1.02061 0.0102122 0)
(1.02263 0.00667983 0)
(1.02152 0.0136873 0)
(1.02105 0.0114231 0)
(0.980812 -0.0117034 0)
(1.00173 -0.0133181 0)
(1.0797 0.017539 0)
(1.08333 0.0194145 0)
(1.02583 -0.0342392 0)
(0.988731 -0.020176 0)
(1.00985 -0.0114673 0)
(1.03531 0.000711016 0)
(1.05217 0.00465368 0)
(1.05038 0.00508439 0)
(1.0401 -0.00512246 0)
(1.01769 -0.00615558 0)
(1.01291 -0.0048084 0)
(1.00781 -0.0059489 0)
(1.00824 0.00324364 0)
(1.01184 0.0012639 0)
(1.01482 0.0102081 0)
(1.0175 0.00655485 0)
(1.01837 0.0136883 0)
(1.01887 0.0115716 0)
(0.993482 -0.011594 0)
(0.986872 -0.0138377 0)
(1.06319 0.0169666 0)
(1.07212 0.0197042 0)
(1.02585 -0.0332584 0)
(0.984924 -0.0202408 0)
(1.00344 -0.0118769 0)
(1.02788 0.000168648 0)
(1.0439 0.00449626 0)
(1.04188 0.0051654 0)
(1.03299 -0.00434093 0)
(1.01101 -0.00587995 0)
(1.00676 -0.00427484 0)
(0.999555 -0.00609472 0)
(1.00123 0.00334289 0)
(1.00339 0.000837202 0)
(1.00805 0.010067 0)
(1.01085 0.00638594 0)
(1.01319 0.0135304 0)
(1.01445 0.0116299 0)
(1.00131 -0.0114706 0)
(0.979541 -0.0141998 0)
(1.04275 0.0163784 0)
(1.05871 0.0198613 0)
(1.02422 -0.0323198 0)
(0.984095 -0.0202606 0)
(0.997702 -0.0122194 0)
(1.01903 -0.000353932 0)
(1.03376 0.0043594 0)
(1.03154 0.00521358 0)
(1.02487 -0.0035878 0)
(1.00499 -0.00563646 0)
(1.00143 -0.00369993 0)
(0.992947 -0.00620625 0)
(0.994955 0.00344299 0)
(0.995519 0.000455318 0)
(1.00073 0.00982727 0)
(1.00329 0.00622194 0)
(1.00636 0.0132525 0)
(1.00808 0.0116172 0)
(1.00567 -0.0113465 0)
(0.976954 -0.0144045 0)
(1.02238 0.0158253 0)
(1.04534 0.0198708 0)
(1.02204 -0.0314561 0)
(0.984391 -0.0202473 0)
(0.992771 -0.0124573 0)
(1.00985 -0.000825368 0)
(1.02292 0.00424499 0)
(1.021 0.0052144 0)
(1.01669 -0.00290472 0)
(1.00001 -0.00545381 0)
(0.996995 -0.00311092 0)
(0.988283 -0.00627668 0)
(0.989651 0.00356194 0)
(0.988953 0.000168337 0)
(0.993612 0.00953683 0)
(0.995732 0.00610798 0)
(0.998819 0.0129066 0)
(1.00072 0.0115615 0)
(1.00775 -0.0112277 0)
(0.976888 -0.0144686 0)
(1.00507 0.0153298 0)
(1.03387 0.0197383 0)
(1.01993 -0.0306722 0)
(0.984953 -0.0202088 0)
(0.988608 -0.0125826 0)
(1.00151 -0.00123176 0)
(1.01279 0.00414871 0)
(1.01165 0.00515846 0)
(1.0094 -0.00231001 0)
(0.996189 -0.00534662 0)
(0.993495 -0.00252889 0)
(0.985418 -0.00629696 0)
(0.985506 0.00370365 0)
(0.984088 8.98975e-06 0)
(0.987494 0.00923598 0)
(0.989129 0.00607218 0)
(0.991734 0.0125421 0)
(0.993573 0.0114897 0)
(1.00844 -0.0111146 0)
(0.977866 -0.0144202 0)
(0.992289 0.0148916 0)
(1.02526 0.019485 0)
(1.01816 -0.0299539 0)
(0.985422 -0.0201491 0)
(0.985187 -0.0126057 0)
(0.99477 -0.00157696 0)
(1.00444 0.00406425 0)
(1.00431 0.00504459 0)
(1.00363 -0.00180152 0)
(0.993452 -0.00530777 0)
(0.99091 -0.00197703 0)
(0.983954 -0.00626211 0)
(0.982575 0.00385628 0)
(0.980949 -1.15375e-05 0)
(0.982905 0.00894868 0)
(0.984104 0.00612241 0)
(0.986022 0.0121951 0)
(0.987638 0.0114221 0)
(1.00835 -0.011005 0)
(0.979071 -0.0142917 0)
(0.984096 0.0144977 0)
(1.01951 0.0191409 0)
(1.01677 -0.0292782 0)
(0.985664 -0.0200715 0)
(0.982479 -0.0125462 0)
(0.989815 -0.00187702 0)
(0.998344 0.00398426 0)
(0.99922 0.0048788 0)
(0.999628 -0.00136445 0)
(0.991677 -0.00531525 0)
(0.989151 -0.00147161 0)
(0.983436 -0.00617342 0)
(0.980766 0.00399489 0)
(0.979264 9.39817e-05 0)
(0.979977 0.00868047 0)
(0.980824 0.00624999 0)
(0.982094 0.0118852 0)
(0.983414 0.0113689 0)
(1.00788 -0.0108956 0)
(0.980154 -0.0141134 0)
(0.979659 0.0141324 0)
(1.01608 0.0187362 0)
(1.01571 -0.0286212 0)
(0.985651 -0.0199784 0)
(0.980427 -0.0124255 0)
(0.986438 -0.00215113 0)
(0.994387 0.00389938 0)
(0.996168 0.00466991 0)
(0.9973 -0.000978237 0)
(0.990742 -0.0053447 0)
(0.988097 -0.00101698 0)
(0.983495 -0.00602551 0)
(0.979881 0.00410001 0)
(0.978631 0.000302682 0)
(0.978501 0.00842578 0)
(0.979075 0.00643675 0)
(0.979868 0.0116194 0)
(0.980886 0.0113327 0)
(1.00728 -0.0107837 0)
(0.981021 -0.0139093 0)
(0.977862 0.0137817 0)
(1.01427 0.0182959 0)
(1.01489 -0.0279629 0)
(0.985411 -0.0198729 0)
(0.978963 -0.0122631 0)
(0.984284 -0.00241663 0)
(0.992144 0.00380095 0)
(0.994715 0.00442441 0)
(0.996352 -0.000623815 0)
(0.99054 -0.00537012 0)
(0.987629 -0.000614835 0)
(0.983889 -0.00581301 0)
(0.979688 0.0041621 0)
(0.97866 0.00059194 0)
(0.978092 0.00817711 0)
(0.978452 0.00665967 0)
(0.978961 0.0113977 0)
(0.979716 0.0113126 0)
(1.00667 -0.0106672 0)
(0.981687 -0.0136966 0)
(0.977701 0.0134357 0)
(1.01347 0.0178377 0)
(1.01424 -0.0272887 0)
(0.985005 -0.0197587 0)
(0.978015 -0.0120743 0)
(0.983026 -0.00268764 0)
(0.991128 0.00368123 0)
(0.994392 0.0041502 0)
(0.996423 -0.0002937 0)
(0.990959 -0.00536636 0)
(0.98765 -0.000259898 0)
(0.984491 -0.0055358 0)
(0.979975 0.00417515 0)
(0.979061 0.000940374 0)
(0.978351 0.00793234 0)
(0.978544 0.0068944 0)
(0.978914 0.011212 0)
(0.979467 0.0113043 0)
(1.00613 -0.0105449 0)
(0.982195 -0.0134859 0)
(0.978435 0.0130875 0)
(1.01324 0.0173728 0)
(1.01375 -0.0265885 0)
(0.984512 -0.0196392 0)
(0.977515 -0.0118722 0)
(0.982419 -0.00297146 0)
(0.990919 0.00353248 0)
(0.994786 0.00385572 0)
(0.997154 7.94114e-06 0)
(0.991862 -0.005309 0)
(0.98807 4.8756e-05 0)
(0.985239 -0.0051939 0)
(0.980574 0.0041414 0)
(0.979651 0.00133109 0)
(0.978961 0.00769721 0)
(0.979022 0.00712209 0)
(0.979336 0.0110503 0)
(0.979749 0.0113011 0)
(1.00569 -0.0104162 0)
(0.98259 -0.0132833 0)
(0.979565 0.012733 0)
(1.0133 0.016907 0)
(1.01339 -0.0258563 0)
(0.984017 -0.0195172 0)
(0.977385 -0.0116671 0)
(0.982282 -0.00326823 0)
(0.991191 0.00334894 0)
(0.995559 0.00354585 0)
(0.998222 0.00027927 0)
(0.993081 -0.00518548 0)
(0.988801 0.000315109 0)
(0.986104 -0.00478756 0)
(0.981369 0.00406971 0)
(0.980338 0.00174857 0)
(0.979713 0.00748208 0)
(0.979673 0.0073349 0)
(0.979954 0.010902 0)
(0.980279 0.0112972 0)
(1.00535 -0.0102807 0)
(0.982917 -0.0130912 0)
(0.980778 0.0123703 0)
(1.01343 0.0164422 0)
(1.01316 -0.0250901 0)
(0.983607 -0.0193947 0)
(0.977545 -0.0114661 0)
(0.982471 -0.00357593 0)
(0.991694 0.00312984 0)
(0.996444 0.0032247 0)
(0.999351 0.000510269 0)
(0.994434 -0.00499291 0)
(0.989737 0.000547352 0)
(0.987065 -0.00431546 0)
(0.982281 0.00397644 0)
(0.981089 0.00217604 0)
(0.980502 0.00729857 0)
(0.980382 0.00754015 0)
(0.980614 0.0107658 0)
(0.980883 0.0112868 0)
(1.00508 -0.0101387 0)
(0.983225 -0.0129097 0)
(0.981891 0.0119992 0)
(1.01349 0.0159777 0)
(1.01305 -0.0242918 0)
(0.983367 -0.0192718 0)
(0.977919 -0.0112742 0)
(0.982861 -0.00389195 0)
(0.992235 0.00287452 0)
(0.99724 0.00290401 0)
(1.00033 0.000689477 0)
(0.99575 -0.00473495 0)
(0.99076 0.000747601 0)
(0.988092 -0.00378168 0)
(0.983263 0.00388789 0)
(0.981901 0.00260163 0)
(0.981299 0.00714427 0)
(0.98111 0.00774522 0)
(0.981261 0.0106541 0)
(0.981481 0.011271 0)
(1.00487 -0.00999036 0)
(0.983562 -0.0127382 0)
(0.982819 0.0116211 0)
(1.01338 0.0155114 0)
(1.01303 -0.0234658 0)
(0.98337 -0.0191482 0)
(0.97844 -0.0110923 0)
(0.983353 -0.00421147 0)
(0.992681 0.00257866 0)
(0.997809 0.00260193 0)
(1.001 0.000815742 0)
(0.996886 -0.00442122 0)
(0.991756 0.000919927 0)
(0.989142 -0.00320806 0)
(0.984283 0.00381723 0)
(0.982775 0.00303019 0)
(0.982123 0.00700834 0)
(0.981866 0.00793404 0)
(0.981907 0.0105761 0)
(0.982065 0.0112596 0)
(1.00467 -0.00983638 0)
(0.98396 -0.012575 0)
(0.983544 0.0112387 0)
(1.01304 0.015039 0)
(1.01306 -0.0226169 0)
(0.983665 -0.0190256 0)
(0.979058 -0.0109199 0)
(0.983876 -0.00451733 0)
(0.992954 0.00224358 0)
(0.998074 0.00232507 0)
(1.00129 0.000882777 0)
(0.997742 -0.00406932 0)
(0.992625 0.00107282 0)
(0.990153 -0.0026066 0)
(0.985319 0.00376553 0)
(0.983705 0.00347313 0)
(0.983002 0.00690558 0)
(0.982681 0.00808809 0)
(0.982602 0.0105227 0)
(0.98267 0.0112571 0)
(1.00447 -0.00967731 0)
(0.984432 -0.0124192 0)
(0.984081 0.0108574 0)
(1.01247 0.014557 0)
(1.01311 -0.0217598 0)
(0.984268 -0.0188969 0)
(0.979734 -0.0107589 0)
(0.984389 -0.00480187 0)
(0.99303 0.00187503 0)
(0.99801 0.00207603 0)
(1.00118 0.00089606 0)
(0.998255 -0.00369303 0)
(0.993295 0.00119309 0)
(0.991057 -0.00198825 0)
(0.986343 0.00373552 0)
(0.984664 0.00391943 0)
(0.983952 0.0068624 0)
(0.983575 0.00821545 0)
(0.983393 0.0104818 0)
(0.983346 0.0112627 0)
(1.00426 -0.00951396 0)
(0.98497 -0.0122683 0)
(0.984457 0.0104784 0)
(1.01167 0.0140712 0)
(1.01316 -0.0209086 0)
(0.985165 -0.0187555 0)
(0.980437 -0.0106049 0)
(0.984872 -0.00505473 0)
(0.992923 0.00146715 0)
(0.997634 0.00187085 0)
(1.0007 0.000850404 0)
(0.998399 -0.00329401 0)
(0.993723 0.00128432 0)
(0.991788 -0.00138179 0)
(0.987319 0.00372272 0)
(0.985614 0.00434346 0)
(0.984961 0.00687632 0)
(0.984544 0.00832968 0)
(0.984302 0.0104457 0)
(0.984127 0.0112739 0)
(1.00403 -0.0093467 0)
(0.985543 -0.0121215 0)
(0.984702 0.0101065 0)
(1.01071 0.0135675 0)
(1.01319 -0.0200514 0)
(0.986308 -0.0186195 0)
(0.981143 -0.0104508 0)
(0.985316 -0.00525502 0)
(0.99267 0.00103272 0)
(0.996995 0.00169251 0)
(0.999909 0.000769787 0)
(0.998188 -0.00293954 0)
(0.993893 0.00139574 0)
(0.992295 -0.000813089 0)
(0.9882 0.003748 0)
(0.986502 0.00472614 0)
(0.98599 0.00695336 0)
(0.985562 0.0084038 0)
(0.985308 0.0104126 0)
(0.98501 0.0112872 0)
(1.00382 -0.00917457 0)
(0.986112 -0.0119823 0)
(0.98484 0.00975511 0)
(1.00967 0.0130449 0)
(1.01319 -0.0192225 0)
(0.987622 -0.0184634 0)
(0.981831 -0.0103072 0)
(0.98572 -0.00541866 0)
(0.992323 0.000606215 0)
(0.996161 0.0015296 0)
(0.998898 0.00067902 0)
(0.997665 -0.00260469 0)
(0.99382 0.00146747 0)
(0.992552 -0.000288215 0)
(0.988943 0.00374854 0)
(0.987282 0.00510406 0)
(0.986971 0.0070481 0)
(0.986572 0.00852542 0)
(0.986361 0.0103885 0)
(0.985963 0.0113097 0)
(1.00362 -0.0090019 0)
(0.986637 -0.011834 0)
(0.984899 0.00939439 0)
(1.00863 0.0125379 0)
(1.01315 -0.0184408 0)
(0.989018 -0.0182716 0)
(0.982485 -0.0101697 0)
(0.986088 -0.00551024 0)
(0.991939 0.000133195 0)
(0.995209 0.00144786 0)
(0.997766 0.000507252 0)
(0.996898 -0.0022251 0)
(0.993539 0.00145459 0)
(0.992567 0.000235684 0)
(0.989523 0.00365586 0)
(0.987919 0.00549273 0)
(0.987851 0.00709959 0)
(0.987517 0.00870457 0)
(0.987375 0.0103278 0)
(0.986925 0.0113102 0)
(1.00346 -0.00881857 0)
(0.987086 -0.0117042 0)
(0.984902 0.00907482 0)
(1.00766 0.011973 0)
(1.01308 -0.0176455 0)
(0.990403 -0.0180969 0)
(0.983098 -0.010016 0)
(0.986418 -0.00555613 0)
(0.991572 -0.000298665 0)
(0.99422 0.00132723 0)
(0.996601 0.000422034 0)
(0.995987 -0.00201507 0)
(0.993103 0.00156854 0)
(0.992379 0.00062976 0)
(0.989921 0.00366192 0)
(0.988405 0.00571517 0)
(0.988573 0.00720941 0)
(0.988354 0.00872388 0)
(0.988282 0.0103015 0)
(0.987827 0.0113573 0)
(1.00336 -0.0086383 0)
(0.987441 -0.0115564 0)
(0.984873 0.00873942 0)
(1.00681 0.0114437 0)
(1.01297 -0.0169452 0)
(0.991697 -0.0178581 0)
(0.983665 -0.00990265 0)
(0.986715 -0.00551208 0)
(0.991261 -0.00074399 0)
(0.993271 0.00127197 0)
(0.995477 0.00030791 0)
(0.995034 -0.00178777 0)
(0.992576 0.00165438 0)
(0.992051 0.000949498 0)
(0.990143 0.00370152 0)
(0.988743 0.00584963 0)
(0.989111 0.00732375 0)
(0.989054 0.00873492 0)
(0.98908 0.0102862 0)
(0.988628 0.0114048 0)
(1.00332 -0.00845294 0)
(0.987697 -0.0114024 0)
(0.984841 0.00839944 0)
(1.0061 0.0109029 0)
(1.01282 -0.0162583 0)
(0.992839 -0.0175909 0)
(0.984193 -0.00977685 0)
(0.986973 -0.00545895 0)
(0.991038 -0.00115917 0)
(0.992417 0.00118742 0)
(0.994456 0.000221546 0)
(0.994133 -0.00168763 0)
(0.99202 0.00183656 0)
(0.991657 0.001136 0)
(0.990232 0.00379036 0)
(0.988966 0.00583999 0)
(0.989478 0.00746912 0)
(0.989592 0.00863898 0)
(0.989697 0.0102524 0)
(0.989275 0.0114203 0)
(1.00333 -0.00824357 0)
(0.987868 -0.0112933 0)
(0.984828 0.00813118 0)
(1.00552 0.0102722 0)
(1.01262 -0.015539 0)
(0.993793 -0.0173734 0)
(0.984685 -0.00961602 0)
(0.987199 -0.00540467 0)
(0.990917 -0.00149333 0)
(0.991709 0.00102313 0)
(0.993565 0.00026463 0)
(0.993366 -0.00171766 0)
(0.991501 0.00196509 0)
(0.991257 0.00140125 0)
(0.990229 0.00376517 0)
(0.989115 0.00590231 0)
(0.989711 0.00761296 0)
(0.990008 0.0087075 0)
(0.990231 0.0101946 0)
(0.989788 0.0114206 0)
(1.00338 -0.00806088 0)
(0.987978 -0.011105 0)
(0.98486 0.00775166 0)
(1.00505 0.0097875 0)
(1.01236 -0.0150164 0)
(0.994554 -0.0169976 0)
(0.985159 -0.00956499 0)
(0.987394 -0.00517551 0)
(0.990898 -0.00196822 0)
(0.991159 0.0011031 0)
(0.992836 0.000137685 0)
(0.992751 -0.00133874 0)
(0.99109 0.0015619 0)
(0.990902 0.00202256 0)
(0.990204 0.00347878 0)
(0.989243 0.00626175 0)
(0.989867 0.00752856 0)
(0.990293 0.00907164 0)
(0.990596 0.00990296 0)
(0.990185 0.0111596 0)
(1.00345 -0.00785269 0)
(0.988066 -0.0109516 0)
(0.984948 0.00743253 0)
(1.00465 0.00919953 0)
(1.01204 -0.0144078 0)
(0.995142 -0.0166324 0)
(0.985602 -0.00947892 0)
(0.987573 -0.00502344 0)
(0.990965 -0.00225588 0)
(0.990794 0.000908983 0)
(0.992263 0.000234895 0)
(0.992297 -0.00137754 0)
(0.990802 0.00170658 0)
(0.990653 0.00211653 0)
(0.990198 0.00361734 0)
(0.989394 0.00609063 0)
(0.989996 0.0076395 0)
(0.99049 0.00890746 0)
(0.990801 0.00984779 0)
(0.99047 0.0110737 0)
(1.00352 -0.00761726 0)
(0.988163 -0.0108439 0)
(0.985097 0.00715885 0)
(1.00429 0.008577 0)
(1.01167 -0.0137782 0)
(0.995579 -0.0163594 0)
(0.986024 -0.00930466 0)
(0.987751 -0.00495265 0)
(0.991075 -0.00238683 0)
(0.990599 0.000577167 0)
(0.991817 0.000427454 0)
(0.992054 -0.00154032 0)
(0.990641 0.00198445 0)
(0.990508 0.00216199 0)
(0.990232 0.00385763 0)
(0.989581 0.00593183 0)
(0.990143 0.00777005 0)
(0.990696 0.00882275 0)
(0.991115 0.00982538 0)
(0.990729 0.0110029 0)
(1.00357 -0.00743076 0)
(0.988287 -0.0106212 0)
(0.985319 0.00673561 0)
(1.00394 0.00813776 0)
(1.01125 -0.0133942 0)
(0.995899 -0.0158351 0)
(0.986431 -0.00933979 0)
(0.987921 -0.00460803 0)
(0.991239 -0.00289875 0)
(0.990532 0.000663426 0)
(0.991513 0.000290208 0)
(0.991931 -0.0010175 0)
(0.990634 0.00129361 0)
(0.990473 0.00287872 0)
(0.990345 0.00365314 0)
(0.989812 0.00635052 0)
(0.99034 0.0074876 0)
(0.990871 0.00923763 0)
(0.991325 0.00945847 0)
(0.990958 0.0105678 0)
(1.00359 -0.00720142 0)
(0.988462 -0.0104652 0)
(0.985598 0.00639236 0)
(1.00361 0.00758259 0)
(1.01079 -0.0128609 0)
(0.996143 -0.0154342 0)
(0.986827 -0.00922579 0)
(0.988088 -0.00450034 0)
(0.991422 -0.00298003 0)
(0.990592 0.000366735 0)
(0.991317 0.000504606 0)
(0.991877 -0.00102585 0)
(0.990757 0.00154184 0)
(0.990574 0.00284549 0)
(0.99053 0.00381818 0)
(0.990099 0.00602948 0)
(0.990592 0.00746437 0)
(0.991047 0.00886808 0)
(0.991421 0.00950329 0)
(0.991156 0.0105224 0)
(1.00357 -0.00693991 0)
(0.988698 -0.0103708 0)
(0.985922 0.00611287 0)
(1.00327 0.00698217 0)
(1.01031 -0.012309 0)
(0.996342 -0.0150943 0)
(0.98719 -0.00903808 0)
(0.98829 -0.00451876 0)
(0.991603 -0.00284742 0)
(0.990733 -0.00010634 0)
(0.991191 0.000879584 0)
(0.991966 -0.00127153 0)
(0.990942 0.00181416 0)
(0.990705 0.00268223 0)
(0.990752 0.00413126 0)
(0.990432 0.00573854 0)
(0.990891 0.00752449 0)
(0.991333 0.00858914 0)
(0.991788 0.00957793 0)
(0.991397 0.0104914 0)
(1.00353 -0.00675772 0)
(0.988974 -0.0101075 0)
(0.986298 0.00561845 0)
(1.00292 0.00663256 0)
(1.00982 -0.0120469 0)
(0.996493 -0.0144891 0)
(0.987566 -0.00912759 0)
(0.988487 -0.00410046 0)
(0.991794 -0.00342493 0)
(0.990922 1.24752e-05 0)
(0.991135 0.000358526 0)
(0.992028 -0.000438626 0)
(0.991232 0.00114714 0)
(0.990947 0.00355954 0)
(0.991044 0.00393695 0)
(0.990781 0.00634426 0)
(0.991244 0.00717043 0)
(0.991606 0.00913532 0)
(0.992029 0.00917411 0)
(0.991628 0.00997788 0)
(1.00345 -0.00650927 0)
(0.989301 -0.00995097 0)
(0.986699 0.00525946 0)
(1.00257 0.0061363 0)
(1.00931 -0.0115757 0)
(0.996643 -0.0140849 0)
(0.987937 -0.008933 0)
(0.988679 -0.00410518 0)
(0.991989 -0.00334033 0)
(0.991133 -0.000344331 0)
(0.991169 0.000633757 0)
(0.99215 -0.00049375 0)
(0.991559 0.00121651 0)
(0.991199 0.00338712 0)
(0.991337 0.00410907 0)
(0.991138 0.00598473 0)
(0.991618 0.00716798 0)
(0.991873 0.00869758 0)
(0.992106 0.00932404 0)
(0.991835 0.0100734 0)
(1.00334 -0.00623213 0)
(0.989669 -0.00985774 0)
(0.987117 0.00497327 0)
(1.00223 0.00557434 0)
(1.0088 -0.0110675 0)
(0.996786 -0.0137429 0)
(0.988287 -0.00869902 0)
(0.988925 -0.00423139 0)
(0.992159 -0.00309051 0)
(0.991398 -0.000778179 0)
(0.991175 0.00103091 0)
(0.992231 -0.000669487 0)
(0.991896 0.00143856 0)
(0.991524 0.00299383 0)
(0.991645 0.00445099 0)
(0.991523 0.00564862 0)
(0.992007 0.00728732 0)
(0.992266 0.00834459 0)
(0.992551 0.00948371 0)
(0.992077 0.0101941 0)
(1.00323 -0.00606989 0)
(0.990045 -0.00954491 0)
(0.987568 0.00438724 0)
(1.00188 0.00536344 0)
(1.0083 -0.0109459 0)
(0.996911 -0.0130866 0)
(0.988658 -0.00880557 0)
(0.989149 -0.00373594 0)
(0.99236 -0.00376231 0)
(0.991635 -0.000445766 0)
(0.991262 0.000289972 0)
(0.992339 0.000440119 0)
(0.992219 0.00102995 0)
(0.991831 0.0037846 0)
(0.991973 0.00411581 0)
(0.991882 0.00631714 0)
(0.992411 0.00684807 0)
(0.992613 0.00894893 0)
(0.992815 0.00894979 0)
(0.992307 0.00962139 0)
(1.00311 -0.00577898 0)
(0.990437 -0.00943806 0)
(0.988019 0.00406846 0)
(1.00154 0.00484325 0)
(1.00778 -0.0104237 0)
(0.997047 -0.0127861 0)
(0.989045 -0.00847178 0)
(0.989361 -0.00387069 0)
(0.992547 -0.00352058 0)
(0.991899 -0.000921348 0)
(0.991383 0.000662746 0)
(0.992425 0.000187845 0)
(0.992557 0.000977665 0)
(0.992145 0.00345198 0)
(0.992287 0.00422363 0)
(0.992215 0.00598063 0)
(0.992798 0.00683313 0)
(0.992908 0.00856069 0)
(0.992851 0.00921665 0)
(0.99249 0.00992405 0)
(1.00297 -0.00553329 0)
(0.990856 -0.00928047 0)
(0.988466 0.0037035 0)
(1.00122 0.00441893 0)
(1.00728 -0.00997866 0)
(0.997191 -0.0125048 0)
(0.989389 -0.00810846 0)
(0.989629 -0.00408785 0)
(0.992714 -0.00315813 0)
(0.992187 -0.00137857 0)
(0.991482 0.00100187 0)
(0.992483 -4.40943e-05 0)
(0.992865 0.00113764 0)
(0.992509 0.00289991 0)
(0.99261 0.00443157 0)
(0.992579 0.00557279 0)
(0.993209 0.00692079 0)
(0.993402 0.00812382 0)
(0.993368 0.00965981 0)
(0.992699 0.0104015 0)
(1.00284 -0.0053633 0)
(0.991252 -0.0089631 0)
(0.988938 0.00311772 0)
(1.0009 0.00422308 0)
(1.00678 -0.00982608 0)
(0.99732 -0.0119499 0)
(0.989771 -0.00808564 0)
(0.989867 -0.00370741 0)
(0.992899 -0.00351995 0)
(0.992462 -0.00121931 0)
(0.991636 0.000645634 0)
(0.992549 0.000663133 0)
(0.993147 0.000927929 0)
(0.992862 0.00319081 0)
(0.992952 0.00423463 0)
(0.992917 0.00592444 0)
(0.993602 0.0066733 0)
(0.993872 0.0082489 0)
(0.993742 0.00924867 0)
(0.992867 0.0099892 0)
(1.00271 -0.00504414 0)
(0.991654 -0.00889402 0)
(0.989398 0.00282327 0)
(1.00058 0.00370544 0)
(1.00629 -0.00933939 0)
(0.997448 -0.0116457 0)
(0.990155 -0.00784636 0)
(0.990109 -0.00365518 0)
(0.993078 -0.00344136 0)
(0.992759 -0.00138931 0)
(0.991821 0.000742655 0)
(0.992593 0.000924488 0)
(0.993406 0.001002 0)
(0.993216 0.0031972 0)
(0.993303 0.00423591 0)
(0.993246 0.00602155 0)
(0.993952 0.00663572 0)
(0.994284 0.00801573 0)
(0.994059 0.0088235 0)
(0.993046 0.00955903 0)
(1.00258 -0.00486665 0)
(0.992057 -0.00863061 0)
(0.989854 0.00233458 0)
(1.00029 0.00343737 0)
(1.00581 -0.00896808 0)
(0.997571 -0.0113063 0)
(0.990545 -0.0076321 0)
(0.990362 -0.00354366 0)
(0.993244 -0.00332969 0)
(0.993062 -0.00146952 0)
(0.992033 0.000698851 0)
(0.992648 0.00113518 0)
(0.993641 0.00112527 0)
(0.993563 0.00309308 0)
(0.993667 0.00420635 0)
(0.993576 0.00602364 0)
(0.994249 0.00661079 0)
(0.994638 0.00770543 0)
(0.994366 0.00843865 0)
(0.993243 0.00913049 0)
(1.00245 -0.00461855 0)
(0.992457 -0.00842407 0)
(0.990306 0.00192634 0)
(0.999998 0.00304909 0)
(1.00533 -0.00858506 0)
(0.997691 -0.0109476 0)
(0.990936 -0.00741783 0)
(0.990616 -0.00344787 0)
(0.993408 -0.00319091 0)
(0.993361 -0.00156889 0)
(0.99227 0.000609078 0)
(0.992715 0.00138527 0)
(0.993845 0.00124643 0)
(0.993905 0.00304521 0)
(0.994056 0.00416625 0)
(0.993916 0.00598217 0)
(0.994508 0.00657243 0)
(0.994943 0.00742125 0)
(0.994646 0.00806866 0)
(0.993452 0.00868816 0)
(1.00233 -0.00438559 0)
(0.992853 -0.00823548 0)
(0.990752 0.00150395 0)
(0.999728 0.00267062 0)
(1.00486 -0.00813753 0)
(0.9978 -0.0106298 0)
(0.991329 -0.00720708 0)
(0.990878 -0.00333319 0)
(0.993556 -0.00305361 0)
(0.993654 -0.00170854 0)
(0.992549 0.00057013 0)
(0.992802 0.00161929 0)
(0.994032 0.00141151 0)
(0.99424 0.00302479 0)
(0.994443 0.00410398 0)
(0.994264 0.00584197 0)
(0.994735 0.00653456 0)
(0.995195 0.00717007 0)
(0.994902 0.0077558 0)
(0.993671 0.00827822 0)
(1.00221 -0.00416928 0)
(0.993242 -0.008021 0)
(0.991199 0.00112526 0)
(0.999476 0.00229243 0)
(1.0044 -0.00775026 0)
(0.997901 -0.010294 0)
(0.991727 -0.00698077 0)
(0.991138 -0.003234 0)
(0.993692 -0.00290963 0)
(0.99395 -0.00174917 0)
(0.992862 0.000510613 0)
(0.992908 0.00175936 0)
(0.994195 0.00153865 0)
(0.994554 0.00296328 0)
(0.994827 0.00400607 0)
(0.994638 0.00564655 0)
(0.994965 0.00649712 0)
(0.995417 0.00697624 0)
(0.995129 0.0075078 0)
(0.993889 0.00790055 0)
(1.00209 -0.00394453 0)
(0.993625 -0.00780698 0)
(0.991636 0.00073742 0)
(0.999237 0.00188205 0)
(1.00396 -0.00732234 0)
(0.997996 -0.0099032 0)
(0.992123 -0.00677084 0)
(0.991405 -0.00315549 0)
(0.993826 -0.00271605 0)
(0.994232 -0.0017639 0)
(0.993189 0.000352892 0)
(0.993033 0.0018393 0)
(0.994349 0.00169692 0)
(0.994861 0.0029515 0)
(0.995205 0.00395261 0)
(0.995035 0.0054231 0)
(0.995201 0.00642359 0)
(0.995603 0.00678698 0)
(0.995315 0.00727221 0)
(0.994083 0.00751886 0)
(1.00197 -0.00373124 0)
(0.993998 -0.00760174 0)
(0.992072 0.000364131 0)
(0.999026 0.00151738 0)
(1.00353 -0.00691294 0)
(0.998076 -0.00954203 0)
(0.992515 -0.00658643 0)
(0.991677 -0.00305488 0)
(0.993948 -0.00253853 0)
(0.994489 -0.0017581 0)
(0.99354 0.000195757 0)
(0.993206 0.00197838 0)
(0.994499 0.0019265 0)
(0.995148 0.00295564 0)
(0.995555 0.00389273 0)
(0.995437 0.00515015 0)
(0.995455 0.00629683 0)
(0.995774 0.00661621 0)
(0.995463 0.00708221 0)
(0.994261 0.00719537 0)
(1.00186 -0.00352014 0)
(0.994364 -0.00739188 0)
(0.992498 2.77197e-05 0)
(0.998828 0.00113422 0)
(1.00312 -0.0065568 0)
(0.998152 -0.00915544 0)
(0.992911 -0.00636514 0)
(0.99196 -0.00295146 0)
(0.99407 -0.00236568 0)
(0.994732 -0.00170559 0)
(0.993915 7.49267e-05 0)
(0.993414 0.00205779 0)
(0.994625 0.00208846 0)
(0.995402 0.00286808 0)
(0.995875 0.00381042 0)
(0.995847 0.00488685 0)
(0.995742 0.00616087 0)
(0.995946 0.00647713 0)
(0.995584 0.00694371 0)
(0.994406 0.00694223 0)
(1.00175 -0.0033116 0)
(0.994718 -0.00719421 0)
(0.992921 -0.000319498 0)
(0.998656 0.00078855 0)
(1.00272 -0.00622963 0)
(0.998222 -0.00874696 0)
(0.993299 -0.00614229 0)
(0.992242 -0.00286079 0)
(0.994186 -0.00221344 0)
(0.994952 -0.00162305 0)
(0.994294 -6.69436e-05 0)
(0.993653 0.00202599 0)
(0.994737 0.00223935 0)
(0.995645 0.00283253 0)
(0.996194 0.00382507 0)
(0.996267 0.00472686 0)
(0.996062 0.00602232 0)
(0.99613 0.00632856 0)
(0.995684 0.00679506 0)
(0.994517 0.00672185 0)
(1.00165 -0.00311508 0)
(0.995062 -0.00695223 0)
(0.993336 -0.000662379 0)
(0.9985 0.000454244 0)
(1.00234 -0.00593351 0)
(0.998286 -0.00835938 0)
(0.993682 -0.00593811 0)
(0.992532 -0.00275223 0)
(0.994308 -0.00202389 0)
(0.995154 -0.0014881 0)
(0.994672 -0.000169619 0)
(0.993937 0.00193848 0)
(0.994863 0.00241815 0)
(0.995882 0.00283428 0)
(0.996492 0.00382186 0)
(0.996657 0.00452499 0)
(0.996375 0.0057725 0)
(0.996312 0.00611363 0)
(0.995775 0.00659782 0)
(0.994602 0.0065436 0)
(1.00155 -0.00293877 0)
(0.99539 -0.00672448 0)
(0.993746 -0.000994321 0)
(0.998375 0.000146781 0)
(1.00198 -0.00568888 0)
(0.998329 -0.00786439 0)
(0.994046 -0.00570539 0)
(0.992821 -0.00267073 0)
(0.994427 -0.0018958 0)
(0.995331 -0.00137379 0)
(0.995033 -0.000249301 0)
(0.994262 0.00180229 0)
(0.994999 0.0025715 0)
(0.996093 0.00281583 0)
(0.996764 0.00374392 0)
(0.997021 0.00430271 0)
(0.996717 0.00551249 0)
(0.996535 0.00592817 0)
(0.995901 0.00642789 0)
(0.994693 0.00643213 0)
(1.00145 -0.00273514 0)
(0.995712 -0.0065511 0)
(0.994143 -0.00122592 0)
(0.99825 -0.000264047 0)
(1.00165 -0.00533073 0)
(0.998401 -0.00754659 0)
(0.994418 -0.00551081 0)
(0.993125 -0.00250164 0)
(0.994563 -0.00171744 0)
(0.995505 -0.00122808 0)
(0.995381 -0.000282756 0)
(0.994623 0.00166268 0)
(0.995152 0.00269634 0)
(0.996273 0.0028397 0)
(0.997007 0.0036913 0)
(0.997365 0.00419165 0)
(0.997067 0.00531188 0)
(0.996768 0.00579696 0)
(0.996036 0.00627835 0)
(0.994754 0.0063372 0)
(1.00136 -0.00255367 0)
(0.996016 -0.00633932 0)
(0.994532 -0.00150565 0)
(0.998173 -0.000594362 0)
(1.00133 -0.00504471 0)
(0.998432 -0.0072467 0)
(0.994789 -0.0052542 0)
(0.99343 -0.00229832 0)
(0.994681 -0.00152203 0)
(0.995646 -0.00107998 0)
(0.995701 -0.000269424 0)
(0.995012 0.00149579 0)
(0.995334 0.00274877 0)
(0.99644 0.00288395 0)
(0.99725 0.00364849 0)
(0.997697 0.00410206 0)
(0.997432 0.00507936 0)
(0.997035 0.00564056 0)
(0.9962 0.00608167 0)
(0.994832 0.00622353 0)
(1.00127 -0.00240768 0)
(0.996306 -0.00607074 0)
(0.994916 -0.00179208 0)
(0.998103 -0.000820469 0)
(1.00104 -0.00491977 0)
(0.998479 -0.00677754 0)
(0.995146 -0.0050205 0)
(0.99373 -0.00225559 0)
(0.994809 -0.00141576 0)
(0.995795 -0.000957586 0)
(0.996004 -0.000223074 0)
(0.995418 0.00131191 0)
(0.99556 0.00273697 0)
(0.996604 0.00295813 0)
(0.997466 0.00359653 0)
(0.997989 0.00400925 0)
(0.997787 0.00483919 0)
(0.997306 0.00545813 0)
(0.996378 0.00586054 0)
(0.994911 0.00610614 0)
(1.00119 -0.00223224 0)
(0.996582 -0.00584726 0)
(0.995286 -0.00201779 0)
(0.998055 -0.00108948 0)
(1.00077 -0.00465908 0)