/*--------------------------------*- C++ -*----------------------------------*\
| =========                 |                                                 |
| \\      /  F ield         | OpenFOAM: The Open Source CFD Toolbox           |
|  \\    /   O peration     | Version:  v2012                                 |
|   \\  /    A nd           | Website:  www.openfoam.com                      |
|    \\/     M anipulation  |                                                 |
\*---------------------------------------------------------------------------*/
FoamFile
{
    version     2.0;
    format      ascii;
    class       volScalarField;
    location    "6.6";
    object      p;
}
// * * * * * * * * * * * * * * * * * * * * * * * * * * * * * * * * * * * * * //

dimensions      [0 2 -2 0 0 0 0];


internalField   nonuniform List<scalar> 
7000
(
8.72303e-13
0.000533705
-0.00315212
-0.000206373
0.00183654
0.00316205
0.00477911
0.00720514
0.00578755
0.00705844
0.00715155
0.00977108
0.00907124
0.0116706
0.0119244
0.0148272
0.0159512
0.0196308
0.0224589
0.028427
-6.77501e-06
0.000533894
-0.0031428
-0.000201377
0.00182524
0.00316006
0.00478379
0.00719094
0.00578991
0.0070569
0.00714906
0.00976592
0.00907927
0.0116634
0.0119372
0.0148112
0.0159744
0.0195959
0.0224938
0.028186
-1.42649e-05
0.000535378
-0.00313352
-0.000198712
0.00180533
0.00316099
0.00478707
0.00717961
0.00579003
0.00706325
0.00714861
0.0097603
0.00909592
0.01165
0.011956
0.0147856
0.016005
0.0195385
0.0225243
0.0277586
-2.20692e-05
0.000537485
-0.00312259
-0.000199169
0.00178497
0.00316331
0.00478768
0.00717189
0.00578901
0.00707461
0.00714887
0.00975236
0.00911853
0.0116307
0.0119786
0.0147531
0.0160389
0.0194704
0.0225258
0.0273071
-3.07019e-05
0.000540458
-0.00310765
-0.000200569
0.00176607
0.0031649
0.00478783
0.00716551
0.00578853
0.00708682
0.00715041
0.00974121
0.00914485
0.0116062
0.0120038
0.0147146
0.016075
0.0193917
0.0225039
0.0268774
-3.99909e-05
0.00054453
-0.00308667
-0.000201225
0.00174849
0.00316572
0.00478888
0.00715937
0.00578924
0.00709799
0.00715402
0.00972619
0.00917429
0.0115764
0.0120318
0.0146706
0.0161116
0.0193048
0.022462
0.0264741
-4.95265e-05
0.000549694
-0.00305853
-0.000199881
0.00173245
0.00316642
0.00479127
0.00715299
0.00579135
0.00710704
0.00716014
0.00970693
0.00920698
0.0115414
0.0120625
0.0146209
0.0161473
0.0192115
0.0224004
0.0260914
-5.88902e-05
0.000555817
-0.00302307
-0.000195687
0.00171827
0.00316725
0.00479483
0.00714598
0.0057947
0.00711325
0.00716898
0.00968314
0.00924304
0.0115012
0.0120955
0.014566
0.0161804
0.019113
0.0223185
0.025724
-6.77942e-05
0.000562762
-0.00298067
-0.000188338
0.00170593
0.00316811
0.00479898
0.00713768
0.00579904
0.007116
0.00718058
0.00965461
0.00928247
0.0114558
0.01213
0.0145068
0.0162085
0.0190106
0.0222157
0.0253682
-7.61386e-05
0.000570468
-0.00293184
-0.000177966
0.0016952
0.0031687
0.00480292
0.00712719
0.00580409
0.00711467
0.00719508
0.00962118
0.00932513
0.0114053
0.0121648
0.0144443
0.0162292
0.0189055
0.0220917
0.0250214
-8.39844e-05
0.000578976
-0.002877
-0.000164759
0.0016861
0.0031687
0.00480586
0.00711357
0.00580976
0.00710871
0.00721262
0.00958276
0.00937065
0.0113503
0.0121987
0.0143799
0.01624
0.0187984
0.0219468
0.0246811
-9.14789e-05
0.000588358
-0.00281651
-0.000148627
0.00167901
0.00316799
0.00480727
0.0070959
0.0058161
0.00709762
0.00723338
0.00953935
0.00941847
0.0112914
0.0122298
0.0143151
0.016239
0.0186895
0.021782
0.0243445
-9.87751e-05
0.000598629
-0.00275078
-0.000127661
0.00167444
0.0031666
0.00480709
0.00707373
0.00582338
0.00708103
0.0072575
0.00949108
0.00946785
0.0112297
0.0122563
0.0142512
0.0162245
0.0185785
0.0215984
0.024009
-0.000105983
0.000609713
-0.00268048
-0.000104999
0.00167261
0.00316466
0.00480568
0.00704692
0.00583198
0.00705868
0.00728499
0.00943821
0.0095178
0.0111664
0.0122762
0.014189
0.0161957
0.0184643
0.0213971
0.0236724
-0.000113163
0.000621457
-0.00260639
-7.93406e-05
0.00167327
0.00316219
0.00480371
0.00701561
0.00584228
0.00703043
0.00731578
0.0093812
0.00956694
0.0111035
0.0122874
0.0141293
0.016152
0.0183446
0.0211792
0.0233324
-0.000120329
0.000633672
-0.00252928
-5.12073e-05
0.00167576
0.00315908
0.00480192
0.00697997
0.00585461
0.00699625
0.0073496
0.0093208
0.00961351
0.0110428
0.0122885
0.0140717
0.0160937
0.0182175
0.0209459
0.0229872
-0.000127468
0.000646185
-0.00244979
-2.12602e-05
0.00167933
0.00315513
0.00480098
0.00694056
0.00586918
0.0069562
0.00738602
0.00925814
0.0096554
0.010986
0.0122784
0.0140155
0.0160217
0.0180809
0.0206981
0.0226353
-0.000134559
0.000658872
-0.00236834
9.901e-06
0.00168343
0.00315007
0.00480137
0.0068976
0.00588607
0.0069105
0.00742427
0.00919478
0.00969041
0.0109343
0.0122567
0.0139594
0.015937
0.0179328
0.0204365
0.0222756
-0.000141575
0.000671667
-0.00228514
4.18222e-05
0.00168775
0.00314365
0.0048034
0.00685118
0.00590518
0.00685959
0.00746326
0.00913265
0.00971649
0.0108887
0.0122234
0.0139014
0.0158411
0.0177717
0.020161
0.0219076
-0.000148491
0.000684552
-0.00220023
7.42003e-05
0.00169222
0.00313566
0.00480722
0.00680142
0.00592633
0.00680415
0.00750149
0.00907386
0.00973199
0.0108491
0.0121791
0.0138389
0.0157357
0.0175982
0.0198718
0.0215304
-0.000155277
0.000697532
-0.00211354
0.000106837
0.00169695
0.00312594
0.00481292
0.00674839
0.00594913
0.00674526
0.00753712
0.00902042
0.00973579
0.010815
0.0121255
0.0137691
0.0156208
0.0174129
0.0195704
0.021144
-0.000161898
0.000710613
-0.00202493
0.000139598
0.00170211
0.00311432
0.00482051
0.0066922
0.00597294
0.00668427
0.00756832
0.00897373
0.00972751
0.0107846
0.0120643
0.0136905
0.0154961
0.0172152
0.0192577
0.0207496
-0.00016831
0.000723785
-0.00193428
0.000172389
0.00170789
0.00310069
0.00482994
0.00663315
0.00599689
0.00662256
0.00759357
0.00893457
0.00970746
0.010756
0.0119967
0.0136021
0.0153627
0.0170048
0.0189337
0.0203485
-0.000174461
0.000737021
-0.00184146
0.000205134
0.00171448
0.00308491
0.00484102
0.00657167
0.00602002
0.00656164
0.00761145
0.00890337
0.009676
0.0107276
0.0119243
0.0135016
0.0152214
0.0167835
0.0185977
0.0199413
-0.00018029
0.000750265
-0.00174639
0.000237758
0.00172202
0.00306696
0.00485356
0.00650831
0.0060409
0.00650311
0.00762074
0.00888026
0.00963374
0.0106965
0.01185
0.0133871
0.01507
0.0165559
0.0182521
0.0195272
-0.00018573
0.000763449
-0.00164905
0.000270221
0.00173065
0.00304685
0.00486716
0.00644427
0.00605782
0.00644791
0.00762082
0.0088647
0.00958259
0.010658
0.0117754
0.0132614
0.0149022
0.0163211
0.0179048
0.0191085
-0.000190708
0.000776498
-0.00154945
0.000302476
0.00174048
0.00302474
0.00488106
0.00638097
0.00607013
0.00639624
0.00761154
0.00885513
0.00952538
0.0106093
0.0116975
0.0131288
0.0147216
0.0160707
0.0175549
0.0186913
-0.000195133
0.000789276
-0.00144753
0.000334413
0.0017515
0.00300079
0.00489491
0.00631846
0.00607691
0.00634905
0.00759285
0.00884956
0.00946399
0.0105495
0.0116157
0.0129843
0.0145343
0.0158132
0.0171946
0.0182727
-0.000198897
0.000801654
-0.00134336
0.000366046
0.00176379
0.00297506
0.00490797
0.00625852
0.0060765
0.00630649
0.0075652
0.00884695
0.00939895
0.0104768
0.0115306
0.0128281
0.0143335
0.0155579
0.0168252
0.0178498
-0.000201917
0.000813544
-0.00123702
0.000397464
0.00177726
0.00294832
0.00491839
0.00620338
0.00606892
0.00626778
0.00752847
0.00884621
0.00933214
0.0103917
0.0114358
0.0126654
0.0141178
0.0152887
0.0164687
0.0174308
-0.000204034
0.000824775
-0.00112847
0.000428593
0.00179168
0.00292091
0.00492616
0.00615204
0.00605386
0.00623392
0.00748369
0.00884178
0.0092683
0.0102909
0.0113371
0.0124926
0.0138788
0.015014
0.0161299
0.0170107
-0.000205204
0.000835273
-0.00101787
0.000459694
0.00180676
0.00289337
0.00493042
0.00610594
0.00603122
0.00620112
0.0074372
0.00882821
0.00920739
0.0101749
0.0112317
0.0123201
0.0136198
0.0147219
0.0157728
0.0165986
-0.000205293
0.000844839
-0.000905172
0.000490784
0.00182231
0.00286664
0.00493005
0.00606534
0.00600381
0.00616461
0.00739165
0.00880666
0.00914552
0.0100497
0.0111062
0.0121462
0.0133693
0.0143961
0.0154131
0.0162096
-0.000203903
0.000853276
-0.000790523
0.000521675
0.00183836
0.00284045
0.00492588
0.00602641
0.00597032
0.00612998
0.00734058
0.0087797
0.00908458
0.00991202
0.0109729
0.0119564
0.0131047
0.0140838
0.0149886
0.0158144
-0.000201332
0.000860887
-0.000674363
0.000553565
0.00185344
0.00281731
0.00491411
0.00600054
0.00592871
0.00609548
0.00728597
0.00874586
0.00902053
0.00976953
0.0108213
0.0117576
0.0128067
0.0137577
0.0146463
0.0154301
-0.000197325
0.00086719
-0.000556657
0.000586662
0.00186743
0.00279708
0.00489604
0.00597924
0.00588517
0.00605206
0.00723603
0.008704
0.00894691
0.00961822
0.0106495
0.0115533
0.0125116
0.0134021
0.0143615
0.0150621
-0.000191078
0.000871929
-0.000437696
0.000619882
0.00188139
0.00277793
0.00487586
0.00594003
0.00584652
0.0060018
0.00718078
0.00865903
0.0088725
0.00944665
0.0104738
0.0113239
0.0122372
0.0130783
0.0138863
0.0146754
-0.000183494
0.000876076
-0.000318236
0.00065574
0.00189215
0.00276393
0.00484568
0.00593088
0.00580172
0.00595016
0.00711735
0.00860574
0.00879565
0.00926644
0.0102654
0.0111018
0.0119389
0.0127388
0.0135321
0.0143021
-0.000174208
0.000878757
-0.000198095
0.000694535
0.0018994
0.00275414
0.00480981
0.00592321
0.00575833
0.00589075
0.00705265
0.00854036
0.00871177
0.00907422
0.0100338
0.010883
0.0116346
0.0123665
0.0132912
0.0139462
-0.000161837
0.00087946
-7.8024e-05
0.000734015
0.00190641
0.00274483
0.00477634
0.00586305
0.00573261
0.00582078
0.00697707
0.00847061
0.00862076
0.00887554
0.00981225
0.0106255
0.0113655
0.0120162
0.0127204
0.0135612
-0.000147977
0.000880068
4.01261e-05
0.00077893
0.00190893
0.00274051
0.00473327
0.00584944
0.00569852
0.0057556
0.00689188
0.00839058
0.00851886
0.00866768
0.00956154
0.010369
0.0110606
0.0116766
0.0123415
0.0131827
-0.000132345
0.000879611
0.000156834
0.000828751
0.00190709
0.0027402
0.00468567
0.0058395
0.00566167
0.00569082
0.00680295
0.0082922
0.00840714
0.00845021
0.00928514
0.010121
0.0107396
0.0113239
0.0121572
0.01282
-0.000112487
0.000877113
0.000271686
0.000879259
0.00190699
0.00273699
0.00464629
0.0057587
0.00563873
0.00562003
0.00670393
0.00818938
0.00828986
0.00820979
0.0090217
0.00983735
0.0104687
0.0109393
0.0114841
0.0124272
-9.15165e-05
0.000875672
0.000382375
0.000936747
0.00190167
0.00273764
0.00459683
0.00573979
0.00560203
0.00555258
0.0065933
0.00807556
0.0081681
0.00797183
0.00871583
0.00954537
0.0101573
0.010588
0.0110872
0.0120504
-6.80465e-05
0.000873707
0.000489593
0.000999306
0.00189298
0.00273987
0.00454459
0.00572132
0.00555779
0.00548427
0.00647613
0.00794317
0.00805026
0.0077364
0.00838345
0.00922879
0.00979161
0.0102798
0.0109917
0.0116848
-3.9664e-05
0.000870286
0.000593029
0.00106153
0.00189142
0.00273385
0.00450532
0.00563598
0.00552968
0.00540491
0.00634912
0.00779855
0.00794086
0.00754623
0.00807463
0.00885559
0.00941895
0.00981051
0.010278
0.0113343
-1.11042e-05
0.000869137
0.000690611
0.00112969
0.00188865
0.00272677
0.00445997
0.00557617
0.00549379
0.00532369
0.00621015
0.00764122
0.00783137
0.00737792
0.0077388
0.00847607
0.00900068
0.00931108
0.00986433
0.0111013
2.15067e-05
0.00086825
0.000783096
0.00120096
0.00188595
0.0027192
0.00440771
0.00552412
0.00544761
0.00524665
0.0060569
0.00747274
0.0077215
0.00720501
0.00739123
0.00807967
0.00855618
0.0089184
0.00954837
0.0107767
5.76848e-05
0.000867839
0.000870156
0.00127244
0.00188827
0.0027094
0.00435266
0.00545583
0.00539982
0.00516777
0.00589524
0.00729687
0.00759508
0.00701933
0.00704923
0.00765647
0.00816639
0.00859596
0.00919581
0.0104079
9.54176e-05
0.000869312
0.000951192
0.001345
0.00189403
0.00269887
0.00429317
0.00538013
0.00534624
0.00508892
0.00573486
0.00710182
0.00743994
0.00684056
0.0067203
0.007246
0.00779588
0.00823933
0.00883759
0.0100818
0.000136995
0.000872008
0.00102723
0.001416
0.00190293
0.00268823
0.00423009
0.00529529
0.00528533
0.00501473
0.00557036
0.00688403
0.00727217
0.00666787
0.00640928
0.00683808
0.00739874
0.0078782
0.00852405
0.00978779
0.000181365
0.000876281
0.00109849
0.0014842
0.00191461
0.0026782
0.00416346
0.00520158
0.00521906
0.0049405
0.00540042
0.00665391
0.00709162
0.00649064
0.00611052
0.00643041
0.00699722
0.00752955
0.00823932
0.00950671
0.000228789
0.000882095
0.00116502
0.00154969
0.00192771
0.00266793
0.00409564
0.0051013
0.00514366
0.00486365
0.00523176
0.00641227
0.00689089
0.00630429
0.0058335
0.00603874
0.00658817
0.00717853
0.00794981
0.00923456
0.000279133
0.000889713
0.00122737
0.00161186
0.00194016
0.00265734
0.00402766
0.00499495
0.0050582
0.00478594
0.00506714
0.00615699
0.00667115
0.00611588
0.00557114
0.00565695
0.00617496
0.00681494
0.00766289
0.00897637
0.000332657
0.00089946
0.0012848
0.00166966
0.00195246
0.00264745
0.00395811
0.0048824
0.00496131
0.00470413
0.00490615
0.00589174
0.00643733
0.00592125
0.00531681
0.00528969
0.00576149
0.00644512
0.00736143
0.00871918
0.000389227
0.000911336
0.00133742
0.00172419
0.00196241
0.00263512
0.00389049
0.00476811
0.00485557
0.00461495
0.00474785
0.00561973
0.00618642
0.00571813
0.00507079
0.00494102
0.00535801
0.00606498
0.00704352
0.00845832
0.000448906
0.000926286
0.00138441
0.00177679
0.00196956
0.00261615
0.00382454
0.00465592
0.00474379
0.00451811
0.00459348
0.00534323
0.00591502
0.00550451
0.00483202
0.004613
0.00496006
0.00567108
0.00670637
0.00819457
0.000510203
0.000945153
0.00142669
0.00182574
0.00197336
0.00259208
0.00375693
0.00454206
0.00462714
0.00441404
0.00444436
0.0050676
0.00562495
0.00528038
0.00459692
0.00429896
0.00457147
0.00527317
0.00636013
0.00792249
0.000573914
0.000967128
0.00146526
0.00186937
0.00197163
0.00256101
0.00371125
0.00442747
0.00450948
0.00430334
0.00429805
0.00479717
0.00532028
0.00504133
0.00436383
0.00400096
0.00419451
0.00487698
0.00599723
0.00763635
0.000641941
0.000991665
0.00149969
0.00190969
0.00197749
0.00252397
0.00359196
0.0043115
0.0043929
0.0041865
0.00415191
0.0045353
0.00500342
0.00478681
0.004131
0.00371826
0.00383559
0.00448312
0.00562795
0.00734299
0.000709748
0.00102036
0.001532
0.00194638
0.00197975
0.00247212
0.00349792
0.00419578
0.00427704
0.00406486
0.0040041
0.0042834
0.00467917
0.00451642
0.00389396
0.00344822
0.00349438
0.00409698
0.00525723
0.00704232
0.000779349
0.00105355
0.00155971
0.0019768
0.00197211
0.00241746
0.00340177
0.00407748
0.00416188
0.00393992
0.00385142
0.00404099
0.00435368
0.00422837
0.0036484
0.00318517
0.00317022
0.00372722
0.00489029
0.0067332
0.000851448
0.0010891
0.00158177
0.00200164
0.00196583
0.00235397
0.003301
0.00395692
0.00404519
0.00381173
0.00368928
0.00380434
0.00402873
0.00392495
0.00339268
0.00292481
0.0028644
0.00337557
0.00453095
0.00642269
0.000923462
0.00112684
0.00159996
0.00202053
0.00196042
0.00229685
0.00319654
0.00382885
0.00392106
0.00367698
0.00351657
0.00357057
0.00371189
0.00361294
0.00312735
0.00266553
0.0025724
0.00304153
0.00418646
0.00611689
0.000995841
0.00116756
0.00161381
0.00203248
0.00195794
0.00224102
0.00308614
0.0036904
0.00378539
0.00353898
0.00333945
0.00334124
0.00340715
0.00329644
0.00285103
0.00240234
0.00229025
0.00272566
0.00385891
0.00581715
0.00106809
0.00121044
0.00162418
0.00203807
0.00195587
0.00218471
0.00297007
0.00354349
0.00364066
0.00340085
0.00316166
0.00311141
0.00310983
0.00297625
0.00256502
0.00213472
0.00201565
0.00242692
0.00354848
0.00552601
0.00113947
0.00125531
0.00163227
0.00203694
0.00195237
0.00212937
0.00285135
0.00339088
0.00348654
0.00325971
0.00298303
0.00287807
0.00281827
0.00265709
0.00227367
0.0018639
0.0017454
0.00214241
0.00325434
0.00524398
0.00120954
0.00130198
0.00163879
0.0020289
0.0019465
0.00207523
0.00273045
0.00323344
0.00332173
0.00311192
0.00280559
0.00264325
0.00253222
0.00234142
0.0019788
0.0015902
0.00147639
0.00186719
0.00297326
0.00497151
0.00127798
0.00135011
0.00164434
0.00201422
0.00193678
0.0020218
0.00260825
0.00307262
0.00314722
0.00295514
0.00263042
0.00240889
0.00224935
0.00202918
0.00168151
0.00131456
0.00120775
0.00159774
0.00270259
0.00470823
0.0013445
0.00139917
0.0016495
0.00199338
0.00192202
0.0019686
0.00248541
0.00290927
0.00296462
0.00278687
0.00245581
0.00217722
0.00196854
0.00172058
0.00138382
0.00103834
0.000939784
0.00133198
0.00243895
0.00445135
0.00140885
0.00144857
0.0016546
0.001967
0.00190146
0.00191519
0.00236204
0.0027438
0.00277588
0.00260572
0.00227921
0.00195055
0.00169139
0.00141615
0.00108602
0.000761495
0.000672703
0.00106802
0.00217821
0.00419858
0.00147078
0.00149778
0.00165999
0.00193582
0.00187427
0.00186063
0.00223822
0.00257674
0.00258343
0.00241231
0.00209784
0.00173007
0.00141973
0.00111532
0.00078758
0.000483705
0.000406462
0.000805159
0.00191854
0.00394794
0.00153003
0.00154624
0.00166573
0.00190052
0.00184008
0.00180416
0.00211439
0.00240831
0.00238914
0.00220788
0.00190833
0.00151461
0.00115425
0.000818167
0.000489637
0.000205315
0.000140609
0.000543359
0.00166021
0.00369862
0.00158601
0.00159344
0.00167171
0.00186182
0.00179875
0.00174486
0.00199068
0.00223859
0.00219448
0.00199494
0.00170812
0.00130167
0.000896234
0.000526447
0.000192422
-7.44964e-05
-0.000124879
0.000282996
0.00140282
0.00344956
0.00163942
0.00163882
0.00167776
0.00182052
0.00175048
0.00168171
0.00186693
0.00206737
0.00200017
0.00177661
0.00149599
0.00108838
0.000646604
0.000241717
-0.000103478
-0.000356388
-0.000390865
2.35234e-05
0.00114631
0.0032007
0.00169017
0.00168194
0.00168356
0.0017772
0.00169554
0.00161391
0.00174316
0.00189494
0.00180659
0.00155579
0.00127223
0.000871239
0.00040398
-3.51676e-05
-0.000396994
-0.000640625
-0.000658407
-0.000235172
0.000891134
0.00295216
0.00173797
0.00172239
0.00168879
0.00173254
0.00163449
0.00154067
0.0016191
0.00172124
0.00161331
0.00133517
0.00103925
0.000647202
0.000165388
-0.000303567
-0.000686067
-0.000926476
-0.00092865
-0.000494064
0.000637424
0.00270406
0.00178269
0.0017598
0.00169295
0.00168696
0.00156806
0.00146186
0.00149469
0.00154644
0.00141898
0.00111666
0.000800013
0.000414298
-7.20189e-05
-0.000564019
-0.000968915
-0.00121295
-0.00120251
-0.000754495
0.000384685
0.00245654
0.00182431
0.00179392
0.00169564
0.00164089
0.00149695
0.00137693
0.00136936
0.00137134
0.00122313
0.000901018
0.000557526
0.000172054
-0.000311423
-0.000818502
-0.0012448
-0.00149807
-0.00147958
-0.00101806
0.000131036
0.00220868
0.00186266
0.00182448
0.00169638
0.00159457
0.00142218
0.00128595
0.00124227
0.00119664
0.00102536
0.000687543
0.000315258
-7.80393e-05
-0.000556514
-0.00107071
-0.00151436
-0.00178004
-0.00175855
-0.00128504
-0.000124822
0.00195943
0.0018977
0.00185146
0.00169474
0.00154804
0.00134479
0.00118926
0.00111262
0.00102242
0.000825031
0.000474724
7.64167e-05
-0.000332488
-0.000807831
-0.0013236
-0.00177969
-0.00205916
-0.00203877
-0.00155669
-0.000385902
0.00170682
0.00192931
0.00187479
0.00169027
0.00150102
0.00126588
0.00108814
0.000980276
0.000849166
0.000622896
0.000259471
-0.000160392
-0.000588883
-0.0010642
-0.00157791
-0.00204181
-0.00233612
-0.00231939
-0.0018332
-0.000653335
0.00144961
0.00195743
0.00189463
0.00168309
0.00145309
0.00118543
0.000982787
0.000844999
0.00067758
0.000422958
4.25102e-05
-0.000397038
-0.000846753
-0.00132683
-0.00183675
-0.00230114
-0.0025979
-0.00259606
-0.00211203
-0.000925734
0.00118735
0.00198183
0.00191078
0.0016731
0.00140518
0.0011048
0.000874153
0.000704775
0.000503733
0.000224182
-0.000173811
-0.000631201
-0.00110199
-0.00159271
-0.00210194
-0.00256734
-0.0028726
-0.00287641
-0.00239466
-0.0012038
0.000918338
0.00200244
0.00192323
0.00165956
0.00135608
0.00102538
0.000766158
0.00056382
0.000326134
2.21117e-05
-0.000393044
-0.000866582
-0.00135403
-0.00185755
-0.00237041
-0.00283756
-0.00314802
-0.00315779
-0.00267924
-0.00148641
0.000642327
0.00201896
0.00193284
0.00164393
0.00130566
0.000944274
0.000656791
0.000424651
0.000151022
-0.000178378
-0.000613537
-0.00110733
-0.0016098
-0.00212405
-0.00264081
-0.00311085
-0.00342582
-0.00344126
-0.00296686
-0.00177393
0.000359454
0.00203135
0.00193858
0.00162616
0.00125662
0.00086484
0.00054443
0.000281929
-2.53942e-05
-0.00037741
-0.000828025
-0.00134513
-0.00187112
-0.00239739
-0.00291686
-0.00338916
-0.00370934
-0.00373133
-0.00326254
-0.00207114
6.53012e-05
0.00203863
0.00194117
0.00160556
0.00120785
0.000790026
0.000434709
0.00013803
-0.000205431
-0.000581295
-0.00104079
-0.0015752
-0.0021207
-0.00266461
-0.00319236
-0.00366836
-0.00399577
-0.00402709
-0.00356617
-0.00237779
-0.000240427
0.00204301
0.00193474
0.00157916
0.00115321
0.000713065
0.000322328
-6.79147e-06
-0.000387484
-0.000793953
-0.00126198
-0.00181154
-0.00237211
-0.00293437
-0.00347275
-0.00395398
-0.00428925
-0.00433109
-0.00388113
-0.00270099
-0.000565977
0.00205404
0.00195785
0.0015725
0.00112248
0.000655215
0.000218691
-0.000150866
-0.000567317
-0.00101037
-0.00147066
-0.00202153
-0.00260563
-0.00319032
-0.00374736
-0.00423979
-0.00458506
-0.00463958
-0.00420553
-0.00303746
-0.000907317
0.0020024
0.00189983
0.00152569
0.00107393
0.000598998
0.000130996
-0.000279317
-0.000725812
-0.00122508
-0.00171697
-0.00226348
-0.00285673
-0.00345206
-0.00402278
-0.00452875
-0.00489135
-0.00496675
-0.00455359
-0.00340533
-0.00129106
0.00205508
0.00194329
0.00153691
0.0010228
0.000488537
-4.35243e-05
-0.000489552
-0.000902495
-0.00135723
-0.00186096
-0.00241993
-0.00305101
-0.0036873
-0.00428166
-0.00479771
-0.00517005
-0.00526654
-0.00487761
-0.00375443
-0.00166447
0.001931
0.0018459
0.00156396
0.00114496
0.000602948
-8.62826e-05
-0.000703714
-0.00124649
-0.00170762
-0.00216992
-0.00269922
-0.00330227
-0.00395064
-0.0045823
-0.00512239
-0.00549768
-0.00558048
-0.00518494
-0.00406291
-0.00197836
0.00205194
0.00195095
0.00148879
0.000892756
0.000290873
-0.000256229
-0.000694803
-0.00111189
-0.00165792
-0.00219261
-0.00277783
-0.00342033
-0.00409911
-0.00479715
-0.00544904
-0.00594941
-0.00615688
-0.0058772
-0.00486226
-0.00287527
0.00195169
0.00189315
0.00143714
0.00096581
0.00040532
-0.000338473
-0.00105623
-0.00160592
-0.00209045
-0.00258703
-0.00312802
-0.00369223
-0.0042708
-0.00478466
-0.00520347
-0.00548372
-0.0055467
-0.00522253
-0.00426711
-0.00240717
0.00210459
0.00189505
0.00141211
0.000782341
0.000162793
-0.000372711
-0.000850599
-0.00123094
-0.0017659
-0.00237666
-0.00307158
-0.00382506
-0.00466223
-0.00556473
-0.00644873
-0.00719811
-0.0076496
-0.00759395
-0.00676771
-0.00494993
0.00229603
0.00175896
0.00120356
0.000578056
-9.39898e-06
-0.000708323
-0.00133332
-0.00182311
-0.00231871
-0.00296156
-0.00355571
-0.0040537
-0.00430086
-0.00424845
-0.00386279
-0.00320947
-0.00244399
-0.00184515
-0.00178092
-0.00257903
0.0022777
0.00180558
0.0012178
0.000643096
0.000161804
-0.000309043
-0.000751589
-0.00122322
-0.00177594
-0.00249226
-0.00335836
-0.00436638
-0.0054963
-0.00668039
-0.00782334
-0.00881213
-0.00950579
-0.0097046
-0.00914972
-0.00760151
0.00242426
0.00174976
0.00111323
0.000513913
3.99294e-05
-0.000573072
-0.00123567
-0.00199559
-0.00271435
-0.00325672
-0.00377801
-0.00439675
-0.00493899
-0.00525842
-0.00526391
-0.00496937
-0.00446936
-0.00403662
-0.0040451
-0.00485234
0.00241746
0.00172807
0.00111147
0.00059556
0.000272519
-6.48742e-05
-0.000406602
-0.000873426
-0.00151712
-0.00243747
-0.00365392
-0.00520814
-0.00701238
-0.00889661
-0.0106322
-0.0120268
-0.0129163
-0.013124
-0.0124384
-0.0106737
0.0378113
0.0141042
0.00469232
0.00334621
0.00333879
0.00311962
0.00270104
0.00217101
0.00164619
0.00120211
0.000797474
0.000385668
7.36404e-05
-9.02414e-05
-0.000257133
-0.00050265
-0.000751413
-0.000956866
-0.00119434
-0.00146041
-0.00169015
-0.00190105
-0.00214497
-0.00234754
-0.00249204
-0.00261806
-0.00282815
-0.00305981
-0.00328094
-0.00351536
-0.0037339
-0.00395589
-0.00421748
-0.00452581
-0.00479027
-0.00508007
-0.00537498
-0.00571423
-0.00606066
-0.00639651
-0.00676154
-0.00706823
-0.00748646
-0.00786941
-0.00835269
-0.00883267
-0.00938845
-0.010092
-0.0109412
-0.0120199
0.0369014
0.0141516
0.00473742
0.00336356
0.00334816
0.00312612
0.00270593
0.00217482
0.00164923
0.00120458
0.000799524
0.000387354
7.50215e-05
-8.9064e-05
-0.000256096
-0.000501737
-0.000750612
-0.000956146
-0.00119367
-0.0014598
-0.0016896
-0.00190054
-0.0021445
-0.00234713
-0.00249167
-0.00261772
-0.00282783
-0.00305951
-0.00328067
-0.00351511
-0.00373367
-0.00395567
-0.00421727
-0.00452562
-0.00479009
-0.0050799
-0.00537482
-0.00571407
-0.00606051
-0.00639638
-0.00676141
-0.00706811
-0.00748635
-0.00786931
-0.0083526
-0.00883259
-0.00938838
-0.010092
-0.0109412
-0.0120199
0.036104
0.0142412
0.00480922
0.00338651
0.00335845
0.00313272
0.00271071
0.00217843
0.00165204
0.00120686
0.000801409
0.000388879
7.62569e-05
-8.79925e-05
-0.000255148
-0.000500915
-0.000749899
-0.000955504
-0.00119308
-0.00145927
-0.00168911
-0.00190008
-0.00214409
-0.00234676
-0.00249135
-0.00261741
-0.00282754
-0.00305926
-0.00328043
-0.00351489
-0.00373347
-0.00395548
-0.00421709
-0.00452546
-0.00478994
-0.00507975
-0.00537468
-0.00571394
-0.00606039
-0.00639626
-0.0067613
-0.007068
-0.00748625
-0.00786922
-0.00835251
-0.00883252
-0.00938831
-0.0100919
-0.0109411
-0.01202
0.0353795
0.0143555
0.00491486
0.00342254
0.00337278
0.00314094
0.00271634
0.00218255
0.00165518
0.00120939
0.000803497
0.00039055
7.75865e-05
-8.68481e-05
-0.000254147
-0.000500062
-0.00074917
-0.000954854
-0.00119249
-0.00145874
-0.00168862
-0.00189963
-0.00214368
-0.0023464
-0.00249102
-0.00261709
-0.00282725
-0.003059
-0.00328019
-0.00351467
-0.00373327
-0.00395529
-0.00421691
-0.0045253
-0.00478979
-0.00507961
-0.00537455
-0.00571381
-0.00606026
-0.00639614
-0.00676119
-0.0070679
-0.00748615
-0.00786913
-0.00835243
-0.00883244
-0.00938824
-0.0100919
-0.0109411
-0.01202
0.0346667
0.0144797
0.00504872
0.00347258
0.0033927
0.00315186
0.00272358
0.00218772
0.00165911
0.00121257
0.000806144
0.000392677
7.9249e-05
-8.5474e-05
-0.000252985
-0.000499079
-0.000748339
-0.000954133
-0.00119185
-0.00145817
-0.0016881
-0.00189914
-0.00214324
-0.00234601
-0.00249066
-0.00261675
-0.00282694
-0.00305873
-0.00327994
-0.00351444
-0.00373305
-0.00395508
-0.00421672
-0.00452513
-0.00478963
-0.00507946
-0.0053744
-0.00571367
-0.00606014
-0.00639602
-0.00676108
-0.00706778
-0.00748604
-0.00786903
-0.00835234
-0.00883236
-0.00938816
-0.0100918
-0.0109411
-0.0120202
0.0339469
0.0146068
0.00519882
0.00353183
0.00341713
0.0031655
0.0027326
0.00219412
0.00166398
0.00121658
0.000809591
0.000395524
8.14548e-05
-8.37531e-05
-0.000251595
-0.000497906
-0.000747351
-0.000953305
-0.00119113
-0.00145754
-0.00168753
-0.0018986
-0.00214276
-0.00234558
-0.00249027
-0.00261637
-0.00282659
-0.00305844
-0.00327967
-0.00351419
-0.00373282
-0.00395486
-0.00421652
-0.00452495
-0.00478946
-0.0050793
-0.00537425
-0.00571353
-0.00606
-0.00639589
-0.00676096
-0.00706767
-0.00748593
-0.00786893
-0.00835224
-0.00883227
-0.00938807
-0.0100917
-0.010941
-0.0120203
0.0332214
0.0147325
0.00535733
0.00359575
0.00344416
0.00318119
0.00274319
0.00220162
0.00166975
0.00122146
0.000813947
0.00039929
8.44139e-05
-8.15609e-05
-0.000249927
-0.000496499
-0.000746155
-0.00095233
-0.00119032
-0.00145682
-0.00168687
-0.001898
-0.00214222
-0.00234509
-0.00248983
-0.00261594
-0.00282621
-0.00305813
-0.00327938
-0.00351392
-0.00373257
-0.00395462
-0.0042163
-0.00452476
-0.00478928
-0.00507913
-0.00537409
-0.00571339
-0.00605987
-0.00639577
-0.00676084
-0.00706754
-0.00748581
-0.00786882
-0.00835213
-0.00883217
-0.00938797
-0.0100916
-0.0109409
-0.0120205
0.0324947
0.0148542
0.00552121
0.00366219
0.00347247
0.00319825
0.00275497
0.00221
0.00167622
0.00122705
0.000819142
0.000404023
8.82713e-05
-7.87753e-05
-0.000247934
-0.000494835
-0.000744719
-0.000951171
-0.00118935
-0.00145596
-0.00168609
-0.00189729
-0.00214159
-0.00234454
-0.00248933
-0.00261545
-0.00282577
-0.00305778
-0.00327907
-0.00351363
-0.00373229
-0.00395436
-0.00421606
-0.00452456
-0.00478909
-0.00507895
-0.00537393
-0.00571323
-0.00605973
-0.00639563
-0.00676071
-0.00706742
-0.00748568
-0.0078687
-0.00835202
-0.00883205
-0.00938785
-0.0100914
-0.0109407
-0.0120208
0.0317696
0.0149706
0.00568987
0.00373049
0.00350134
0.00321616
0.00276765
0.002219
0.00168318
0.00123315
0.000824965
0.000409582
9.30306e-05
-7.53144e-05
-0.000245577
-0.000492925
-0.000743048
-0.000949814
-0.00118822
-0.00145492
-0.00168513
-0.00189643
-0.00214084
-0.0023439
-0.00248878
-0.00261491
-0.00282527
-0.00305738
-0.00327872
-0.00351332
-0.003732
-0.00395407
-0.0042158
-0.00452434
-0.00478889
-0.00507876
-0.00537375
-0.00571308
-0.00605959
-0.0063955
-0.00676058
-0.00706728
-0.00748555
-0.00786857
-0.00835189
-0.00883192
-0.00938771
-0.0100913
-0.0109405
-0.012021
0.0310478
0.0150809
0.00586329
0.0038005
0.00353036
0.00323455
0.00278101
0.00222849
0.00169048
0.00123959
0.000831192
0.00041571
9.85413e-05
-7.11739e-05
-0.000242833
-0.000490797
-0.000741187
-0.000948276
-0.00118691
-0.0014537
-0.00168398
-0.00189538
-0.00213993
-0.00234317
-0.00248819
-0.00261431
-0.0028247
-0.00305692
-0.00327833
-0.00351298
-0.00373167
-0.00395375
-0.0042155
-0.00452409
-0.00478866
-0.00507854
-0.00537355
-0.0057129
-0.00605944
-0.00639536
-0.00676045
-0.00706714
-0.00748541
-0.00786844
-0.00835175
-0.00883177
-0.00938754
-0.010091
-0.0109402
-0.0120213
0.0303304
0.0151843
0.00604127
0.00387219
0.00355923
0.00325316
0.00279487
0.00223835
0.00169804
0.00124628
0.000837675
0.000422171
0.000104569
-6.64363e-05
-0.000239702
-0.000488481
-0.000739196
-0.000946604
-0.00118543
-0.00145229
-0.00168262
-0.00189409
-0.0021388
-0.0023423
-0.00248756
-0.00261368
-0.00282407
-0.00305639
-0.00327788
-0.0035126
-0.00373132
-0.0039534
-0.00421517
-0.00452381
-0.00478842
-0.00507831
-0.00537333
-0.00571271
-0.00605929
-0.00639522
-0.00676032
-0.007067
-0.00748527
-0.00786829
-0.00835159
-0.0088316
-0.00938734
-0.0100907
-0.0109398
-0.0120216
0.0296179
0.01528
0.0062235
0.00394559
0.00358774
0.00327173
0.00280908
0.00224852
0.00170581
0.00125317
0.000844346
0.000428825
0.000110895
-6.12428e-05
-0.000236222
-0.000486
-0.000737123
-0.000944848
-0.00118383
-0.00145071
-0.00168109
-0.00189258
-0.0021374
-0.00234125
-0.00248688
-0.00261306
-0.00282339
-0.00305578
-0.00327736
-0.00351218
-0.00373095
-0.00395303
-0.00421481
-0.0045235
-0.00478814
-0.00507804
-0.00537307
-0.00571249
-0.00605912
-0.00639508
-0.00676018
-0.00706685