/*--------------------------------*- C++ -*----------------------------------*\
| =========                 |                                                 |
| \\      /  F ield         | OpenFOAM: The Open Source CFD Toolbox           |
|  \\    /   O peration     | Version:  v2012                                 |
|   \\  /    A nd           | Website:  www.openfoam.com                      |
|    \\/     M anipulation  |                                                 |
\*---------------------------------------------------------------------------*/
FoamFile
{
    version     2.0;
    format      ascii;
    class       volVectorField;
    location    "6.6";
    object      U;
}
// * * * * * * * * * * * * * * * * * * * * * * * * * * * * * * * * * * * * * //

dimensions      [0 1 -1 0 0 0 0];


internalField   nonuniform List<vector> 
7000
(
(0.886284 0.000493539 0)
(1.03672 -0.00762471 0)
(0.944488 -0.0201791 0)
(1.1926 0.00420732 0)
(0.980698 0.0115186 0)
(1.0677 0.0176943 0)
(1.01728 0.0106236 0)
(1.08394 -0.00257198 0)
(0.940858 -0.00938489 0)
(1.11513 -0.0167912 0)
(0.880769 -0.0296595 0)
(1.09878 -0.0268851 0)
(0.879287 -0.032214 0)
(1.10039 -0.0221014 0)
(0.896674 -0.0278591 0)
(1.10815 -0.020873 0)
(0.905552 -0.0226262 0)
(1.12315 -0.0188713 0)
(0.903112 -0.0150356 0)
(1.1348 -0.0167652 0)
(0.895933 0.000843888 0)
(1.02602 -0.00782396 0)
(0.950867 -0.021212 0)
(1.18739 0.00399088 0)
(0.988204 0.0120749 0)
(1.06098 0.0176051 0)
(1.03011 0.0104271 0)
(1.06429 -0.00176402 0)
(0.980603 -0.00987717 0)
(1.06985 -0.0158112 0)
(0.948114 -0.0294934 0)
(1.04152 -0.0267146 0)
(0.946013 -0.0323194 0)
(1.04025 -0.0224156 0)
(0.96218 -0.0280088 0)
(1.04069 -0.0212868 0)
(0.977558 -0.0228178 0)
(1.04342 -0.0193761 0)
(0.988709 -0.0147411 0)
(1.04021 -0.0176693 0)
(0.912746 0.00113523 0)
(1.01074 -0.00805375 0)
(0.960523 -0.0221447 0)
(1.17329 0.00386101 0)
(1.00524 0.0128812 0)
(1.05033 0.0173283 0)
(1.04412 0.0103988 0)
(1.04897 -0.0013502 0)
(1.00804 -0.00983767 0)
(1.04399 -0.0155092 0)
(0.982682 -0.0290111 0)
(1.00555 -0.0268089 0)
(0.980604 -0.0320905 0)
(0.999191 -0.0228724 0)
(0.992146 -0.0277616 0)
(0.997844 -0.0219196 0)
(1.00513 -0.0226249 0)
(1.00157 -0.0200209 0)
(1.01528 -0.014634 0)
(1.00455 -0.0172413 0)
(0.933417 0.00142095 0)
(0.994891 -0.00824291 0)
(0.971073 -0.0230292 0)
(1.14949 0.00371529 0)
(1.02677 0.0136377 0)
(1.04278 0.0170605 0)
(1.05303 0.0104318 0)
(1.04142 -0.00108915 0)
(1.02266 -0.00968808 0)
(1.03139 -0.0152931 0)
(0.999596 -0.0283095 0)
(0.989831 -0.0269427 0)
(0.992081 -0.0317462 0)
(0.983232 -0.023296 0)
(0.996587 -0.0274754 0)
(0.983273 -0.0225299 0)
(1.00505 -0.0224136 0)
(0.988807 -0.0207787 0)
(1.01412 -0.0143436 0)
(0.995352 -0.01719 0)
(0.95468 0.00170142 0)
(0.982171 -0.00839671 0)
(0.979461 -0.023841 0)
(1.11922 0.00343696 0)
(1.04553 0.0142436 0)
(1.04195 0.0169111 0)
(1.05747 0.0104771 0)
(1.03946 -0.000861753 0)
(1.02869 -0.00947557 0)
(1.02764 -0.0151037 0)
(1.00617 -0.0275618 0)
(0.987021 -0.0270162 0)
(0.99267 -0.0313752 0)
(0.981248 -0.0236279 0)
(0.992306 -0.0271762 0)
(0.981497 -0.0230585 0)
(0.997554 -0.0222135 0)
(0.986624 -0.0214704 0)
(1.00592 -0.0141701 0)
(0.994011 -0.0173254 0)
(0.973761 0.00195756 0)
(0.975173 -0.00850169 0)
(0.983706 -0.0245445 0)
(1.08785 0.00302941 0)
(1.05732 0.0146498 0)
(1.04645 0.0168654 0)
(1.05991 0.0105497 0)
(1.03964 -0.000629594 0)
(1.03085 -0.00923627 0)
(1.02699 -0.0149231 0)
(1.00883 -0.0267986 0)
(0.98871 -0.0270015 0)
(0.990743 -0.030992 0)
(0.983135 -0.0238907 0)
(0.987772 -0.0268469 0)
(0.982209 -0.0235175 0)
(0.990653 -0.0219863 0)
(0.985586 -0.0221049 0)
(0.998007 -0.0140933 0)
(0.992471 -0.0175202 0)
(0.988837 0.00216853 0)
(0.974426 -0.00854024 0)
(0.983789 -0.0251152 0)
(1.06012 0.00253908 0)
(1.06225 0.0148269 0)
(1.05281 0.0168691 0)
(1.06164 0.0106792 0)
(1.0394 -0.000381064 0)
(1.03177 -0.00897549 0)
(1.02616 -0.0147538 0)
(1.01057 -0.0260354 0)
(0.990797 -0.0269269 0)
(0.989436 -0.0305879 0)
(0.984744 -0.0241148 0)
(0.985044 -0.0264762 0)
(0.982087 -0.0239139 0)
(0.985903 -0.0217197 0)
(0.983286 -0.022665 0)
(0.991869 -0.0140651 0)
(0.98909 -0.0177039 0)
(0.999271 0.00232043 0)
(0.978534 -0.00850539 0)
(0.981328 -0.0255424 0)
(1.03836 0.00199049 0)
(1.06254 0.0147813 0)
(1.05798 0.016879 0)
(1.06243 0.010882 0)
(1.03761 -0.000119643 0)
(1.0322 -0.00869316 0)
(1.02428 -0.0146036 0)
(1.01204 -0.025281 0)
(0.992343 -0.0268158 0)
(0.989065 -0.0301497 0)
(0.985537 -0.0243194 0)
(0.983802 -0.0260591 0)
(0.981113 -0.0242454 0)
(0.982811 -0.021415 0)
(0.980198 -0.0231225 0)
(0.987111 -0.0140586 0)
(0.984698 -0.0178398 0)
(1.00545 0.00240965 0)
(0.985141 -0.0084047 0)
(0.978564 -0.0258284 0)
(1.02223 0.00139251 0)
(1.05994 0.0145536 0)
(1.05994 0.016876 0)
(1.06134 0.0111559 0)
(1.03419 0.000140847 0)
(1.03205 -0.00839472 0)
(1.02159 -0.0144773 0)
(1.01313 -0.024549 0)
(0.993487 -0.0266824 0)
(0.989238 -0.0296752 0)
(0.985939 -0.0245146 0)
(0.98342 -0.0255933 0)
(0.979936 -0.0245081 0)
(0.980721 -0.0210764 0)
(0.977173 -0.0234591 0)
(0.983174 -0.0140592 0)
(0.980278 -0.0179097 0)
(1.00839 0.00244231 0)
(0.992008 -0.00825863 0)
(0.97729 -0.0259814 0)
(1.00984 0.000767674 0)
(1.05469 0.0142027 0)
(1.05758 0.0168564 0)
(1.05767 0.0114824 0)
(1.02962 0.000379679 0)
(1.03117 -0.00809034 0)
(1.01859 -0.014379 0)
(1.01369 -0.0238497 0)
(0.994419 -0.026536 0)
(0.989642 -0.0291698 0)
(0.986276 -0.0247 0)
(0.983517 -0.0250852 0)
(0.978982 -0.0246971 0)
(0.979289 -0.0207116 0)
(0.974678 -0.0236616 0)
(0.979783 -0.0140602 0)
(0.97633 -0.0179041 0)
(1.00921 0.00243091 0)
(0.997678 -0.00809332 0)
(0.978189 -0.0260113 0)
(0.999178 0.000159422 0)
(1.04627 0.0137863 0)
(1.05074 0.0168172 0)
(1.05147 0.0118256 0)
(1.02464 0.000572194 0)
(1.02961 -0.00779067 0)
(1.01568 -0.0143116 0)
(1.01369 -0.0231875 0)
(0.995218 -0.0263865 0)
(0.99011 -0.0286406 0)
(0.98666 -0.024872 0)
(0.983913 -0.0245508 0)
(0.978422 -0.0248027 0)
(0.978417 -0.0203387 0)
(0.972862 -0.0237173 0)
(0.976897 -0.0140545 0)
(0.973021 -0.0178171 0)
(1.0089 0.00239004 0)
(1.00161 -0.0079326 0)
(0.98081 -0.0259269 0)
(0.989299 -0.000383373 0)
(1.03475 0.0133495 0)
(1.04036 0.0167458 0)
(1.04361 0.0121395 0)
(1.02002 0.000696818 0)
(1.02756 -0.00750223 0)
(1.01318 -0.0142751 0)
(1.01317 -0.0225626 0)
(0.995908 -0.0262415 0)
(0.990542 -0.0280961 0)
(0.987092 -0.025027 0)
(0.984507 -0.0240093 0)
(0.978291 -0.0248216 0)
(0.978074 -0.0199678 0)
(0.971744 -0.023621 0)
(0.974572 -0.0140333 0)
(0.970406 -0.0176397 0)
(1.00811 0.00233287 0)
(1.00397 -0.00779267 0)
(0.984071 -0.0257392 0)
(0.980449 -0.000818241 0)
(1.02146 0.0129219 0)
(1.02837 0.0166218 0)
(1.03538 0.012382 0)
(1.01639 0.000742585 0)
(1.02525 -0.00722548 0)
(1.01124 -0.0142657 0)
(1.01218 -0.0219724 0)
(0.996499 -0.026105 0)
(0.990865 -0.0275446 0)
(0.987538 -0.0251641 0)
(0.985208 -0.0234811 0)
(0.978553 -0.0247542 0)
(0.978201 -0.0196041 0)
(0.971294 -0.0233752 0)
(0.972861 -0.0139814 0)
(0.968519 -0.0173575 0)
(1.00723 0.00226852 0)
(1.00521 -0.00767756 0)
(0.986908 -0.0254674 0)
(0.973509 -0.00112947 0)
(1.00853 0.0125196 0)
(1.01697 0.0164281 0)
(1.02797 0.0125262 0)
(1.01407 0.000712241 0)
(1.02286 -0.00695555 0)
(1.00994 -0.0142766 0)
(1.01083 -0.0214113 0)
(0.996989 -0.0259788 0)
(0.991043 -0.0269952 0)
(0.987953 -0.025278 0)
(0.985927 -0.0229916 0)
(0.979118 -0.0245991 0)
(0.978688 -0.019261 0)
(0.971432 -0.0229892 0)
(0.971781 -0.0138828 0)
(0.967363 -0.0169615 0)
(1.00643 0.00220183 0)
(1.00586 -0.00758214 0)
(0.988711 -0.0251346 0)
(0.96917 -0.00133024 0)
(0.997874 0.0121492 0)
(1.00784 0.0161598 0)
(1.02212 0.0125671 0)
(1.01299 0.000620666 0)
(1.02051 -0.00668573 0)
(1.00925 -0.0142991 0)
(1.00923 -0.0208722 0)
(0.997366 -0.0258618 0)
(0.991079 -0.0264596 0)
(0.988302 -0.0253584 0)
(0.986582 -0.0225595 0)
(0.97987 -0.0243683 0)
(0.979394 -0.0189456 0)
(0.972036 -0.0224826 0)
(0.9713 -0.0137364 0)
(0.966894 -0.0164565 0)
(1.00577 0.00213481 0)
(1.00625 -0.00749874 0)
(0.989421 -0.0247609 0)
(0.96746 -0.00144629 0)
(0.990449 0.0118128 0)
(1.00164 0.0158257 0)
(1.01798 0.0125172 0)
(1.01283 0.000489064 0)
(1.01831 -0.00641096 0)
(1.00905 -0.0143252 0)
(1.00753 -0.0203471 0)
(0.997623 -0.0257513 0)
(0.991014 -0.02595 0)
(0.988563 -0.0253955 0)
(0.987115 -0.0221965 0)
(0.980689 -0.0240755 0)
(0.980176 -0.0186584 0)
(0.972955 -0.0218865 0)
(0.971342 -0.0135474 0)
(0.967013 -0.0158552 0)
(1.00524 0.00206751 0)
(1.00656 -0.00741912 0)
(0.989351 -0.024364 0)
(0.967769 -0.0015101 0)
(0.986145 0.0115094 0)
(0.998091 0.0154428 0)
(1.01533 0.0123987 0)
(1.01317 0.000337301 0)
(1.01631 -0.00612802 0)
(1.00916 -0.0143489 0)
(1.00589 -0.01983 0)
(0.997769 -0.0256406 0)
(0.990911 -0.0254785 0)
(0.988727 -0.02538 0)
(0.987498 -0.0219089 0)
(0.981478 -0.0237334 0)
(0.980923 -0.0183962 0)
(0.974036 -0.0212307 0)
(0.971803 -0.0133194 0)
(0.967583 -0.0151769 0)
(1.00484 0.0019995 0)
(1.00679 -0.00733802 0)
(0.988934 -0.0239565 0)
(0.969213 -0.00154947 0)
(0.984196 0.011236 0)
(0.996426 0.0150274 0)
(1.01373 0.0122354 0)
(1.01365 0.000180995 0)
(1.01458 -0.00583798 0)
(1.00945 -0.0143633 0)
(1.00445 -0.019321 0)
(0.997838 -0.0255181 0)
(0.990831 -0.0250556 0)
(0.988795 -0.0253042 0)
(0.987731 -0.0216954 0)
(0.982166 -0.023355 0)
(0.981569 -0.0181598 0)
(0.975149 -0.0205478 0)
(0.972566 -0.0130543 0)
(0.968454 -0.0144465 0)
(1.00456 0.00193053 0)
(1.00694 -0.0072536 0)
(0.988516 -0.0235451 0)
(0.971009 -0.00158375 0)
(0.983707 0.0109878 0)
(0.995837 0.0145923 0)
(1.01277 0.0120458 0)
(1.01403 2.98877e-05 0)
(1.01313 -0.00554572 0)
(1.00979 -0.0143636 0)
(1.0033 -0.0188244 0)
(0.997879 -0.0253673 0)
(0.990822 -0.0246885 0)
(0.98878 -0.0251639 0)
(0.987834 -0.0215508 0)
(0.982707 -0.0229526 0)
(0.982083 -0.0179385 0)
(0.97619 -0.0198746 0)
(0.973508 -0.0127725 0)
(0.969487 -0.0136926 0)
(1.00436 0.00186079 0)
(1.00699 -0.00716654 0)
(0.988286 -0.0231321 0)
(0.972662 -0.00162324 0)
(0.983978 0.0107597 0)
(0.995746 0.014145 0)
(1.01214 0.0118409 0)
(1.0142 -0.000111489 0)
(1.01196 -0.00525613 0)
(1.01011 -0.014347 0)
(1.00249 -0.0183494 0)
(0.997942 -0.0251699 0)
(0.990914 -0.0243795 0)
(0.988702 -0.0249562 0)
(0.987842 -0.0214632 0)
(0.983073 -0.0225448 0)
(0.982454 -0.0177156 0)
(0.977078 -0.0192196 0)
(0.974512 -0.0124965 0)
(0.970565 -0.0129517 0)
(1.00423 0.00179067 0)
(1.00693 -0.00707865 0)
(0.988298 -0.0227163 0)
(0.973956 -0.0016723 0)
(0.98458 0.0105473 0)
(0.995836 0.0136892 0)
(1.01164 0.0116273 0)
(1.01416 -0.000242616 0)
(1.01102 -0.00497536 0)
(1.01038 -0.0143066 0)
(1.00202 -0.0179106 0)
(0.99806 -0.0249102 0)
(0.991122 -0.0241263 0)
(0.988596 -0.0246794 0)
(0.987786 -0.0214073 0)
(0.983261 -0.0221481 0)
(0.982682 -0.0175016 0)
(0.977757 -0.0185826 0)
(0.975466 -0.012216 0)
(0.971585 -0.0122466 0)
(1.00415 0.00172062 0)
(1.00678 -0.00699204 0)
(0.988528 -0.0222946 0)
(0.974862 -0.00173202 0)
(0.985284 0.0103459 0)
(0.995971 0.0132286 0)
(1.01112 0.0114092 0)
(1.01391 -0.000365021 0)
(1.01027 -0.00471321 0)
(1.0106 -0.0142359 0)
(1.00185 -0.0175166 0)
(0.998234 -0.0245845 0)
(0.991447 -0.0239139 0)
(0.988496 -0.0243483 0)
(0.9877 -0.0213565 0)
(0.983284 -0.0217603 0)
(0.98277 -0.017299 0)
(0.978197 -0.0179911 0)
(0.976277 -0.011932 0)
(0.972461 -0.0115816 0)
(1.00408 0.00165123 0)
(1.00658 -0.00690891 0)
(0.988921 -0.0218638 0)
(0.975445 -0.00180146 0)
(0.985971 0.0101505 0)
(0.996106 0.0127652 0)
(1.0105 0.0111897 0)
(1.0135 -0.00047645 0)
(1.00967 -0.00448104 0)
(1.01075 -0.0141324 0)
(1.00193 -0.0171708 0)
(0.998441 -0.024196 0)
(0.991877 -0.0237242 0)
(0.98843 -0.0239737 0)
(0.98761 -0.0212961 0)
(0.983177 -0.0213815 0)
(0.982723 -0.0170903 0)
(0.978397 -0.0174535 0)
(0.976883 -0.0116632 0)
(0.97313 -0.0109721 0)
(1.00401 0.00158303 0)
(1.00634 -0.00683093 0)
(0.989412 -0.0214209 0)
(0.975809 -0.00187904 0)
(0.986573 0.00995782 0)
(0.996234 0.0123012 0)
(1.00973 0.0109677 0)
(1.01297 -0.000576444 0)
(1.00918 -0.00428291 0)
(1.01083 -0.0139929 0)
(1.0022 -0.0168799 0)
(0.998646 -0.0237426 0)
(0.992388 -0.023552 0)
(0.988415 -0.023548 0)
(0.987533 -0.0212135 0)
(0.982989 -0.021017 0)
(0.982561 -0.0168556 0)
(0.978385 -0.016965 0)
(0.97725 -0.0114187 0)
(0.973564 -0.01042 0)
(1.00393 0.00151658 0)
(1.00606 -0.00675969 0)
(0.98994 -0.0209635 0)
(0.976069 -0.00196523 0)
(0.987055 0.00976722 0)
(0.99636 0.0118412 0)
(1.00881 0.0107415 0)
(1.01237 -0.000673382 0)
(1.0088 -0.00413021 0)
(1.01082 -0.0138046 0)
(1.00261 -0.0166497 0)
(0.998815 -0.0232199 0)
(0.992946 -0.0233971 0)
(0.988452 -0.0230793 0)
(0.987477 -0.0210729 0)
(0.982774 -0.0206837 0)
(0.982306 -0.0165727 0)
(0.978217 -0.016462 0)
(0.977385 -0.0112209 0)
(0.973779 -0.00994362 0)
(1.00384 0.00145257 0)
(1.00578 -0.00669598 0)
(0.990448 -0.0204927 0)
(0.976325 -0.00205466 0)
(0.987406 0.00957236 0)
(0.996491 0.0113872 0)
(1.00779 0.010508 0)
(1.01172 -0.000750733 0)
(1.00851 -0.0040526 0)
(1.01073 -0.0135641 0)
(1.00309 -0.0164735 0)
(0.998925 -0.0226417 0)
(0.99351 -0.0232414 0)
(0.988536 -0.0226075 0)
(0.987433 -0.0208353 0)
(0.982579 -0.0203465 0)
(0.982 -0.0163408 0)
(0.977955 -0.0158943 0)
(0.977311 -0.0109807 0)
(0.973823 -0.00954146 0)
(1.00373 0.00139106 0)
(1.00548 -0.00663848 0)
(0.990888 -0.0200114 0)
(0.97665 -0.00214163 0)
(0.987634 0.00937419 0)
(0.996629 0.0109439 0)
(1.00674 0.0102568 0)
(1.01106 -0.00080209 0)
(1.00831 -0.00401964 0)
(1.01056 -0.0133116 0)
(1.00358 -0.0163251 0)
(0.998972 -0.0220449 0)
(0.994035 -0.0230435 0)
(0.988659 -0.0221483 0)
(0.987396 -0.0205602 0)
(0.982425 -0.0199112 0)
(0.981677 -0.0161264 0)
(0.977695 -0.0154515 0)
(0.977079 -0.0106927 0)
(0.973752 -0.00912621 0)
(1.00362 0.00133317 0)
(1.00519 -0.00659057 0)
(0.991227 -0.0195114 0)
(0.977082 -0.00224107 0)
(0.987763 0.00918454 0)
(0.996768 0.0105068 0)
(1.00573 0.0100154 0)
(1.01041 -0.000889399 0)
(1.0082 -0.00399484 0)
(1.01032 -0.0130453 0)
(1.00405 -0.016197 0)
(0.998963 -0.0214373 0)
(0.994488 -0.0227885 0)
(0.988808 -0.0216976 0)
(0.987364 -0.020196 0)
(0.982349 -0.0195767 0)
(0.981342 -0.0156754 0)
(0.977496 -0.0150776 0)
(0.9768 -0.0105283 0)
(0.973656 -0.00876 0)
(1.00352 0.00127876 0)
(1.00492 -0.00654876 0)
(0.991449 -0.0190036 0)
(0.97762 -0.00233672 0)
(0.987824 0.00898251 0)
(0.996901 0.0100727 0)
(1.00485 0.00975572 0)
(1.00978 -0.000911753 0)
(1.00816 -0.00409833 0)
(1.01003 -0.0126926 0)
(1.00444 -0.016112 0)
(0.998915 -0.0207919 0)
(0.994843 -0.0225359 0)
(0.988989 -0.0212204 0)
(0.987314 -0.0197871 0)
(0.982376 -0.0191713 0)
(0.981058 -0.0153388 0)
(0.97734 -0.0144987 0)
(0.976497 -0.0102805 0)
(0.973591 -0.00844967 0)
(1.00343 0.0012256 0)
(1.00468 -0.00650655 0)
(0.991551 -0.0184972 0)
(0.978242 -0.00241492 0)
(0.98785 0.00876845 0)
(0.997022 0.00967623 0)
(1.00415 0.00941889 0)
(1.00919 -0.000869155 0)
(1.00816 -0.00424944 0)
(1.00972 -0.0123335 0)
(1.00473 -0.016072 0)
(0.998841 -0.020089 0)
(0.995101 -0.0222885 0)
(0.989191 -0.0207019 0)
(0.987274 -0.019491 0)
(0.982472 -0.0185172 0)
(0.980841 -0.0151618 0)
(0.977339 -0.0139205 0)
(0.976231 -0.00999319 0)
(0.973604 -0.00813456 0)
(1.00336 0.00118157 0)
(1.00448 -0.00648118 0)
(0.991544 -0.0179578 0)
(0.978912 -0.00253159 0)
(0.987876 0.00858516 0)
(0.99713 0.00924785 0)
(1.00364 0.00915806 0)
(1.00866 -0.000961125 0)
(1.00816 -0.00431699 0)
(1.00941 -0.0120022 0)
(1.00491 -0.0159966 0)
(0.998758 -0.019479 0)
(0.99526 -0.0218412 0)
(0.989413 -0.0203441 0)
(0.987242 -0.0188392 0)
(0.982666 -0.0183568 0)
(0.980696 -0.0146105 0)
(0.977481 -0.0133381 0)
(0.97609 -0.00981686 0)
(0.973749 -0.0078851 0)
(1.00331 0.00112804 0)
(1.00431 -0.00642925 0)
(0.991455 -0.0174508 0)
(0.979591 -0.00259822 0)
(0.987929 0.00833966 0)
(0.997229 0.00889682 0)
(1.0033 0.00874856 0)
(1.00818 -0.000848846 0)
(1.00815 -0.00459005 0)
(1.0091 -0.0116103 0)
(1.00496 -0.0158391 0)
(0.998684 -0.0189844 0)
(0.995321 -0.0213178 0)
(0.989688 -0.0199596 0)
(0.987183 -0.0183472 0)
(0.982918 -0.0177182 0)
(0.980709 -0.0144215 0)
(0.977644 -0.0129056 0)
(0.975985 -0.00924868 0)
(0.973984 -0.00743675 0)
(1.00328 0.00108512 0)
(1.00418 -0.00640479 0)
(0.991319 -0.0169101 0)
(0.980241 -0.00268674 0)
(0.988035 0.00813793 0)
(0.997314 0.0084925 0)
(1.0031 0.00841231 0)
(1.00776 -0.000888584 0)
(1.00808 -0.00469212 0)
(1.00881 -0.0113685 0)
(1.0049 -0.0155768 0)
(0.9986 -0.0185797 0)
(0.995339 -0.0206863 0)
(0.989947 -0.0196693 0)
(0.987222 -0.017748 0)
(0.983212 -0.0172527 0)
(0.980732 -0.0139265 0)
(0.978109 -0.0127436 0)
(0.97615 -0.00888455 0)
(0.974326 -0.00701047 0)
(1.00326 0.00105355 0)
(1.00408 -0.00638966 0)
(0.991171 -0.0163427 0)
(0.980845 -0.00282393 0)
(0.988197 0.00795059 0)
(0.997405 0.00807679 0)
(1.00299 0.00807126 0)
(1.00739 -0.000912266 0)
(1.00795 -0.00481394 0)
(1.00851 -0.0110171 0)
(1.00477 -0.0154876 0)
(0.99852 -0.0179101 0)
(0.995299 -0.02022 0)
(0.990258 -0.0192914 0)
(0.987237 -0.017109 0)
(0.983575 -0.0170121 0)
(0.980896 -0.0131566 0)
(0.978455 -0.0120023 0)
(0.976395 -0.00864101 0)
(0.974755 -0.00674614 0)
(1.00325 0.000988884 0)
(1.00398 -0.00629697 0)
(0.991047 -0.0158653 0)
(0.981397 -0.0028299 0)
(0.988414 0.00760075 0)
(0.997488 0.00786908 0)
(1.00293 0.00742386 0)
(1.00706 -0.000554018 0)
(1.00777 -0.00532314 0)
(1.0082 -0.0104308 0)
(1.00458 -0.0154918 0)
(0.998414 -0.0172237 0)
(0.995242 -0.019891 0)
(0.990556 -0.0184966 0)
(0.987332 -0.01705 0)
(0.983945 -0.0158198 0)
(0.981163 -0.0133567 0)
(0.978923 -0.0110749 0)
(0.976693 -0.0081816 0)
(0.975263 -0.0066128 0)
(1.00324 0.000958983 0)
(1.00389 -0.00629948 0)
(0.990965 -0.0152701 0)
(0.981908 -0.00293617 0)
(0.988661 0.00739786 0)
(0.997587 0.00742708 0)
(1.00285 0.00716124 0)
(1.00675 -0.000778025 0)
(1.00753 -0.00519257 0)
(1.00791 -0.0104425 0)
(1.00433 -0.0149385 0)
(0.998313 -0.0170627 0)
(0.995209 -0.0190846 0)
(0.990831 -0.0182386 0)
(0.987495 -0.016184 0)
(0.984334 -0.0155564 0)
(0.981527 -0.0125216 0)
(0.9796 -0.0111099 0)
(0.977112 -0.00793442 0)
(0.975841 -0.00614963 0)
(1.00322 0.000931294 0)
(1.00379 -0.00627123 0)
(0.990943 -0.0147067 0)
(0.982386 -0.00306628 0)
(0.988933 0.00717834 0)
(0.997686 0.00705815 0)
(1.00275 0.00670891 0)
(1.00647 -0.000725947 0)
(1.00724 -0.00524485 0)
(1.0076 -0.0103101 0)
(1.00408 -0.0145994 0)
(0.998188 -0.0165151 0)
(0.995145 -0.0184644 0)
(0.991157 -0.0179807 0)
(0.987655 -0.0154028 0)
(0.984761 -0.0151931 0)
(0.981861 -0.0115798 0)
(0.98002 -0.0107506 0)
(0.977696 -0.00759626 0)
(0.976435 -0.00568487 0)
(1.00319 0.000862301 0)
(1.00367 -0.0061494 0)
(0.990989 -0.0142407 0)
(0.982841 -0.00301716 0)
(0.989224 0.00667053 0)
(0.99777 0.00697007 0)
(1.00263 0.00595396 0)
(1.00617 -0.000270165 0)
(1.00694 -0.0058648 0)
(1.00726 -0.00956478 0)
(1.00383 -0.0147791 0)
(0.99805 -0.0156966 0)
(0.995104 -0.0181284 0)
(0.991445 -0.0170587 0)
(0.987924 -0.0153269 0)
(0.985171 -0.0138742 0)
(0.98232 -0.0120616 0)
(0.980596 -0.00964065 0)
(0.978261 -0.00724947 0)
(0.977077 -0.00580957 0)
(1.00315 0.000835849 0)
(1.00354 -0.00615381 0)
(0.991084 -0.0136269 0)
(0.983297 -0.00312818 0)
(0.989511 0.00645601 0)
(0.997853 0.00653993 0)
(1.00246 0.00568236 0)
(1.00588 -0.000616708 0)
(1.00662 -0.0054555 0)
(1.00694 -0.00987363 0)
(1.00356 -0.0140248 0)
(0.997925 -0.0155446 0)
(0.995084 -0.0172456 0)
(0.991715 -0.0168476 0)
(0.988246 -0.0144763 0)
(0.985547 -0.0137381 0)
(0.982843 -0.0111391 0)
(0.981351 -0.00978307 0)
(0.978811 -0.00693403 0)
(0.977741 -0.00516241 0)
(1.00309 0.000817728 0)
(1.0034 -0.00613955 0)
(0.991229 -0.013054 0)
(0.983764 -0.00320312 0)
(0.989792 0.00615651 0)
(0.997927 0.00620749 0)
(1.00226 0.00523934 0)
(1.00559 -0.000628675 0)
(1.00626 -0.00536133 0)
(1.00661 -0.00988338 0)
(1.00333 -0.013563 0)
(0.997789 -0.0152265 0)
(0.995048 -0.0164705 0)
(0.992034 -0.0164784 0)
(0.988534 -0.0137199 0)
(0.986003 -0.0134927 0)
(0.983264 -0.0100911 0)
(0.9818 -0.00958577 0)
(0.979632 -0.00660671 0)
(0.978395 -0.00456192 0)
(1.00303 0.000739184 0)
(1.00324 -0.00597783 0)
(0.991419 -0.0126441 0)
(0.984226 -0.00304753 0)
(0.99009 0.00552047 0)
(0.997967 0.00620891 0)
(1.00208 0.0044242 0)
(1.00526 -0.000146989 0)
(1.00593 -0.00599376 0)
(1.00626 -0.00903167 0)
(1.0031 -0.0138865 0)
(0.997668 -0.0142613 0)
(0.995055 -0.0162606 0)
(0.992283 -0.0154682 0)
(0.988872 -0.0137614 0)
(0.986397 -0.0120806 0)
(0.98377 -0.0106196 0)
(0.98236 -0.00818981 0)
(0.980295 -0.00642156 0)
(0.979074 -0.00496976 0)
(1.00295 0.000725254 0)
(1.00309 -0.00600389 0)
(0.991618 -0.0120309 0)
(0.984717 -0.00311933 0)
(0.990376 0.00528524 0)
(0.99801 0.00575567 0)
(1.00186 0.00419691 0)
(1.00493 -0.000601731 0)
(1.0056 -0.00547565 0)
(1.00592 -0.00931123 0)
(1.00288 -0.0131892 0)
(0.997563 -0.0141359 0)
(0.995039 -0.0153891 0)
(0.992564 -0.0151775 0)
(0.989335 -0.0128806 0)
(0.98683 -0.0119331 0)
(0.984413 -0.00975125 0)
(0.983133 -0.00842926 0)
(0.980845 -0.00607198 0)
(0.979778 -0.00420049 0)
(1.00287 0.000718848 0)
(1.00293 -0.00598581 0)
(0.991832 -0.0114783 0)
(0.985224 -0.00314041 0)
(0.990669 0.00494216 0)
(0.998041 0.00541111 0)
(1.00164 0.00383357 0)
(1.00462 -0.000713934 0)
(1.00524 -0.00532149 0)
(1.00559 -0.00928917 0)
(1.00265 -0.0126865 0)
(0.997483 -0.0138129 0)
(0.995059 -0.0146427 0)
(0.99287 -0.0148129 0)
(0.989632 -0.0121306 0)
(0.987246 -0.0116532 0)
(0.984778 -0.00874278 0)
(0.983546 -0.00823893 0)
(0.981785 -0.00556158 0)
(0.98044 -0.00341565 0)
(1.00279 0.000624097 0)
(1.00276 -0.00577195 0)
(0.992062 -0.0111591 0)
(0.985726 -0.00287242 0)
(0.990988 0.00422412 0)
(0.998053 0.00547406 0)
(1.00145 0.0030108 0)
(1.00426 -0.000190774 0)
(1.0049 -0.00598398 0)
(1.00525 -0.00833142 0)
(1.00248 -0.013024 0)
(0.997384 -0.0126859 0)
(0.995038 -0.0145113 0)
(0.993131 -0.0138063 0)
(0.990076 -0.0124206 0)
(0.987691 -0.0102092 0)
(0.985349 -0.00924817 0)
(0.984151 -0.0067319 0)
(0.982463 -0.0055697 0)
(0.981113 -0.00416997 0)
(1.0027 0.000655116 0)
(1.00262 -0.00586569 0)
(0.992273 -0.0105176 0)
(0.986249 -0.00296675 0)
(0.991304 0.00405428 0)
(0.998084 0.00488431 0)
(1.00125 0.00296342 0)
(1.00392 -0.000851559 0)
(1.00458 -0.00529544 0)
(1.00491 -0.00865945 0)
(1.00227 -0.012199 0)
(0.997362 -0.0126222 0)
(0.995068 -0.0134791 0)
(0.993391 -0.0136722 0)
(0.990591 -0.0117854 0)
(0.988168 -0.0104749 0)
(0.985971 -0.00833107 0)
(0.984861 -0.00673002 0)
(0.982928 -0.00513266 0)
(0.981818 -0.00334566 0)
(1.0026 0.000613661 0)
(1.00247 -0.00576089 0)
(0.992487 -0.0100869 0)
(0.986792 -0.00285383 0)
(0.99161 0.00368636 0)
(0.998125 0.00449954 0)
(1.00105 0.00269651 0)
(1.00362 -0.00107443 0)
(1.00422 -0.00496044 0)
(1.00461 -0.00879399 0)
(1.0021 -0.0114222 0)
(0.997329 -0.0124361 0)
(0.995023 -0.012524 0)
(0.99364 -0.013457 0)
(0.990926 -0.0114774 0)
(0.988723 -0.0103007 0)
(0.986552 -0.00780865 0)
(0.985313 -0.00671948 0)
(0.983844 -0.00398346 0)
(0.98248 -0.00226458 0)
(1.00252 0.000548589 0)
(1.00231 -0.00558382 0)
(0.992721 -0.00976045 0)
(0.9873 -0.00262321 0)
(0.991954 0.00308284 0)
(0.998147 0.00440999 0)
(1.0009 0.00210127 0)
(1.0033 -0.000777442 0)
(1.00389 -0.00528268 0)
(1.00429 -0.00806808 0)
(1.00193 -0.0114853 0)
(0.997332 -0.0115883 0)
(0.995044 -0.0121553 0)
(0.993781 -0.0126327 0)
(0.991441 -0.0114097 0)
(0.989214 -0.00937969 0)
(0.987074 -0.00798443 0)
(0.986216 -0.00568744 0)
(0.984603 -0.00402006 0)
(0.982928 -0.00290651 0)
(1.00242 0.000602526 0)
(1.00218 -0.0056658 0)
(0.99295 -0.00918795 0)
(0.987811 -0.00267639 0)
(0.992281 0.00290903 0)
(0.998185 0.00385222 0)
(1.00074 0.00194467 0)
(1.00298 -0.00104824 0)
(1.00358 -0.00499092 0)
(1.00397 -0.00794307 0)
(1.00179 -0.0110373 0)
(0.99736 -0.0110605 0)
(0.995008 -0.0116228 0)
(0.993979 -0.0121038 0)
(0.991869 -0.0107204 0)
(0.989775 -0.00911559 0)
(0.987849 -0.00707202 0)
(0.986788 -0.0053813 0)
(0.98506 -0.00447099 0)
(0.983571 -0.00305676 0)
(1.00233 0.000505448 0)
(1.00205 -0.00546008 0)
(0.993178 -0.0088823 0)
(0.98832 -0.00247732 0)
(0.992608 0.00250155 0)
(0.998224 0.00358334 0)
(1.00059 0.00154668 0)
(1.00269 -0.00103323 0)
(1.00325 -0.00488427 0)
(1.00367 -0.00765785 0)
(1.00165 -0.0105872 0)
(0.997382 -0.0107063 0)
(0.995017 -0.0110396 0)
(0.99417 -0.0112647 0)
(0.992334 -0.0103004 0)
(0.990389 -0.00849319 0)
(0.988382 -0.00677901 0)
(0.98728 -0.00560924 0)
(0.985712 -0.00425343 0)
(0.984247 -0.00293362 0)
(1.00223 0.000529694 0)
(1.00192 -0.00542323 0)
(0.993415 -0.00844357 0)
(0.988821 -0.00240652 0)
(0.992928 0.00223694 0)
(0.998262 0.00318497 0)
(1.00046 0.00127735 0)
(1.00242 -0.00116781 0)
(1.00295 -0.00472504 0)
(1.00337 -0.00732831 0)
(1.00151 -0.0102501 0)
(0.997443 -0.0103183 0)
(0.995071 -0.0103241 0)
(0.994339 -0.0106405 0)
(0.992747 -0.00977764 0)
(0.990943 -0.00827111 0)
(0.988936 -0.00657606 0)
(0.987888 -0.00526769 0)
(0.986326 -0.00391431 0)
(0.984841 -0.0029689 0)
(1.00214 0.00049199 0)
(1.00181 -0.00531139 0)
(0.993653 -0.00807189 0)
(0.989315 -0.00236332 0)
(0.993244 0.0019948 0)
(0.998301 0.0028322 0)
(1.00034 0.000993368 0)
(1.00216 -0.00125495 0)
(1.00265 -0.00451172 0)
(1.00306 -0.00708895 0)
(1.00137 -0.00985317 0)
(0.997537 -0.00987172 0)
(0.995117 -0.00974627 0)
(0.994496 -0.0100755 0)
(0.993132 -0.009321 0)
(0.991511 -0.00792617 0)
(0.989548 -0.00616959 0)
(0.98846 -0.00500323 0)
(0.986856 -0.00375087 0)
(0.98539 -0.00300633 0)
(1.00204 0.000479431 0)
(1.0017 -0.00522483 0)
(0.993897 -0.00769551 0)
(0.989806 -0.00229352 0)
(0.99356 0.00178248 0)
(0.998339 0.00248472 0)
(1.00022 0.000742739 0)
(1.00192 -0.00137666 0)
(1.00236 -0.00436861 0)
(1.00277 -0.00681844 0)
(1.00124 -0.00939322 0)
(0.997635 -0.00949903 0)
(0.995195 -0.00919848 0)
(0.994643 -0.00948976 0)
(0.993513 -0.00871958 0)
(0.992091 -0.0076316 0)
(0.990109 -0.00587938 0)
(0.989017 -0.00480714 0)
(0.98738 -0.0035986 0)
(0.985921 -0.00295836 0)
(1.00195 0.000457696 0)
(1.0016 -0.00511047 0)
(0.994146 -0.00732292 0)
(0.990287 -0.00226396 0)
(0.993868 0.00155268 0)
(0.998381 0.00217721 0)
(1.00011 0.000522732 0)
(1.00169 -0.0014951 0)
(1.00209 -0.00421762 0)
(1.00248 -0.00652662 0)
(1.00111 -0.00897285 0)
(0.997756 -0.00917235 0)
(0.995289 -0.00865734 0)
(0.994822 -0.00891448 0)
(0.993839 -0.00821659 0)
(0.992604 -0.00736274 0)
(0.990727 -0.00562626 0)
(0.989574 -0.00460686 0)
(0.987877 -0.0034133 0)
(0.986424 -0.00282497 0)
(1.00186 0.00044208 0)
(1.0015 -0.00500356 0)
(0.994396 -0.00698618 0)
(0.990763 -0.00222636 0)
(0.99418 0.00135541 0)
(0.998425 0.00190605 0)
(1.00001 0.000305405 0)
(1.00148 -0.00159627 0)
(1.00183 -0.00408186 0)
(1.0022 -0.00622987 0)
(1.00098 -0.00855749 0)
(0.997888 -0.00883438 0)
(0.995426 -0.00814418 0)
(0.994966 -0.00840485 0)
(0.994156 -0.00773866 0)
(0.993147 -0.00700643 0)
(0.991301 -0.00537307 0)
(0.990141 -0.00436948 0)
(0.988405 -0.00322293 0)
(0.986906 -0.00266168 0)
(1.00176 0.000425429 0)
(1.00141 -0.00489689 0)
(0.994654 -0.00664693 0)
(0.991233 -0.0021734 0)
(0.994482 0.00116917 0)
(0.998469 0.00162544 0)
(0.999912 9.97092e-05 0)
(1.00129 -0.00170864 0)
(1.0016 -0.00396194 0)
(1.00194 -0.00592868 0)
(1.00084 -0.0080931 0)
(0.998043 -0.0084682 0)
(0.995568 -0.00766526 0)
(0.995147 -0.00789777 0)
(0.994458 -0.00723572 0)
(0.993621 -0.00665935 0)
(0.99192 -0.005146 0)
(0.990708 -0.00417684 0)
(0.9889 -0.003102 0)
(0.987363 -0.00249531 0)
(1.00167 0.000401599 0)
(1.00132 -0.00477263 0)
(0.994912 -0.00633553 0)
(0.991697 -0.00214285 0)
(0.994784 0.000915395 0)
(0.998516 0.00141188 0)
(0.999821 -2.72833e-05 0)
(1.00111 -0.00175992 0)
(1.00138 -0.00387504 0)
(1.00169 -0.00569064 0)
(1.00071 -0.00766281 0)
(0.998188 -0.00814191 0)
(0.995748 -0.00723932 0)
(0.995304 -0.00737234 0)
(0.994744 -0.0067857 0)
(0.994105 -0.00627162 0)
(0.992474 -0.00495375 0)
(0.991264 -0.00398812 0)
(0.989451 -0.00295224 0)
(0.987833 -0.00229588 0)
(1.00158 0.000401443 0)
(1.00124 -0.00465157 0)
(0.995175 -0.00605187 0)
(0.992149 -0.0020497 0)
(0.995082 0.000662805 0)
(0.998578 0.00117955 0)
(0.999734 -0.000158327 0)
(1.00093 -0.00179828 0)
(1.00117 -0.00376221 0)
(1.00147 -0.00543102 0)
(1.00057 -0.00721815 0)
(0.998351 -0.00781624 0)
(0.995946 -0.00684949 0)
(0.995496 -0.00687628 0)
(0.995019 -0.00634719 0)
(0.994511 -0.0058884 0)
(0.993057 -0.00475389 0)
(0.991849 -0.00375373 0)
(0.989988 -0.00280516 0)
(0.988277 -0.00211577 0)
(1.0015 0.000351198 0)
(1.00116 -0.00444604 0)
(0.995442 -0.00581651 0)
(0.99259 -0.00200627 0)
(0.995372 0.000448911 0)
(0.998647 0.00104089 0)
(0.999661 -0.000306533 0)
(1.00077 -0.00180565 0)
(1.00098 -0.00362517 0)
(1.00125 -0.00518376 0)
(1.00042 -0.00677865 0)
(0.998488 -0.00747012 0)
(0.996178 -0.00652613 0)
(0.995668 -0.00639835 0)
(0.995281 -0.00597482 0)
(0.99493 -0.00549603 0)
(0.993588 -0.00454646 0)
(0.99241 -0.00356235 0)
(0.990548 -0.00271635 0)
(0.988741 -0.00196712 0)
(1.00141 0.000360588 0)
(1.00108 -0.00437507 0)
(0.995699 -0.00551881 0)
(0.993031 -0.00199422 0)
(0.995674 0.000294399 0)
(0.998712 0.000669993 0)
(0.999575 -0.000364296 0)
(1.00062 -0.00175869 0)
(1.0008 -0.00347496 0)
(1.00107 -0.00494201 0)
(1.00031 -0.00634627 0)
(0.998649 -0.00708681 0)
(0.996443 -0.00621343 0)
(0.995896 -0.00594708 0)
(0.995558 -0.00555492 0)
(0.995301 -0.00511883 0)
(0.994132 -0.00433218 0)
(0.992976 -0.00336613 0)
(0.991102 -0.00260119 0)
(0.989207 -0.00182572 0)
(1.00133 0.000337613 0)
(1.00101 -0.00421462 0)
(0.995971 -0.00525618 0)
(0.993459 -0.00198075 0)
(0.995935 6.20433e-05 0)
(0.998798 0.000394151 0)
(0.999557 -0.000393884 0)
(1.00049 -0.00169435 0)
(1.00063 -0.0033026 0)
(1.00089 -0.00468584 0)
(1.00017 -0.00592147 0)
(0.998747 -0.00666397 0)
(0.996696 -0.00593435 0)
(0.996092 -0.0054774 0)
(0.995795 -0.00520129 0)
(0.995651 -0.00471152 0)
(0.99461 -0.0041058 0)
(0.993513 -0.00318695 0)
(0.991666 -0.0024846 0)
(0.989684 -0.0017176 0)
(1.00125 0.000293286 0)
(1.00095 -0.00398371 0)
(0.996225 -0.0050678 0)
(0.993872 -0.00192305 0)
(0.996221 -0.000131261 0)
(0.998908 0.000324187 0)
(0.999524 -0.000478734 0)
(1.00036 -0.00167367 0)
(1.00046 -0.0031491 0)
(1.00073 -0.00445977 0)
(1.00005 -0.00554407 0)
(0.998849 -0.00625433 0)
(0.99697 -0.00566844 0)
(0.996328 -0.00511316 0)
(0.996049 -0.00483353 0)
(0.995968 -0.00436365 0)
(0.995072 -0.00387334 0)
(0.994048 -0.00300873 0)
(0.992211 -0.00238304 0)
(0.990157 -0.0016454 0)
(1.00118 0.000305235 0)
(1.00088 -0.00387272 0)
(0.996485 -0.0048315 0)
(0.994284 -0.00183471 0)