/*--------------------------------*- C++ -*----------------------------------*\
| =========                 |                                                 |
| \\      /  F ield         | OpenFOAM: The Open Source CFD Toolbox           |
|  \\    /   O peration     | Version:  v2012                                 |
|   \\  /    A nd           | Website:  www.openfoam.com                      |
|    \\/     M anipulation  |                                                 |
\*---------------------------------------------------------------------------*/
FoamFile
{
    version     2.0;
    format      ascii;
    class       volScalarField;
    location    "3.4";
    object      p;
}
// * * * * * * * * * * * * * * * * * * * * * * * * * * * * * * * * * * * * * //

dimensions      [0 2 -2 0 0 0 0];


internalField   nonuniform List<scalar> 
7000
(
2.57785e-10
0.00170849
0.00131712
0.000618264
0.0021129
0.00142656
0.00162594
0.00175104
-0.000611881
0.00255703
-0.00274115
-0.0003135
-0.00329456
-0.00195236
-0.00389189
-0.002415
-0.00314383
-0.00169556
-0.00134052
0.00027193
-1.40551e-06
0.00171096
0.00131747
0.000621124
0.00211303
0.00141511
0.00163327
0.00172667
-0.000601252
0.00253151
-0.00272082
-0.000316017
-0.00328018
-0.00194951
-0.00387754
-0.00241003
-0.00311751
-0.00169533
-0.00132662
0.000203375
-3.03696e-06
0.00171406
0.00131793
0.000625279
0.00210889
0.00140103
0.00163498
0.00170193
-0.000595732
0.00249659
-0.00268898
-0.00032998
-0.00324987
-0.00195905
-0.00384118
-0.00242474
-0.0030665
-0.00171108
-0.00130805
8.87418e-05
-4.5128e-06
0.00171693
0.00131841
0.000628018
0.00210521
0.00138635
0.00163234
0.00167723
-0.000590187
0.0024526
-0.00264466
-0.000356346
-0.00320532
-0.00198384
-0.0037889
-0.00245794
-0.00300777
-0.00174242
-0.00129635
-4.52304e-05
-5.88381e-06
0.00171966
0.00131896
0.000629617
0.00210428
0.0013708
0.00162786
0.00165439
-0.000583227
0.00240268
-0.00258826
-0.000393878
-0.00315035
-0.00202116
-0.00372921
-0.00252044
-0.0029486
-0.00178099
-0.00129255
-0.000176144
-7.17898e-06
0.00172234
0.00131975
0.000630979
0.00210544
0.00135407
0.00162316
0.0016333
-0.000574478
0.00234848
-0.00252294
-0.000440179
-0.00308881
-0.00206654
-0.00366673
-0.00256753
-0.00289307
-0.00182053
-0.00129722
-0.000296438
-8.43638e-06
0.00172498
0.00132103
0.000632636
0.00210791
0.00133602
0.00161927
0.00161342
-0.000563908
0.00229061
-0.0024515
-0.000492571
-0.00302292
-0.0021161
-0.00360354
-0.00261583
-0.0028422
-0.00185934
-0.00131182
-0.000408944
-9.71102e-06
0.00172759
0.00132309
0.000635116
0.00211142
0.00131647
0.0016166
0.00159418
-0.000551463
0.00222906
-0.00237531
-0.000549356
-0.00295351
-0.00216768
-0.00354042
-0.00266368
-0.00279583
-0.0018977
-0.00133696
-0.00051849
-1.10519e-05
0.00173019
0.00132623
0.000638997
0.00211575
0.00129527
0.00161513
0.00157512
-0.000536957
0.00216369
-0.00229472
-0.000609858
-0.00288079
-0.00222038
-0.00347743
-0.00270961
-0.00275463
-0.0019356
-0.00137177
-0.000627446
-1.24907e-05
0.00173281
0.00133068
0.000644634
0.00212056
0.00127236
0.00161454
0.00155583
-0.000520166
0.00209439
-0.00220979
-0.000673837
-0.00280498
-0.00227373
-0.00341492
-0.00275244
-0.00271944
-0.00197206
-0.00141463
-0.000736007
-1.40424e-05
0.00173546
0.00133649
0.000652039
0.00212553
0.00124783
0.00161447
0.0015358
-0.000500873
0.00202118
-0.0021207
-0.000741013
-0.00272644
-0.00232705
-0.00335349
-0.00279096
-0.00269101
-0.00200618
-0.00146383
-0.000843919
-1.57131e-05
0.00173816
0.0013435
0.000660965
0.00213035
0.00122193
0.00161456
0.00151443
-0.000478901
0.0019441
-0.00202777
-0.000810921
-0.0026458
-0.00237918
-0.00329385
-0.0028237
-0.00266969
-0.00203765
-0.00151789
-0.000951338
-1.75046e-05
0.00174094
0.00135146
0.000671033
0.00213484
0.001195
0.00161459
0.00149105
-0.000454122
0.00186323
-0.00193144
-0.000882924
-0.00256395
-0.00242844
-0.00323685
-0.00284901
-0.00265545
-0.0020666
-0.00157539
-0.00105851
-1.94141e-05
0.0017438
0.00136006
0.000681869
0.00213891
0.00116735
0.00161448
0.001465
-0.000426477
0.00177865
-0.00183226
-0.000956208
-0.00248207
-0.00247285
-0.00318344
-0.00286557
-0.00264804
-0.00209293
-0.00163461
-0.00116514
-2.14334e-05
0.00174674
0.00136912
0.000693205
0.00214264
0.0011392
0.00161435
0.00143576
-0.00039599
0.00169047
-0.00173093
-0.00102973
-0.00240166
-0.00251027
-0.00313466
-0.00287243
-0.00264383
-0.00211637
-0.00169343
-0.00126993
-2.35503e-05
0.00174975
0.00137854
0.00070492
0.00214623
0.00111056
0.00161441
0.00140301
-0.000362758
0.00159894
-0.00162838
-0.00110228
-0.00232449
-0.00253903
-0.00309138
-0.00286921
-0.00264159
-0.00213662
-0.00174939
-0.00137055
-2.57481e-05
0.00175282
0.00138832
0.000716985
0.00214987
0.00108144
0.00161495
0.00136665
-0.000326959
0.00150451
-0.00152563
-0.00117252
-0.00225247
-0.00255831
-0.00305412
-0.00285626
-0.00263984
-0.00215362
-0.00180029
-0.00146403
-2.8006e-05
0.00175593
0.00139852
0.000729375
0.0021537
0.0010518
0.00161614
0.00132684
-0.000288836
0.00140778
-0.00142377
-0.00123883
-0.00218737
-0.00256803
-0.00302338
-0.00283441
-0.00263704
-0.00216871
-0.00184494
-0.00154761
-3.02991e-05
0.00175904
0.00140919
0.000742031
0.0021578
0.00102165
0.00161807
0.00128393
-0.000248661
0.00130955
-0.0013241
-0.00129937
-0.00213053
-0.00256855
-0.00299947
-0.00280599
-0.00263199
-0.00218335
-0.00188366
-0.00161936
-3.25987e-05
0.00176213
0.00142037
0.000754853
0.00216217
0.000991023
0.00162064
0.00123841
-0.000206789
0.00121088
-0.00122821
-0.00135239
-0.00208286
-0.00256036
-0.0029822
-0.00277437
-0.00262362
-0.00219826
-0.00191832
-0.00167972
-3.4872e-05
0.00176515
0.00143211
0.000767718
0.00216676
0.000959992
0.00162368
0.00119083
-0.000163714
0.0011131
-0.00113773
-0.00139647
-0.00204488
-0.00254427
-0.0029705
-0.00274268
-0.0026118
-0.00221369
-0.00195087
-0.00173149
-3.70824e-05
0.00176805
0.00144448
0.000780508
0.00217149
0.000928588
0.001627
0.00114175
-0.000120077
0.00101773
-0.00105413
-0.00143069
-0.00201676
-0.00252172
-0.00296264
-0.00271326
-0.00259804
-0.00223073
-0.00198216
-0.00177659
-3.91894e-05
0.00177077
0.00145754
0.000793125
0.0021763
0.000896828
0.00163036
0.0010917
-7.67399e-05
0.000926457
-0.000978758
-0.00145451
-0.00199831
-0.00249426
-0.00295706
-0.00268759
-0.00258272
-0.00225113
-0.00201466
-0.00181614
-4.11476e-05
0.00177322
0.00147135
0.000805486
0.00218116
0.000864747
0.00163348
0.00104133
-3.48683e-05
0.000840819
-0.000912554
-0.00146782
-0.00198908
-0.00246361
-0.00295187
-0.00266719
-0.00256568
-0.00227452
-0.0020504
-0.00185237
-4.29024e-05
0.00177533
0.001486
0.000817533
0.00218601
0.000832397
0.00163598
0.000991368
4.45955e-06
0.000761799
-0.000856235
-0.00147078
-0.00198808
-0.00243205
-0.00294537
-0.00265305
-0.00254752
-0.00229983
-0.00208963
-0.00188641
-4.43953e-05
0.001777
0.00150153
0.000829237
0.00219082
0.000799858
0.00163747
0.000942309
4.027e-05
0.000690613
-0.000810642
-0.00146446
-0.00199371
-0.00240168
-0.00293592
-0.0026467
-0.00252944
-0.002324
-0.00213216
-0.00191995
-4.55661e-05
0.00177814
0.00151801
0.000840566
0.00219551
0.000767203
0.00163757
0.000894977
7.10725e-05
0.00062822
-0.000775273
-0.00145057
-0.00200456
-0.00237475
-0.00292112
-0.00264847
-0.00251667
-0.00234434
-0.00217305
-0.00195305
-4.63389e-05
0.00177861
0.00153551
0.000851484
0.00220003
0.00073457
0.00163553
0.00085057
9.6263e-05
0.000574211
-0.000749901
-0.00142904
-0.00201845
-0.0023547
-0.0029025
-0.00265276
-0.00250916
-0.00236695
-0.00221226
-0.00198214
-4.66294e-05
0.00177829
0.00155406
0.000861981
0.00220427
0.000702293
0.00163043
0.000809718
0.0001152
0.000530203
-0.000735754
-0.00140193
-0.00203195
-0.00234174
-0.00288494
-0.00265845
-0.00249802
-0.00239065
-0.00226331
-0.00200988
-4.63482e-05
0.00177703
0.00157372
0.000872099
0.00220795
0.000670948
0.00162135
0.000773449
0.000126112
0.000496319
-0.000729444
-0.0013735
-0.00204542
-0.00233455
-0.00286592
-0.00267268
-0.00249401
-0.00239948
-0.00229514
-0.00204048
-4.53653e-05
0.00177467
0.00159454
0.000881868
0.0022109
0.000640931
0.00160752
0.000742322
0.000130025
0.000469482
-0.000729111
-0.00134437
-0.00205563
-0.00233745
-0.00284487
-0.00268951
-0.00249832
-0.00240919
-0.00227094
-0.00206817
-4.36595e-05
0.00177113
0.00161643
0.000891461
0.00221273
0.000612928
0.00158824
0.000715966
0.000127989
0.000449733
-0.000734413
-0.00132044
-0.0020559
-0.002349
-0.00282585
-0.0027023
-0.00250357
-0.00242215
-0.00236377
-0.00208852
-4.10933e-05
0.00176617
0.00163959
0.000900843
0.00221306
0.000587661
0.00156296
0.000694604
0.00011927
0.000435762
-0.000737215
-0.0013087
-0.0020495
-0.00236307
-0.00280703
-0.00272369
-0.00253791
-0.00244458
-0.00229487
-0.00209058
-3.73648e-05
0.00175948
0.00166416
0.000909925
0.00221181
0.000565642
0.00153539
0.000678688
0.000104532
0.000426007
-0.000739159
-0.00130117
-0.00204133
-0.00238041
-0.00279281
-0.00273554
-0.0025682
-0.00249545
-0.00242531
-0.00207658
-3.26708e-05
0.00175132
0.00168937
0.000919704
0.0022074
0.000549349
0.0014875
0.00066953
8.37419e-05
0.000420037
-0.000743286
-0.00129618
-0.00203048
-0.00240002
-0.00279314
-0.00276813
-0.00259626
-0.00250241
-0.00244808
-0.00207279
-2.67489e-05
0.00174131
0.00171568
0.000929799
0.00219981
0.000538117
0.00143649
0.000663962
6.01742e-05
0.000415007
-0.000741666
-0.00130512
-0.00201752
-0.00242206
-0.00280241
-0.00280991
-0.00263839
-0.00246231
-0.00227594
-0.00206919
-1.90858e-05
0.0017288
0.00174398
0.00093964
0.00219003
0.000530194
0.00138795
0.000660035
3.75731e-05
0.000406448
-0.000733156
-0.00131973
-0.00201336
-0.00244209
-0.0028056
-0.00283741
-0.00267807
-0.00258767
-0.00246685
-0.00203456
-1.02261e-05
0.00171455
0.00177191
0.000952243
0.00217456
0.000533127
0.00132251
0.000661528
1.37189e-05
0.000397275
-0.000724123
-0.0013353
-0.00201256
-0.00247643
-0.00282794
-0.00286521
-0.00270986
-0.00259167
-0.00248193
-0.00201131
2.87883e-07
0.00169812
0.00179987
0.000966743
0.00215374
0.000541829
0.00125063
0.000662836
-6.62122e-06
0.000384998
-0.000711478
-0.00136093
-0.00201076
-0.00252478
-0.00286609
-0.00290289
-0.00275039
-0.00241123
-0.00222126
-0.00200061
1.32436e-05
0.00167857
0.00183092
0.000980603
0.00213081
0.000547866
0.00118724
0.000658702
-1.97233e-05
0.000367265
-0.000696203
-0.00138994
-0.00202412
-0.002543
-0.00289042
-0.00293481
-0.0028052
-0.00282744
-0.00248564
-0.00195023
2.74067e-05
0.00165746
0.00185889
0.00100034
0.00209982
0.000572366
0.00110616
0.000659394
-3.48406e-05
0.000354617
-0.000684311
-0.00142203
-0.00204202
-0.0025879
-0.00293064
-0.00296691
-0.0028441
-0.00279041
-0.0025006
-0.00190948
4.38926e-05
0.00163402
0.00188468
0.00102397
0.00206282
0.000601079
0.0010224
0.000658321
-4.72231e-05
0.000338765
-0.000668862
-0.00146189
-0.00205943
-0.00264143
-0.00298577
-0.00301762
-0.00288297
-0.00243426
-0.00218728
-0.00189318
6.33794e-05
0.00160752
0.00191507
0.00104725
0.00202566
0.000613725
0.000958299
0.000637855
-4.62137e-05
0.000314633
-0.000651541
-0.00150379
-0.00208314
-0.002654
-0.00302617
-0.00308254
-0.00296423
-0.0028425
-0.00251949
-0.00182043
8.41793e-05
0.00158002
0.00193534
0.00107818
0.00198205
0.000641613
0.000891308
0.000614575
-4.4905e-05
0.000286406
-0.000639003
-0.00154191
-0.0021069
-0.00266231
-0.00307124
-0.00316378
-0.00308046
-0.00298915
-0.00252309
-0.00169953
0.000108208
0.00155046
0.00195722
0.00111316
0.00193506
0.000668559
0.000822251
0.000594028
-4.89088e-05
0.000252653
-0.000631001
-0.0015733
-0.00213323
-0.0026802
-0.00312116
-0.00324526
-0.003174
-0.00304905
-0.00251146
-0.00162793
0.000135017
0.00151932
0.00199254
0.00115062
0.00188785
0.000689229
0.000758396
0.000568318
-5.68711e-05
0.000215945
-0.000623658
-0.00160084
-0.00217103
-0.00270266
-0.00316283
-0.00331319
-0.00323524
-0.0030385
-0.00254803
-0.00157442
0.000163842
0.00148786
0.00199743
0.00119273
0.00184025
0.000709846
0.000697562
0.000537081
-6.50982e-05
0.000173156
-0.000617715
-0.00162825
-0.0022161
-0.002721
-0.00319505
-0.00337417
-0.0032984
-0.00314607
-0.00253633
-0.00150885
0.00019617
0.00145534
0.00200287
0.00123631
0.00179546
0.000722765
0.000638933
0.000503394
-7.52137e-05
0.000124508
-0.000618251
-0.00165137
-0.00225689
-0.00273926
-0.00322683
-0.00343561
-0.00334149
-0.00305544
-0.00255392
-0.00144167
0.000231086
0.00142273
0.00200141
0.00128178
0.00175282
0.000736735
0.000585001
0.000463551
-9.1294e-05
7.20711e-05
-0.000617602
-0.00166503
-0.00230151
-0.00276996
-0.00325617
-0.00349089
-0.00338708
-0.00313807
-0.00254552
-0.00138382
0.000268869
0.00139016
0.00199378
0.00132734
0.0017139
0.000748902
0.000531954
0.000417443
-0.000109007
2.03195e-05
-0.000620598
-0.00167891
-0.00235071
-0.00280292
-0.00326971
-0.00353606
-0.00344335
-0.00320757
-0.00251885
-0.00132198
0.000309807
0.00135778
0.00198173
0.00137153
0.00167958
0.000755134
0.000482386
0.000369603
-0.000130936
-3.51229e-05
-0.000631574
-0.00168573
-0.00239136
-0.00283741
-0.00328361
-0.00358064
-0.00348556
-0.00310172
-0.00250669
-0.00125611
0.000353447
0.00132638
0.00196198
0.00141431
0.00164796
0.000762707
0.000437422
0.00031702
-0.00015992
-9.363e-05
-0.000641409
-0.00168325
-0.00243118
-0.00288506
-0.00330171
-0.00361165
-0.00352595
-0.00318969
-0.00248214
-0.0011929
0.000400126
0.00129606
0.00193787
0.00145382
0.00161981
0.000768732
0.00039352
0.000261761
-0.000190504
-0.000149899
-0.000656877
-0.00168359
-0.00246882
-0.00293471
-0.00331231
-0.00362669
-0.00356604
-0.00319103
-0.00247505
-0.0011182
0.000449527
0.00126744
0.00190766
0.00148975
0.00159428
0.000772198
0.000353662
0.0002082
-0.000224502
-0.000211192
-0.000680595
-0.00167859
-0.00249219
-0.00298411
-0.00333069
-0.00364285
-0.00361079
-0.00322949
-0.00242375
-0.00103189
0.000501511
0.00124095
0.00187208
0.00152109
0.00157087
0.000775288
0.000316962
0.000152959
-0.000263234
-0.000272311
-0.000705956
-0.00167203
-0.00250873
-0.00303748
-0.00335907
-0.00365035
-0.0036328
-0.00321126
-0.00240971
-0.000963364
0.000555872
0.00121728
0.00183
0.00154718
0.00154905
0.000776995
0.000282616
9.90089e-05
-0.000302838
-0.000332563
-0.000736607
-0.00167034
-0.00251713
-0.00308469
-0.0033915
-0.00365427
-0.00365071
-0.00325947
-0.00239381
-0.000897976
0.000612157
0.00119695
0.00177745
0.00156739
0.00152833
0.000775801
0.000250919
4.75689e-05
-0.000344105
-0.000393517
-0.00077033
-0.00167221
-0.00251698
-0.00312349
-0.00343278
-0.00366169
-0.00365742
-0.00325183
-0.00238227
-0.000828236
0.000669879
0.00118067
0.00172878
0.00158079
0.00150842
0.000771369
0.000219819
-2.13536e-06
-0.000384625
-0.000452718
-0.000804267
-0.00167911
-0.00251437
-0.00315244
-0.00347611
-0.00367172
-0.00366264
-0.00326129
-0.00235443
-0.00075667
0.000728629
0.00116901
0.00167854
0.00158606
0.00148783
0.000764879
0.000188026
-4.99024e-05
-0.000422405
-0.000510581
-0.000838201
-0.0016899
-0.0025119
-0.00316891
-0.00351741
-0.00368971
-0.00366724
-0.00324606
-0.00232074
-0.000685562
0.000788037
0.00116254
0.00162794
0.00158235
0.00146566
0.000759575
0.000153446
-9.68218e-05
-0.000457012
-0.000566334
-0.000871089
-0.00170221
-0.00251268
-0.00317625
-0.00355426
-0.00371056
-0.00366896
-0.00323364
-0.00228257
-0.000611279
0.000847115
0.00116197
0.00157735
0.0015693
0.00144088
0.000733572
0.00011755
-0.000143463
-0.000488134
-0.000620567
-0.000902502
-0.00171277
-0.00251882
-0.00317802
-0.00358111
-0.00373134
-0.00367369
-0.00322081
-0.00223927
-0.000533653
0.000905722
0.00116687
0.00152754
0.00154572
0.00141223
0.000708919
8.44507e-05
-0.000189833
-0.000516899
-0.000673825
-0.000934791
-0.00172094
-0.00252869
-0.0031768
-0.00359796
-0.00375114
-0.00368003
-0.0032099
-0.00219648
-0.000453733
0.00096355
0.00117662
0.00147862
0.00151198
0.00138114
0.000699964
5.53027e-05
-0.000235882
-0.000545365
-0.000728064
-0.000970548
-0.00172421
-0.00253822
-0.00317659
-0.00360849
-0.00376731
-0.00368566
-0.00320014
-0.00215447
-0.000372129
0.00101988
0.00119073
0.00143113
0.00146967
0.00134757
0.000698662
3.13554e-05
-0.000284069
-0.000576255
-0.00078223
-0.00100961
-0.00172221
-0.0025455
-0.00317959
-0.00361443
-0.00377718
-0.0036876
-0.00319189
-0.00211757
-0.000294905
0.00107434
0.00120843
0.00138614
0.00142081
0.001311
0.000707942
1.17097e-05
-0.000334771
-0.000609246
-0.000834129
-0.00105385
-0.00171748
-0.00254676
-0.0031839
-0.00361773
-0.00378314
-0.0036868
-0.0031835
-0.00208509
-0.000222433
0.00112651
0.00122904
0.00134513
0.00136667
0.00126969
0.0007047
-3.29771e-06
-0.000385351
-0.000644167
-0.000883002
-0.00110382
-0.00171326
-0.00253963
-0.00318761
-0.00362173
-0.00378822
-0.00368333
-0.00316963
-0.0020531
-0.000153872
0.00117613
0.00125194
0.00130901
0.00130824
0.00122261
0.000698696
-1.26806e-05
-0.000433995
-0.000682332
-0.000928561
-0.00115841
-0.0017137
-0.00252415
-0.00318731
-0.00362548
-0.0037918
-0.00367922
-0.00315236
-0.00202063
-8.93284e-05
0.00122314
0.0012763
0.00127803
0.0012475
0.00116981
0.000689163
-1.70057e-05
-0.000479708
-0.000724481
-0.000970813
-0.00121544
-0.00172175
-0.00250236
-0.00317906
-0.00362673
-0.00379486
-0.00365988
-0.00313077
-0.00198463
-2.55777e-05
0.00126738
0.00130146
0.00125247
0.00118623
0.00111125
0.00067445
-1.73056e-05
-0.000520142
-0.00076987
-0.00101029
-0.00127202
-0.00173875
-0.00247847
-0.00316245
-0.00362437
-0.00380089
-0.00365741
-0.00310992
-0.00194566
3.82829e-05
0.00130885
0.00132677
0.00123232
0.00112566
0.00104726
0.00065343
-1.47847e-05
-0.000552955
-0.000817713
-0.00104892
-0.00132635
-0.00176467
-0.00245691
-0.00313894
-0.00361631
-0.00380683
-0.00365927
-0.00309215
-0.00190693
0.000102041
0.00134764
0.00135155
0.00121716
0.00106715
0.000979085
0.000625305
-1.12887e-05
-0.000577652
-0.000867104
-0.00108856
-0.00137707
-0.00179823
-0.00244122
-0.00311059
-0.00360068
-0.00380925
-0.00366395
-0.00307996
-0.0018717
0.000163959
0.0013838
0.00137533
0.0012064
0.00101183
0.00090803
0.000589672
-9.12493e-06
-0.0005943
-0.000915814
-0.00113
-0.00142339
-0.0018367
-0.00243391
-0.00308103
-0.00357813
-0.0038054
-0.00366945
-0.00307448
-0.00184375
0.000220802
0.00141745
0.00139765
0.00119943
0.000960489
0.000835388
0.000546621
-1.05089e-05
-0.00060326
-0.000961092
-0.00117457
-0.00146606
-0.00187702
-0.00243573
-0.00305382
-0.00355092
-0.0037944
-0.00367279
-0.00307393
-0.00182348
0.000271019
0.00144874
0.00141826
0.00119539
0.000913662
0.000762518
0.000496958
-1.74226e-05
-0.000606278
-0.00100051
-0.00122265
-0.00150709
-0.00191681
-0.00244582
-0.00303206
-0.0035214
-0.00377714
-0.00367176
-0.00307505
-0.00180962
0.000314089
0.00147782
0.00143691
0.00119349
0.000871692
0.000690678
0.000441593
-3.13562e-05
-0.000605734
-0.0010325
-0.00127298
-0.00154834
-0.00195509
-0.00246277
-0.0030186
-0.00349113
-0.003754
-0.00366446
-0.00307494
-0.00180023
0.000350028
0.00150485
0.00145347
0.00119288
0.000834638
0.000620752
0.000381699
-5.3151e-05
-0.000604312
-0.00105637
-0.00132362
-0.00159141
-0.00199202
-0.00248439
-0.00301323
-0.00346667
-0.00372829
-0.00365133
-0.00307135
-0.00179254
0.000379707
0.00152991
0.00146793
0.00119278
0.000802337
0.000553386
0.000318568
-8.26037e-05
-0.000604998
-0.0010728
-0.00137227
-0.00163732
-0.00202855
-0.00250872
-0.00301616
-0.00345051
-0.00370455
-0.00363486
-0.00306365
-0.00178432
0.000404368
0.00155316
0.00148029
0.00119248
0.000774522
0.000489941
0.000253511
-0.000119113
-0.000610218
-0.00108302
-0.00141699
-0.00168639
-0.00206621
-0.00253533
-0.00302611
-0.00344379
-0.00368625
-0.00361771
-0.00305241
-0.00177446
0.000425278
0.00157462
0.00149072
0.0011915
0.000750353
0.000431215
0.000187879
-0.000161515
-0.00062185
-0.00108917
-0.00145623
-0.00173811
-0.00210632
-0.00256365
-0.00304113
-0.00344652
-0.00367624
-0.00360342
-0.0030399
-0.00176281
0.000443811
0.00159428
0.00149931
0.00118953
0.000729212
0.000377211
0.000122648
-0.000208766
-0.000640916
-0.00109452
-0.00148932
-0.00179122
-0.00215012
-0.00259462
-0.00305933
-0.00345638
-0.00367615
-0.00359628
-0.00303023
-0.00175158
0.000460342
0.00161225
0.00150624
0.00118623
0.000710344
0.000327895
5.86213e-05
-0.000259778
-0.000667324
-0.00110172
-0.00151642
-0.00184435
-0.00219872
-0.0026298
-0.00308004
-0.00347028
-0.00368467
-0.00359931
-0.00302888
-0.00174647
0.000471427
0.00162849
0.00151169
0.00118161
0.000693094
0.000283042
-3.56664e-06
-0.000312564
-0.000700541
-0.00111441
-0.00153813
-0.00189529
-0.00225206
-0.0026717
-0.00310657
-0.00348783
-0.00369799
-0.00360883
-0.00303523
-0.00174906
0.000473651
0.001643
0.00151577
0.00117563
0.000676922
0.000242498
-6.31836e-05
-0.000366954
-0.000739744
-0.00113512
-0.00155807
-0.00194159
-0.00230779
-0.00272172
-0.00314405
-0.00351405
-0.00371845
-0.00362393
-0.00304699
-0.00175728
0.000469099
0.00165574
0.00151874
0.00116847
0.000661165
0.000205601
-0.000119808
-0.000422174
-0.000783502
-0.00116461
-0.00158027
-0.00198368
-0.00236275
-0.00277497
-0.00319053
-0.00355148
-0.00375152
-0.00365235
-0.00307109
-0.00177615
0.000455801
0.00166657
0.00152073
0.00116048
0.000645518
0.000171847
-0.000173221
-0.00047775
-0.000830268
-0.00120176
-0.00160998
-0.00202589
-0.00241897
-0.0028303
-0.00324127
-0.00359528
-0.00379336
-0.00369376
-0.00311108
-0.00181216
0.000425474
0.00167544
0.00152195
0.00115208
0.000629803
0.000140358
-0.000223609
-0.000534001
-0.000879415
-0.00124354
-0.00164636
-0.0020712
-0.00247938
-0.00289359
-0.00330239
-0.00364987
-0.00384389
-0.00374314
-0.00316068
-0.00186101
0.000379588
0.00168217
0.00152253
0.00114355
0.000614219
0.000110731
-0.000270779
-0.000590685
-0.000933096
-0.00128952
-0.00168752
-0.00211771
-0.00254037
-0.00296233
-0.00337419
-0.00372039
-0.00391178
-0.00380891
-0.00322553
-0.00192513
0.000318261
0.00168672
0.00152236
0.00113561
0.000598999
8.33501e-05
-0.000314707
-0.000645768
-0.000990748
-0.00134151
-0.00173552
-0.00216875
-0.00260195
-0.00303249
-0.00345043
-0.00380078
-0.00399572
-0.00389544
-0.0033132
-0.00201259
0.000233139
0.00168999
0.00151926
0.00112536
0.000583462
5.47675e-05
-0.000358121
-0.000700178
-0.00105161
-0.00139967
-0.00178898
-0.00222477
-0.00266862
-0.00310789
-0.00353223
-0.00388979
-0.00409197
-0.00399906
-0.00342203
-0.00212486
0.000119929
0.00169116
0.00152632
0.00112012
0.000573072
3.19663e-05
-0.000399574
-0.000753231
-0.00111404
-0.00146379
-0.00184728
-0.00228241
-0.00273858
-0.00318899
-0.0036198
-0.00398662
-0.00419866
-0.00411728
-0.00355146
-0.00226326
-2.53926e-05
0.00167985
0.00151117
0.00111272
0.000558918
7.74173e-06
-0.000443138
-0.000806523
-0.00117859
-0.00153405
-0.0019119
-0.00234409
-0.00280989
-0.00327472
-0.00371422
-0.00409049
-0.00431343
-0.0042458
-0.00369494
-0.00242167
-0.000197315
0.00169104
0.00153721
0.00111981
0.000546875
-2.62712e-05
-0.00049578
-0.000867237
-0.00124665
-0.00161336
-0.0019857
-0.00241572
-0.00288807
-0.00336672
-0.00382023
-0.00420707
-0.00444184
-0.00438934
-0.00385291
-0.00259128
-0.000373732
0.00163986
0.00151616
0.00113628
0.00055669
-3.02342e-05
-0.000525317
-0.000924311
-0.00130849
-0.00168656
-0.00206477
-0.0025
-0.00298836
-0.00349062
-0.00397266
-0.00438384
-0.00464438
-0.00461565
-0.0041014
-0.00285728
-0.000647563
0.00169951
0.00153883
0.00109841
0.000509552
-8.09753e-05
-0.000592393
-0.000996919
-0.0013574
-0.00170677
-0.00205273
-0.00245918
-0.00293731
-0.00344931
-0.00395483
-0.0044153
-0.00475794
-0.00484106
-0.00445456
-0.00334148
-0.00126603
0.00161209
0.00152727
0.00109357
0.000598747
2.65035e-05
-0.000644196
-0.00119178
-0.00157828
-0.00195231
-0.00229251
-0.00269965
-0.00316128
-0.00363418
-0.0040258
-0.00430334
-0.00442238
-0.00431848
-0.00382751
-0.00270868
-0.000694378
0.00173364
0.00149055
0.00109463
0.000506559
-0.000110128
-0.000642703
-0.00103081
-0.00131576
-0.00165709
-0.00204582
-0.00251037
-0.00305502
-0.0036958
-0.00441741
-0.00514756
-0.00577414
-0.00612789
-0.00596328
-0.0050483
-0.00314421
0.00194736
0.00140133
0.000881946
0.000286925
-0.000247157
-0.000885322
-0.00140304
-0.00169734
-0.00202495
-0.00248896
-0.00293384
-0.00329857
-0.00341702
-0.00321427
-0.00264821
-0.00179594
-0.000838343
-9.94721e-05
8.55804e-05
-0.00061151
0.00192453
0.00142884
0.000901394
0.000399497
-3.28879e-05
-0.000435668
-0.000789158
-0.00115114
-0.00155083
-0.00207475
-0.00271196
-0.00350048
-0.00443134
-0.00543095
-0.00639164
-0.00722679
-0.00780042
-0.00790463
-0.00726154
-0.00562208
0.00207469
0.0013891
0.000816827
0.000267352
-0.000138961
-0.000660925
-0.00119998
-0.00180917
-0.00235537
-0.00270779
-0.0030422
-0.00347714
-0.00385174
-0.00401625
-0.00386491
-0.00340348
-0.00273936
-0.00215325
-0.00202909
-0.00272865
0.00206854
0.00136632
0.0008058
0.00038366
0.000148601
-0.000111193
-0.000342224
-0.000705958
-0.00119481
-0.00192786
-0.00293504
-0.00426886
-0.00586411
-0.0075489
-0.00909138
-0.0103099
-0.0110513
-0.0111398
-0.0103553
-0.00850273
0.00212878
-0.00604665
-0.0086473
-0.00675347
-0.00440015
-0.00230066
-0.000440339
0.00105063
0.00226962
0.00344208
0.0046783
0.0059265
0.00702017
0.00796183
0.00901514
0.0102971
0.0116388
0.0129213
0.014173
0.0155237
0.016965
0.0184177
0.0199138
0.0214833
0.0230932
0.0247331
0.0264369
0.0282017
0.0300536
0.0319942
0.0340101
0.0360312
0.0381216
0.0403142
0.0425997
0.0449747
0.0474019
0.0499277
0.0525011
0.055209
0.0579583
0.0608538
0.0638108
0.066899
0.0701035
0.0733192
0.076751
0.0800782
0.0833045
0.0868522
0.00200243
-0.00597837
-0.00859978
-0.0067356
-0.0043914
-0.00229513
-0.000436069
0.00105434
0.00227289
0.0034449
0.00468068
0.00592854
0.00702194
0.0079633
0.00901632
0.0102981
0.0116397
0.0129221
0.0141737
0.0155243
0.0169656
0.0184182
0.0199142
0.0214837
0.0230935
0.0247335
0.0264372
0.028202
0.0300539
0.0319944
0.0340103
0.0360314
0.0381219
0.0403144
0.0425999
0.0449749
0.0474021
0.0499278
0.0525012
0.0552091
0.0579585
0.0608539
0.0638109
0.0668991
0.0701036
0.0733193
0.0767511
0.0800783
0.0833045
0.0868522
0.00180324
-0.00588542
-0.00852511
-0.00671062
-0.00438052
-0.00228881
-0.000431779
0.00105772
0.00227578
0.00344742
0.00468287
0.00593044
0.00702358
0.00796463
0.00901737
0.010299
0.0116405
0.0129228
0.0141743
0.0155248
0.016966
0.0184186
0.0199146
0.0214841
0.0230939
0.0247338
0.0264375
0.0282022
0.0300541
0.0319946
0.0340105
0.0360316
0.038122
0.0403146
0.0426001
0.044975
0.0474022
0.049928
0.0525013
0.0552092
0.0579586
0.060854
0.063811
0.0668992
0.0701037
0.0733194
0.0767511
0.0800783
0.0833045
0.0868522
0.00161067
-0.00576403
-0.00841368
-0.00667048
-0.00436369
-0.00227967
-0.00042646
0.00106125
0.00227862
0.00344998
0.00468517
0.00593249
0.00702537
0.00796604
0.00901847
0.0103
0.0116414
0.0129235
0.0141749
0.0155253
0.0169665
0.0184191
0.019915
0.0214845
0.0230942
0.0247341
0.0264378
0.0282025
0.0300544
0.0319949
0.0340107
0.0360318
0.0381222
0.0403148
0.0426002
0.0449751
0.0474023
0.0499281
0.0525015
0.0552093
0.0579587
0.0608541
0.0638111
0.0668993
0.0701038
0.0733194
0.0767512
0.0800784
0.0833046
0.0868522
0.00143569
-0.0056185
-0.00827107
-0.00661431
-0.00433918
-0.00226616
-0.000419113
0.00106536
0.00228161
0.00345272
0.00468775
0.00593486
0.00702746
0.00796774
0.00901981
0.0103012
0.0116424
0.0129244
0.0141756
0.0155259
0.0169671
0.0184195
0.0199155
0.0214849
0.0230946
0.0247344
0.0264381
0.0282028
0.0300546
0.0319951
0.034011
0.036032
0.0381224
0.0403149
0.0426004
0.0449753
0.0474025
0.0499282
0.0525016
0.0552094
0.0579588
0.0608542
0.0638112
0.0668994
0.0701039
0.0733195
0.0767513
0.0800785
0.0833047
0.0868523
0.00126749
-0.00546068
-0.00811114
-0.00654741
-0.00430846
-0.00224834
-0.000409299
0.00107046
0.00228489
0.00345569
0.00469063
0.00593755
0.00702994
0.00796984
0.00902153
0.0103027
0.0116437
0.0129254
0.0141765
0.0155266
0.0169677
0.0184201
0.019916
0.0214853
0.023095
0.0247348
0.0264384
0.0282031
0.0300549
0.0319954
0.0340112
0.0360322
0.0381226
0.0403151
0.0426005
0.0449755
0.0474026
0.0499283
0.0525017
0.0552095
0.0579589
0.0608543
0.0638113
0.0668995
0.070104
0.0733196
0.0767514
0.0800786
0.0833049
0.0868524
0.0010973
-0.00529875
-0.00794207
-0.00647447
-0.0042741
-0.00222741
-0.000397204
0.00107676
0.00228869
0.00345894
0.00469376
0.00594051
0.00703275
0.00797238
0.00902373
0.0103047
0.0116453
0.0129267
0.0141775
0.0155275
0.0169684
0.0184207
0.0199165
0.0214858
0.0230955
0.0247352
0.0264388
0.0282034
0.0300552
0.0319957
0.0340115
0.0360325
0.0381228
0.0403153
0.0426007
0.0449756
0.0474028
0.0499285
0.0525018
0.0552097
0.057959
0.0608544
0.0638114
0.0668996
0.0701041
0.0733197
0.0767515
0.0800787
0.0833051
0.0868525
0.000923142
-0.00513511
-0.00776609
-0.00639758
-0.00423788
-0.00220467
-0.000383403
0.00108427
0.00229317
0.00346257
0.00469712
0.00594363
0.00703581
0.00797533
0.00902647
0.0103072
0.0116474
0.0129284
0.0141788
0.0155285
0.0169692
0.0184214
0.0199171
0.0214864
0.023096
0.0247357
0.0264392
0.0282038
0.0300556
0.031996
0.0340118
0.0360327
0.038123
0.0403155
0.0426009
0.0449758
0.047403
0.0499286
0.052502
0.0552098
0.0579591
0.0608545
0.0638115
0.0668997
0.0701042
0.0733198
0.0767516
0.0800789
0.0833054
0.0868527
0.00074661
-0.00496955
-0.00758312
-0.0063173
-0.00420067
-0.00218098
-0.000368505
0.00109274
0.00229831
0.00346659
0.00470067
0.00594681
0.00703893
0.00797852
0.00902966
0.0103102
0.0116499
0.0129304
0.0141805
0.0155298
0.0169703
0.0184222
0.0199179
0.0214871
0.0230966
0.0247362
0.0264397
0.0282042
0.0300559
0.0319963
0.0340122
0.036033
0.0381233
0.0403158
0.0426012
0.044976
0.0474031
0.0499288
0.0525021
0.0552099
0.0579593
0.0608546
0.0638116
0.0668998
0.0701043
0.0733199
0.0767517
0.080079
0.0833057
0.086853
0.00056989
-0.0048019
-0.00739297
-0.0062337
-0.00416284
-0.00215681
-0.000352942
0.00110188
0.00230399
0.00347095
0.00470437
0.00594998
0.00704201
0.00798178
0.00903316
0.0103137
0.0116529
0.0129328
0.0141824
0.0155314
0.0169715
0.0184232
0.0199187
0.0214878
0.0230973
0.0247369
0.0264402
0.0282046
0.0300563
0.0319967
0.0340126
0.0360334
0.0381236
0.040316
0.0426014
0.0449763
0.0474034
0.049929
0.0525023
0.0552101
0.0579594
0.0608548
0.0638118
0.0668999
0.0701044
0.0733201
0.0767518
0.0800793
0.0833062
0.0868533
0.00039434
-0.00463274
-0.00719571
-0.00614664
-0.00412452
-0.00213237
-0.000336936
0.00111147
0.00231004
0.00347555
0.00470817
0.00595311
0.00704496
0.00798494
0.00903678
0.0103176
0.0116563
0.0129355
0.0141848
0.0155334
0.016973
0.0184244
0.0199197
0.0214887
0.0230981
0.0247376
0.0264409
0.0282052
0.0300568
0.0319972
0.034013