/*--------------------------------*- C++ -*----------------------------------*\
| =========                 |                                                 |
| \\      /  F ield         | OpenFOAM: The Open Source CFD Toolbox           |
|  \\    /   O peration     | Version:  v2012                                 |
|   \\  /    A nd           | Website:  www.openfoam.com                      |
|    \\/     M anipulation  |                                                 |
\*---------------------------------------------------------------------------*/
FoamFile
{
    version     2.0;
    format      ascii;
    class       volScalarField;
    location    "3.1";
    object      p;
}
// * * * * * * * * * * * * * * * * * * * * * * * * * * * * * * * * * * * * * //

dimensions      [0 2 -2 0 0 0 0];


internalField   nonuniform List<scalar> 
7000
(
1.03442e-10
0.00033671
-0.00188492
0.00117379
0.00230688
0.00259907
0.0040415
0.00466284
0.00309773
0.00508873
0.0030814
0.00554962
0.00358577
0.00557893
0.0047235
0.00703756
0.00714803
0.0100386
0.0117391
0.0173273
-2.7786e-06
0.000341592
-0.00187735
0.00117088
0.00229953
0.00260385
0.0040404
0.00465333
0.00310249
0.00506548
0.00309275
0.00554225
0.00359728
0.00557479
0.00474092
0.00702944
0.0071706
0.010022
0.0117533
0.0169585
-6.13119e-06
0.000347684
-0.00186736
0.0011608
0.00228793
0.00261337
0.00403501
0.00464595
0.00310178
0.00504238
0.00311011
0.00552789
0.00361926
0.00556218
0.00477354
0.00700442
0.00720935
0.00997989
0.0117612
0.0165038
-9.64525e-06
0.000353646
-0.00185552
0.00114901
0.00227616
0.00262495
0.00402797
0.00463973
0.00309947
0.00501795
0.00313409
0.00550839
0.00364952
0.00554265
0.00481675
0.00696649
0.00725616
0.00991899
0.0117562
0.0160511
-1.37465e-05
0.000359735
-0.00183999
0.0011386
0.00226431
0.00263791
0.00402082
0.00463368
0.00309717
0.00499276
0.00316351
0.00548428
0.00368544
0.00551738
0.00486578
0.00692147
0.00730565
0.00984789
0.0117357
0.0156252
-1.85992e-05
0.000366403
-0.00181985
0.00112959
0.00225195
0.00265213
0.00401457
0.00462716
0.00309615
0.00496607
0.00319699
0.00545577
0.00372564
0.00548694
0.00491854
0.00687312
0.00735533
0.00977209
0.0116985
0.0152251
-2.41279e-05
0.00037405
-0.00179522
0.00112168
0.00223913
0.00266736
0.00400948
0.00461976
0.00309691
0.00493719
0.00323407
0.0054229
0.00376983
0.00545156
0.00497457
0.00682309
0.00740413
0.00969399
0.011645
0.0148477
-3.01334e-05
0.000382957
-0.00176647
0.00111548
0.00222596
0.00268315
0.00400522
0.00461112
0.00309956
0.00490563
0.00327467
0.00538544
0.00381806
0.0054114
0.00503348
0.00677235
0.00745123
0.00961486
0.0115766
0.0144891
-3.63779e-05
0.000393218
-0.00173355
0.00111196
0.00221233
0.00269881
0.00400115
0.00460083
0.00310403
0.00487109
0.0033188
0.00534319
0.00387035
0.00536684
0.00509451
0.00672182
0.00749516
0.00953609
0.0114942
0.0141455
-4.26646e-05
0.000404748
-0.00169589
0.0011118
0.00219789
0.00271356
0.00399665
0.0045885
0.00311022
0.00483329
0.00336645
0.00529609
0.00392654
0.00531845
0.00515663
0.00667252
0.00753379
0.00945925
0.0113991
0.0138155
-4.88775e-05
0.000417352
-0.0016528
0.00111516
0.00218237
0.00272678
0.0039914
0.00457378
0.00311812
0.00479194
0.00341762
0.00524426
0.00398618
0.005267
0.00521858
0.00662586
0.00756528
0.00938503
0.0112923
0.0134982
-5.49786e-05
0.000430809
-0.00160391
0.00112181
0.00216567
0.00273815
0.00398541
0.00455643
0.00312772
0.00474679
0.0034723
0.00518789
0.00404869
0.00521344
0.00527867
0.00658358
0.00758823
0.00931352
0.0111752
0.0131921
-6.09803e-05
0.000444936
-0.00154959
0.00113114
0.00214794
0.00274766
0.00397899
0.00453629
0.00313909
0.0046976
0.00353047
0.00512729
0.00411328
0.00515915
0.00533472
0.00654721
0.00760169
0.00924461
0.0110498
0.012896
-6.69143e-05
0.000459618
-0.00149082
0.00114231
0.00212944
0.00275545
0.00397263
0.00451327
0.00315229
0.0046442
0.00359197
0.005063
0.00417882
0.00510579
0.00538447
0.00651766
0.00760523
0.00917762
0.0109177
0.012609
-7.28087e-05
0.000474805
-0.0014289
0.0011545
0.00211045
0.00276169
0.00396687
0.00448728
0.0031674
0.00458654
0.00365656
0.00499569
0.00424389
0.00505521
0.00542591
0.006495
0.00759881
0.00911151
0.0107806
0.0123312
-7.86785e-05
0.000490476
-0.00136497
0.00116705
0.00209126
0.0027665
0.00396213
0.00445826
0.00318443
0.00452469
0.00372389
0.00492627
0.00430668
0.00500929
0.00545741
0.00647866
0.00758274
0.00904459
0.0106398
0.0120624
-8.45263e-05
0.000506622
-0.00129981
0.00117955
0.00207213
0.0027699
0.0039587
0.00442615
0.00320339
0.00445884
0.00379343
0.00485601
0.00436503
0.00496963
0.00547793
0.00646748
0.00755783
0.0089746
0.0104958
0.0118027
-9.03451e-05
0.000523228
-0.00123376
0.00119181
0.00205325
0.00277181
0.00395674
0.00439094
0.00322421
0.00438937
0.00386439
0.00478659
0.00441675
0.00493734
0.00548719
0.00645949
0.0075252
0.00889951
0.0103483
0.0115515
-9.61193e-05
0.000540272
-0.00116687
0.00120372
0.00203478
0.00277209
0.00395635
0.00435263
0.00324678
0.00431687
0.00393565
0.00471998
0.00445992
0.00491286
0.00548556
0.00645244
0.00748582
0.00881752
0.0101967
0.0113077
-0.000101825
0.000557729
-0.001099
0.00121522
0.00201688
0.00277062
0.00395759
0.00431131
0.00327087
0.00424221
0.00400573
0.00465828
0.00449304
0.00489618
0.00547373
0.00644418
0.00744094
0.00872708
0.0100402
0.0110696
-0.000107431
0.000575568
-0.00102996
0.00122622
0.00199968
0.00276724
0.00396047
0.00426714
0.00329613
0.00416661
0.0040728
0.00460333
0.00451507
0.00488695
0.00545304
0.00643189
0.00739173
0.00862795
0.00987768
0.0108351
-0.0001129
0.000593753
-0.000959578
0.00123663
0.00198334
0.00276185
0.00396505
0.00422036
0.0033219
0.00409157
0.00413516
0.00455645
0.00452549
0.00488404
0.00542552
0.00641292
0.00733817
0.00852034
0.00970908
0.0106027
-0.000118185
0.000612238
-0.000887705
0.00124635
0.00196798
0.0027543
0.00397142
0.00417145
0.00334726
0.00401859
0.00419141
0.00451851
0.00452421
0.0048857
0.005393
0.00638581
0.00728032
0.00840358
0.00953373
0.0103722
-0.000123233
0.000630971
-0.000814214
0.00125529
0.00195378
0.0027445
0.00398017
0.00412103
0.00337128
0.00394901
0.00424017
0.00449026
0.00451167
0.00488985
0.00535748
0.00634933
0.00721854
0.00827854
0.00935054
0.0101424
-0.000127985
0.000649889
-0.000738994
0.00126335
0.00194086
0.00273243
0.00399048
0.00406982
0.00339268
0.00388437
0.00428021
0.00447157
0.00448893
0.00489415
0.00532152
0.00630245
0.00715173
0.00814685
0.00916064
0.00991248
-0.000132368
0.000668911
-0.000661959
0.00127045
0.00192933
0.00271806
0.00400163
0.00401896
0.00340983
0.00382557
0.00431146
0.00446132
0.00445711
0.00489582
0.00528755
0.00624483
0.00707831
0.00801059
0.00896483
0.00968239
-0.000136302
0.000687961
-0.000583066
0.00127651
0.00191931
0.00270145
0.00401345
0.00396975
0.00342197
0.00377227
0.00433406
0.00445889
0.00441797
0.0048911
0.00525608
0.00617846
0.0069952
0.00787143
0.00876709
0.00945163
-0.000139708
0.000706952
-0.00050224
0.00128142
0.00191088
0.00268294
0.00402499
0.00392272
0.00342869
0.00372517
0.00434699
0.00446342
0.00437392
0.00487888
0.00522396
0.00610564
0.00690531
0.00772496
0.00856701
0.0092244
-0.000142489
0.000725766
-0.000419444
0.00128518
0.00190406
0.00266268
0.00403633
0.00387936
0.00342802
0.00368544
0.00435055
0.00447284
0.00432557
0.00485949
0.00518998
0.00602323
0.0068146
0.00757664
0.00835812
0.00899847
-0.000144544
0.000744322
-0.00033473
0.00128782
0.00189884
0.00264119
0.00404502
0.00384136
0.00341988
0.00365111
0.00434669
0.00448555
0.00427454
0.00482888
0.0051549
0.00593528
0.00670709
0.00743682
0.00816671
0.00876193
-0.00014575
0.000762534
-0.000248061
0.00128933
0.00189507
0.00261919
0.00405071
0.00380804
0.0034054
0.00362166
0.00433566
0.0044981
0.00422556
0.00478685
0.00511619
0.00583856
0.00659287
0.00729189
0.00798989
0.00852845
-0.000146054
0.000780307
-0.000159508
0.00128996
0.00189243
0.00259723
0.00405166
0.00378027
0.00338372
0.00359574
0.00432235
0.00450394
0.00418122
0.00473452
0.0050755
0.00573388
0.00647278
0.00713686
0.00775852
0.00830633
-0.0001453
0.00079743
-6.90902e-05
0.00128984
0.00189073
0.00257578
0.00404898
0.00375834
0.00335697
0.00356828
0.00431241
0.00450155
0.00413989
0.00467131
0.00503347
0.00563346
0.00630724
0.00696038
0.00761059
0.0081017
-0.000143194
0.000813801
2.31895e-05
0.0012889
0.0018898
0.00255535
0.00404541
0.00374084
0.00332585
0.0035423
0.00429897
0.00449801
0.00409658
0.00460254
0.00498246
0.00552616
0.00615569
0.00675608
0.00734973
0.00792806
-0.000139932
0.000829704
0.00011666
0.00128814
0.00188842
0.00253828
0.00402617
0.00373097
0.00328819
0.0035173
0.004282
0.00449363
0.00404995
0.00452953
0.00491853
0.00539572
0.00598541
0.00659023
0.00715844
0.00773133
-0.000135324
0.000844608
0.000211414
0.00128797
0.00188599
0.00252384
0.00400377
0.00372495
0.00324923
0.0034869
0.00426895
0.00448108
0.0040012
0.00444509
0.00484543
0.00526349
0.00578578
0.00644076
0.00707385
0.007515
-0.000128658
0.000858229
0.000307714
0.00128768
0.00188311
0.00251069
0.00398438
0.00371885
0.00321404
0.00345032
0.00425538
0.0044694
0.0039437
0.00434413
0.00476733
0.00513736
0.00563215
0.00618963
0.00677505
0.00738637
-0.00012051
0.000871303
0.000403875
0.00128954
0.00187792
0.00250367
0.00394608
0.00371985
0.00317669
0.00341144
0.0042366
0.00445788
0.00388389
0.00422814
0.00466293
0.00500593
0.00545924
0.00600396
0.00658287
0.00721078
-0.000110685
0.000883132
0.000500011
0.00129415
0.00186969
0.00250034
0.00390569
0.0037188
0.00314446
0.00336746
0.00421556
0.00443929
0.00382355
0.00409456
0.00454302
0.00487173
0.00525333
0.00586964
0.00655237
0.00698247
-9.79625e-05
0.000893466
0.000596827
0.00129942
0.00186057
0.00249515
0.00387749
0.00371003
0.00312229
0.00331771
0.0041878
0.00442379
0.00375022
0.00395839
0.00442753
0.00474688
0.00509975
0.00554419
0.00618485
0.00692504
-8.38758e-05
0.000903554
0.000691413
0.00130936
0.00184771
0.00249841
0.00382485
0.00370959
0.00309319
0.00327421
0.00414933
0.00440278
0.00368065
0.00379894
0.00428507
0.00461042
0.00492339
0.00532875
0.00596541
0.00676192
-6.74403e-05
0.000912422
0.00078411
0.00132395
0.00183147
0.0025043
0.00376993
0.00370416
0.00306803
0.0032289
0.00410642
0.00437107
0.00361879
0.00362756
0.0041229
0.00445222
0.00471096
0.00520421
0.00598511
0.00653918
-4.7455e-05
0.000919939
0.000876053
0.00133998
0.00181524
0.00250175
0.00374219
0.00367989
0.00305774
0.00317185
0.00405745
0.00433604
0.00355517
0.00348501
0.0039701
0.00428486
0.00451275
0.00480653
0.00549712
0.00649188
-2.61568e-05
0.000927575
0.000963672
0.00136198
0.00179674
0.00250226
0.00370412
0.00365757
0.00304221
0.00311389
0.00399563
0.00429471
0.0035019
0.00335198
0.00380319
0.00410243
0.00425586
0.0045003
0.00529227
0.0064494
-1.57792e-06
0.000934215
0.00104786
0.00138902
0.00177703
0.00250311
0.0036623
0.00363497
0.00302271
0.00305605
0.00391811
0.00425092
0.00345781
0.0032093
0.00361516
0.00390586
0.00401702
0.00429041
0.00505676
0.0061925
2.61957e-05
0.000940489
0.00112853
0.00141922
0.00175845
0.00249885
0.00362308
0.00361047
0.00300329
0.00299293
0.00383103
0.00420292
0.0034093
0.00306115
0.00341944
0.00371239
0.00382849
0.00406465
0.00476452
0.00601674
5.62273e-05
0.000947167
0.00120372
0.00145386
0.00174174
0.00249105
0.0035821
0.00358386
0.00298202
0.0029267
0.00373879
0.00414137
0.00335912
0.00292214
0.00321509
0.00352527
0.003639
0.00383859
0.00454274
0.00585314
8.97711e-05
0.00095387
0.00127435
0.00149091
0.00172799
0.00248021
0.00353913
0.00355109
0.00296093
0.00286248
0.00363392
0.00406769
0.00331566
0.00278701
0.00300159
0.00332694
0.00346772
0.00363702
0.00429061
0.00568057
0.000126183
0.000961299
0.00133976
0.00152918
0.00171893
0.00246726
0.00349089
0.00351395
0.00294027
0.00279633
0.00352152
0.00398685
0.00326872
0.00265526
0.00278695
0.00312885
0.00329417
0.00345095
0.00408987
0.00551092
0.000165628
0.00096925
0.00140008
0.0015687
0.00171461
0.00245199
0.00343889
0.00347139
0.00291638
0.0027316
0.00340576
0.00389309
0.00321432
0.00253631
0.00257964
0.00291973
0.00310822
0.00328672
0.00392841
0.00534579
0.00020831
0.000977969
0.00145596
0.0016076
0.00171405
0.00243616
0.00338393
0.00342072
0.00289013
0.00267061
0.00328283
0.00378738
0.00315733
0.00242832
0.00237504
0.00268931
0.0029318
0.00314714
0.00375891
0.00519084
0.000254042
0.000987912
0.00150687
0.00164516
0.00171662
0.00242059
0.00332549
0.00336423
0.0028608
0.00261101
0.00315568
0.00367256
0.00309449
0.00232535
0.00217501
0.00245975
0.00275007
0.00300676
0.00363702
0.0050576
0.000302955
0.000999016
0.0015534
0.00168137
0.00172043
0.00240406
0.00326798
0.00330294
0.00282543
0.0025547
0.00302583
0.0035461
0.00302504
0.00222773
0.00199025
0.00222712
0.00255561
0.00287228
0.00351567
0.00493952
0.000354891
0.0010118
0.00159541
0.0017153
0.00172455
0.00238833
0.00321105
0.00323721
0.00278481
0.00249963
0.00289407
0.00340964
0.00294931
0.0021329
0.00181598
0.0019959
0.00235031
0.00273277
0.00343333
0.00484517
0.00040988
0.00102637
0.00163285
0.00174702
0.00172869
0.00237156
0.00315507
0.00316868
0.00273749
0.00244536
0.00276363
0.00326236
0.00286546
0.00204097
0.00165405
0.00176912
0.00213934
0.00259039
0.00333676
0.00475891
0.000467775
0.00104328
0.00166579
0.0017764
0.0017315
0.00239391
0.00310081
0.00309885
0.00268437
0.00239135
0.00263555
0.00310414
0.00277387
0.00195242
0.00150204
0.00155095
0.00192256
0.00243258
0.00325082
0.00468896
0.000528272
0.00106295
0.00169417
0.00180351
0.00173218
0.00237731
0.00304718
0.00302923
0.00262728
0.00233593
0.00251162
0.00293663
0.00267181
0.00186515
0.00135987
0.00134202
0.00170339
0.00226739
0.00314896
0.00461942
0.000591132
0.00108558
0.00171869
0.00182836
0.00173052
0.00235059
0.00299288
0.00296063
0.0025685
0.00227952
0.00239357
0.00276178
0.00255612
0.00177874
0.00122882
0.00114516
0.00148498
0.00208972
0.00303303
0.00454887
0.000656226
0.00111148
0.00173973
0.00185058
0.00172704
0.00231745
0.00293341
0.00289315
0.00251022
0.00222164
0.00228247
0.0025837
0.00242516
0.00169085
0.00110754
0.000963692
0.00126683
0.00189819
0.00290414
0.00447411
0.000723357
0.00114083
0.00175784
0.00187032
0.00172235
0.00227795
0.00286578
0.00282619
0.00245314
0.00216245
0.00217794
0.00240638
0.0022801
0.00159824
0.000995403
0.000795526
0.00105322
0.00170028
0.00275934
0.0043899
0.00079207
0.0011736
0.00177345
0.00188761
0.00171629
0.00222557
0.00279053
0.00275959
0.00239862
0.00210161
0.00207752
0.00223346
0.00212291
0.00149831
0.000888386
0.000642083
0.000849548
0.00149558
0.00259886
0.00429625
0.000862405
0.0012093
0.00178636
0.0019013
0.00170747
0.00216605
0.00271192
0.00269239
0.00234632
0.00203895
0.001979
0.00206696
0.00195586
0.00138822
0.000784027
0.000502346
0.000658149
0.00128895
0.00242598
0.00419224
0.000934312
0.0012475
0.00179613
0.00191034
0.00169818
0.00210848
0.00262973
0.00262233
0.00229474
0.00197522
0.00188017
0.00190708
0.00178237
0.00126774
0.000678739
0.00037253
0.000481315
0.00108769
0.00224599
0.00407702
0.0010071
0.00128783
0.00180282
0.00191536
0.00168965
0.00205223
0.00254507
0.00254671
0.00224085
0.00191061
0.0017791
0.00175358
0.00160684
0.00113746
0.000569822
0.000249342
0.00031938
0.000896863
0.00206583
0.0039536
0.00108013
0.0013302
0.00180698
0.00191608
0.00168205
0.00199847
0.00245888
0.0024637
0.00218147
0.0018459
0.00167619
0.00160596
0.0014332
0.000998626
0.000455844
0.000129196
0.000170039
0.00071937
0.00189259
0.00382708
0.00115308
0.00137442
0.00180908
0.00191216
0.00167693
0.00194731
0.00237116
0.00237354
0.0021147
0.00178183
0.00157318
0.00146281
0.00126352
0.000852783
0.000335659
9.2805e-06
3.16672e-05
0.00055682
0.00173005
0.00370124
0.00122561
0.00142023
0.00180975
0.00190379
0.0016713
0.00189811
0.00228288
0.00227776
0.00203924
0.00171771
0.00147214
0.00132276
0.00109773
0.00070186
0.000210045
-0.000111385
-9.83e-05
0.000408061
0.00157973
0.00357926
0.00129725
0.0014673
0.00180985
0.00189134
0.00166361
0.00185039
0.00219515
0.00217797
0.00195417
0.0016522
0.00137486
0.00118447
0.000935242
0.00054858
8.08137e-05
-0.000233897
-0.000223721
0.000271504
0.00144242
0.00346287
0.00136769
0.00151528
0.00181003
0.0018728
0.00165324
0.00180367
0.0021088
0.00207635
0.00185968
0.00158262
0.00128169
0.00104776
0.000775866
0.000395044
-5.11988e-05
-0.000359112
-0.000346991
0.000144891
0.00131655
0.00335226
0.00143664
0.0015638
0.00181082
0.00185313
0.00163946
0.00175736
0.00202403
0.00197466
0.00175681
0.00150545
0.00119205
0.000914253
0.000619329
0.000242163
-0.000185127
-0.000485906
-0.000469877
2.35445e-05
0.00119876
0.0032475
0.00150387
0.00161241
0.00181258
0.00183063
0.00162187
0.00171104
0.00194043
0.001874
0.00164748
0.00141807
0.00110444
0.000785919
0.000465616
8.95136e-05
-0.000319872
-0.000612529
-0.000593734
-9.60997e-05
0.00108605
0.00314742
0.00156919
0.00166073
0.00181549
0.0018059
0.00160021
0.00166395
0.0018574
0.00177542
0.00153458
0.00131934
0.0010163
0.00066411
0.000315106
-6.33701e-05
-0.000455734
-0.000738724
-0.000717815
-0.000215265
0.000975247
0.00304933
0.0016325
0.00170826
0.00181942
0.00177974
0.00157454
0.00161554
0.00177449
0.00167895
0.0014205
0.00120961
0.000924454
0.000548468
0.00016878
-0.000215817
-0.000593037
-0.000864548
-0.000841311
-0.000335377
0.000862843
0.00295089
0.00169373
0.00175461
0.00182426
0.00175275
0.00154492
0.00156533
0.00169134
0.00158423
0.00130748
0.00109053
0.00082551
0.00043732
2.8011e-05
-0.000367207
-0.000731886
-0.000990401
-0.000965021
-0.000457036
0.000748453
0.00285119
0.00175275
0.00179937
0.00182986
0.0017255
0.00151153
0.0015128
0.00160745
0.00149038
0.00119727
0.000964672
0.000717038
0.00032861
-0.000105863
-0.000516252
-0.00087313
-0.00111765
-0.00108858
-0.000579489
0.000631885
0.00274884
0.00180958
0.0018422
0.00183582
0.00169841
0.00147471
0.00145787
0.00152286
0.00139644
0.00109056
0.000834999
0.000598109
0.000219099
-0.000233619
-0.000661812
-0.00101653
-0.00124714
-0.00121206
-0.000702452
0.00051309
0.00264335
0.00186411
0.00188288
0.00184184
0.00167188
0.00143493
0.00140007
0.00143719
0.00130152
0.000987445
0.00070488
0.000469428
0.000105139
-0.000357158
-0.000802687
-0.00116075
-0.00137965
-0.00133663
-0.000825411
0.000392932
0.00253437
0.00191622
0.00192117
0.00184751
0.00164619
0.00139284
0.00133945
0.00135038
0.0012047
0.000886703
0.000576965
0.000332559
-1.57559e-05
-0.000478449
-0.000938549
-0.00130462
-0.00151583
-0.00146352
-0.000948882
0.000272096
0.00242249
0.00196589
0.001957
0.00185244
0.00162134
0.0013489
0.00127582
0.00126251
0.00110604
0.00078703
0.000452924
0.000190248
-0.000145102
-0.000600702
-0.0010705
-0.00144724
-0.00165572
-0.00159388
-0.00107331
0.000150738
0.00230781
0.00201292
0.00199025
0.00185625
0.00159739
0.00130394
0.00120932
0.00117325
0.00100533
0.000686477
0.00033319
4.60029e-05
-0.000283011
-0.000726866
-0.00120041
-0.00158797
-0.00179809
-0.00172818
-0.00120022
2.73673e-05
0.00219009
0.0020574
0.00202098
0.00185846
0.00157395
0.00125863
0.00114034
0.00108256
0.000903032
0.000583761
0.000216678
-9.73879e-05
-0.000428237
-0.000859367
-0.0013311
-0.00172696
-0.00194181
-0.00186696
-0.00133184
-9.78073e-05
0.00206945
0.00209915
0.00204922
0.00185892
0.00155073
0.00121354
0.00106934
0.000989869
0.000799577
0.000478636
0.000101409
-0.000238367
-0.000578891
-0.000999406
-0.00146485
-0.00186543
-0.00208691
-0.0020115
-0.00146886
-0.000228498
0.00194449
0.00213804
0.00207501
0.0018575
0.00152723
0.00116904
0.000997239
0.000895079
0.000694707
0.000371171
-1.44815e-05
-0.000376673
-0.000732158
-0.00114647
-0.00160434
-0.00200593
-0.00223344
-0.00215778
-0.00161243
-0.00036567
0.00181325
0.00217396
0.00209845
0.00185434
0.00150324
0.00112524
0.000924691
0.00079813
0.000587856
0.00026182
-0.00013254
-0.000513847
-0.000885987
-0.00129934
-0.0017502
-0.00215072
-0.00238312
-0.00231231
-0.00176388
-0.000511433
0.00167326
0.00220673
0.00211962
0.00184937
0.00147831
0.00108197
0.000852773
0.000700124
0.000478723
0.000151512
-0.000252593
-0.000652158
-0.00104133
-0.00145772
-0.00190307
-0.00230218
-0.00253874
-0.00247179
-0.00192268
-0.000666512
0.00152316
0.00223621
0.00213884
0.001843
0.00145237
0.00103901
0.000781244
0.000600959
0.000366206
3.99448e-05
-0.000371777
-0.000790198
-0.00119804
-0.00162145
-0.00206427
-0.00246218
-0.00270115
-0.00263827
-0.00209074
-0.000832749
0.00136092
0.00226216
0.00215608
0.00183538
0.00142523
0.000996821
0.000711799
0.000502496
0.00024854
-7.7183e-05
-0.00049201
-0.000927198
-0.00135425
-0.00178893
-0.00223205
-0.00263028
-0.00287247
-0.00281483
-0.00227019
-0.00101143
0.00118564
0.00228462
0.00217149
0.0018271
0.00139674
0.000953514
0.000643347
0.000408203
0.000131059
-0.000200069
-0.000616597
-0.00106704
-0.00151026
-0.00195801
-0.00240464
-0.00280556
-0.00305393
-0.00300452
-0.00246581
-0.0012074
0.000992425
0.00230355
0.00218493
0.00181888
0.00136874
0.000910234
0.000572993
0.000313699
1.43157e-05
-0.000323838
-0.000740628
-0.00121196
-0.00167425
-0.00213318
-0.00258372
-0.0029883
-0.00324386
-0.00320493
-0.00267718
-0.00142668
0.000772502
0.0023181
0.00219656
0.00181083
0.00134338
0.000869774
0.000503995
0.000219676
-0.000103856
-0.000453858
-0.00085104
-0.00133098
-0.00181909
-0.00230255
-0.00276496
-0.00317546
-0.00344141
-0.00341652
-0.00290218
-0.0016595
0.000535411
0.00232332
0.00220364
0.00180034
0.00131409
0.000827129
0.000432551
0.000124351
-0.000218723
-0.000603937
-0.00102247
-0.00148549
-0.00198703
-0.0024856
-0.00295977
-0.00337781
-0.00365603
-0.00364982
-0.00315682
-0.00193433
0.000245429
0.00234295
0.00222719
0.00180513
0.00129258
0.000785099
0.000357635
1.94835e-05
-0.000322908
-0.000688291
-0.00109487
-0.00157048
-0.00209701
-0.00262423
-0.00311911
-0.00354866
-0.00383811
-0.00385344
-0.0033867
-0.0021907
-3.42531e-05
0.00230693
0.0022198
0.00181474
0.00128111
0.00075551
0.000302134
-8.71994e-05
-0.000506524
-0.000923235
-0.00132628
-0.0017835
-0.00230282
-0.00284463
-0.00336034
-0.00379527
-0.00408424
-0.00408775
-0.00361357
-0.0024164
-0.000263574
0.00237083
0.00224409
0.00178774
0.00123355
0.00069359
0.000218587
-0.000144485
-0.000463296
-0.000867851
-0.00129144
-0.00177215
-0.0023094
-0.00289392
-0.00349638
-0.00405269
-0.00446481
-0.00459509
-0.00424407
-0.00315987
-0.00110621
0.00228962
0.00224059
0.00177661
0.00130756
0.000766374
0.000122004
-0.000457489
-0.000896139
-0.00127031
-0.00163233
-0.00206164
-0.00253247
-0.00300552
-0.00340185
-0.00371327
-0.00389945
-0.00388043
-0.00348356
-0.00245834
-0.000535806
0.00241767
0.0022065
0.00176932
0.00119276
0.000613453
0.000140504
-0.000227225
-0.000503066
-0.000910787
-0.00138813
-0.00195017
-0.00260008
-0.00335555
-0.00416543
-0.0049467
-0.00559207
-0.00594588
-0.00580632
-0.00491835
-0.00304272
0.00263816
0.00211446
0.00157168
0.000984092
0.000452489
-0.000148463
-0.000676623
-0.0010571
-0.00143466
-0.00191497
-0.00237979
-0.0027598
-0.00288899
-0.00273945
-0.0022673
-0.00153143
-0.000687211
-1.86445e-05
0.000116332
-0.000614787
0.00261636
0.00214592
0.001576
0.00106343
0.000660305
0.00027488
-7.47927e-05
-0.000437781
-0.000866185
-0.00144891
-0.00217419
-0.00306333
-0.0041034
-0.00520257
-0.00624142
-0.00713827
-0.00774179
-0.00785919
-0.00722995
-0.00561172
0.00277077
0.0021067
0.00148914
0.000946568
0.000551608
4.43704e-05
-0.000513298
-0.00117335
-0.00177255
-0.00217478
-0.00256828
-0.00307042
-0.00349272
-0.00369299
-0.00359939
-0.00321064
-0.00263406
-0.0021285
-0.00206808
-0.00281325
0.00276565
0.00208537
0.00147959
0.00102995
0.000800369
0.00056535
0.000319843
-4.32428e-05
-0.00055081
-0.00133054
-0.0024202
-0.00385162
-0.00554642
-0.0073382
-0.00898748
-0.0102927
-0.0110958
-0.0112232
-0.0104646
-0.00863198
0.0207432
0.00499787
-0.000922068
-0.000381949
0.0010247
0.00189781
0.00240486
0.0027709
0.00313686
0.00351356
0.00387404
0.00430839
0.00490619
0.00553412
0.00607974
0.00659309
0.00716742
0.00778373
0.00836255
0.00895794
0.00961424
0.0102889
0.0109711
0.0117502
0.0126098
0.013454
0.0142467
0.0151202
0.0160326
0.016967
0.0179595
0.0189654
0.019962
0.0209883
0.0221137
0.0232444
0.0244113
0.0255949
0.0268404
0.0281587
0.029511
0.0309709
0.0323761
0.0338888
0.0353773
0.0369255
0.0384743
0.0399169
0.0412286
0.0424629
0.0202872
0.00505238
-0.000877893
-0.000364869
0.00103436
0.00190445
0.00240976
0.00277471
0.00313994
0.00351609
0.00387611
0.00431006
0.00490759
0.00553533
0.0060808
0.006594
0.00716821
0.00778445
0.00836321
0.00895855
0.0096148
0.0102894
0.0109716
0.0117506
0.0126101
0.0134544
0.014247
0.0151205
0.0160328
0.0169673
0.0179597
0.0189656
0.0199622
0.0209885
0.0221139
0.0232445
0.0244114
0.025595
0.0268406
0.0281589
0.0295111
0.030971
0.0323762
0.0338889
0.0353774
0.0369255
0.0384744
0.0399169
0.0412286
0.0424629
0.0198135
0.00514123
-0.00080611
-0.00034219
0.00104484
0.00191137
0.00241464
0.00277835
0.00314281
0.00351845
0.00387801
0.00431159
0.00490888
0.00553645
0.00608176
0.00659482
0.00716892
0.0077851
0.00836381
0.00895909
0.00961529
0.0102898
0.010972
0.0117509
0.0126105
0.0134547
0.0142473
0.0151207
0.0160331
0.0169675
0.0179599
0.0189658
0.0199624
0.0209887
0.022114
0.0232447
0.0244116
0.0255951
0.0268407
0.028159
0.0295112
0.0309712
0.0323763
0.033889
0.0353775
0.0369256
0.0384745
0.039917
0.0412286
0.0424629
0.0193738
0.00526088
-0.000697682
-0.000306856
0.00105891
0.00192004
0.00242051
0.00278253
0.00314604
0.00352108
0.00388012
0.00431326
0.00491029
0.00553767
0.00608279
0.00659568
0.00716966
0.00778576
0.00836441
0.00895962
0.00961578
0.0102903
0.0109724
0.0117513
0.0126108
0.013455
0.0142476
0.015121
0.0160333
0.0169677
0.0179601
0.018966
0.0199625
0.0209888
0.0221142
0.0232448
0.0244117
0.0255953
0.0268408
0.0281591
0.0295113
0.0309713
0.0323764
0.0338891
0.0353776
0.0369257
0.0384746
0.0399171
0.0412287
0.0424628
0.0189492
0.00540079
-0.000558496
-0.000258245
0.00107774
0.00193147
0.00242815
0.00278782
0.00315007
0.00352439
0.00388281
0.00431539
0.00491204
0.00553913
0.00608401
0.00659668
0.0071705
0.0077865
0.00836505
0.0089602
0.00961632
0.0102908
0.0109728
0.0117517
0.0126112
0.0134554
0.0142478
0.0151213
0.0160336
0.016968
0.0179603
0.0189662
0.0199627
0.020989
0.0221143
0.023245
0.0244119
0.0255954
0.026841
0.0281592
0.0295114
0.0309714
0.0323765
0.0338892
0.0353777
0.0369258
0.0384746
0.0399171
0.0412288
0.0424628
0.0185214
0.00554947
-0.000401903
-0.000201066
0.00110025
0.00194554
0.00243772
0.00279443
0.00315511
0.00352861
0.00388636
0.00431824
0.00491431
0.00554093
0.00608549
0.00659792
0.00717151
0.00778734
0.00836578
0.00896084
0.0096169
0.0102913
0.0109733
0.0117521
0.0126116
0.0134558
0.0142482
0.0151215
0.0160339
0.0169682
0.0179606
0.0189665
0.0199629
0.0209892
0.0221145
0.0232451
0.024412
0.0255956
0.0268411
0.0281593
0.0295116
0.0309715
0.0323766
0.0338893
0.0353778
0.0369259
0.0384747
0.0399172
0.0412289
0.0424627
0.0180861
0.00570012
-0.00023588
-0.000139204
0.00112486
0.00196156
0.00244893
0.00280224
0.00316112
0.00353379
0.00389091
0.004322
0.00491725
0.00554314
0.00608731
0.00659947
0.00717275
0.00778833
0.00836662
0.00896158
0.00961757
0.0102919
0.0109739
0.0117526
0.0126121
0.0134562
0.0142485
0.0151218
0.0160342
0.0169685
0.0179608
0.0189667
0.0199632
0.0209894
0.0221147
0.0232453
0.0244122
0.0255957
0.0268412
0.0281595
0.0295117
0.0309716
0.0323767
0.0338894
0.0353779
0.036926
0.0384748
0.0399174
0.0412291
0.0424627
0.0176453
0.00585034
-6.2956e-05
-7.424e-05
0.00115061
0.00197891
0.00246136
0.00281099
0.00316792
0.00353979
0.00389642
0.00432679
0.00492098
0.00554585
0.00608949
0.00660136
0.00717426
0.00778951
0.00836762
0.00896247
0.00961836
0.0102927
0.0109745
0.0117532
0.0126126
0.0134567
0.0142489
0.0151222
0.0160345
0.0169688
0.0179611
0.018967
0.0199634
0.0209896
0.0221149
0.0232455
0.0244123
0.0255958
0.0268414
0.0281596
0.0295118
0.0309717
0.0323769
0.0338895
0.035378
0.0369261
0.038475
0.0399175
0.0412293
0.0424626
0.0172025
0.00599966
0.000116562
-6.56907e-06
0.00117702
0.00199718
0.00247469
0.00282043
0.00317529
0.00354637
0.00390267
0.0043325
0.00492555
0.00554906
0.00609202
0.0066036
0.00717608
0.00779091
0.00836881
0.00896355
0.00961933
0.0102935
0.0109752
0.0117538
0.0126132
0.0134573
0.0142494
0.0151226
0.0160348
0.0169691
0.0179614
0.0189673
0.0199636
0.0209898
0.0221151
0.0232457
0.0244125
0.025596
0.0268415
0.0281597
0.0295119
0.0309719
0.032377
0.0338897
0.0353781
0.0369262
0.0384751
0.0399177
0.0412296
0.0424626
0.0167602
0.00614761
0.00030261
6.37239e-05
0.00120378
0.00201608
0.00248872
0.00283038
0.00318307
0.00355332
0.00390939
0.0043389
0.00493089
0.0055528
0.00609486
0.00660613
0.00717816
0.00779253
0.00837021
0.00896485
0.00962051
0.0102946
0.0109761
0.0117546
0.0126138
0.013458
0.0142499
0.015123
0.0160352
0.0169694
0.0179618
0.0189676
0.0199639
0.02099
0.0221153
0.0232459
0.0244127
0.0255962
0.0268417
0.0281599
0.0295121
0.030972
0.0323771
0.0338898
0.0353783
0.0369264
0.0384753
0.039918
0.04123
0.0424626
0.0163198
0.0062932
0.000494951
0.000136641
0.00123063
0.00203541
0.00250334
0.00284074
0.00319116
0.00356054
0.00391638
0.00434572
0.00493685
0.00555701
0.00609799
0.00660887
0.00718044
0.00779433
0.0083718
0.00896636
0.00962193
0.0102959
0.0109772
0.0117554
0.0126145
0.0134587
0.0142506
0.0151235
0.0160356
0.0169697
0.0179621
0.018968
0.0199643
0.0209903
0.0221156
0.0232462
0.024413
0.0255964
0.0268418
0.02816
0.0295122
0.0309722
0.0323773
0.03389
0.0353784
0.0369265
0.0384755
0.0399183
0.0412306
0.0424626
0.0158822
0.00643528
0.000693276
0.000212239
0.00125735
0.00205496
0.00251846
0.00285146
0.0031995
0.00356795
0.00392354
0.00435276
0.00494323
0.00556163
0.00610135
0.00661176
0.00718286
0.00779628
0.00837355
0.00896806
0.00962355
0.0102974
0.0109786
0.0117563
0.0126152
0.0134595
0.0142513
0.0151241
0.0160361
0.0169701
0.0179625
0.0189683
0.0199646
0.0209906
0.0221159
0.0232465
0.0244132
0.0255966
0.026842
0.0281602
0.0295124
0.0309723
0.0323774
0.0338901
0.0353786
0.0369267
0.0384757
0.0399187
0.0412313
0.0424627
0.0154487
0.00657277
0.000897138
0.000290598
0.00128374
0.00207449
0.00253397
0.00286247
0.00320804
0.00357555
0.00393086
0.00435993
0.00494985
0.00556657
0.00610491
0.00661479
0.00718538
0.00779832
0.00837544
0.00896989
0.00962535
0.0102992
0.0109802
0.0117573
0.0126159
0.0134602
0.0142521
0.0151248
0.0160366
0.0169705
0.0179628
0.0189687
0.019965
0.020991
0.0221162
0.0232468
0.0244136
0.0255969
0.0268422
0.0281603