/*--------------------------------*- C++ -*----------------------------------*\
| =========                 |                                                 |
| \\      /  F ield         | OpenFOAM: The Open Source CFD Toolbox           |
|  \\    /   O peration     | Version:  v2012                                 |
|   \\  /    A nd           | Website:  www.openfoam.com                      |
|    \\/     M anipulation  |                                                 |
\*---------------------------------------------------------------------------*/
FoamFile
{
    version     2.0;
    format      ascii;
    class       surfaceScalarField;
    location    "3.1";
    object      phi;
}
// * * * * * * * * * * * * * * * * * * * * * * * * * * * * * * * * * * * * * //

dimensions      [0 3 -1 0 0 0 0];
oriented        oriented;


internalField   nonuniform List<scalar> 
13830
(
9.17294e-07
-5.34939e-07
9.72193e-07
-1.11507e-06
1.01002e-06
-5.8272e-07
9.7248e-07
1.42912e-06
9.46275e-07
1.00604e-06
9.67576e-07
6.81928e-07
9.56097e-07
-2.21774e-07
9.20996e-07
-8.02241e-07
9.51473e-07
-8.96689e-07
8.85082e-07
-1.26009e-06
9.26633e-07
-1.11368e-06
9.13249e-07
-8.37834e-07
9.32343e-07
-7.53003e-07
9.38672e-07
-5.29028e-07
9.50194e-07
-5.36698e-07
9.59082e-07
-2.75835e-07
9.64679e-07
-2.65156e-07
9.69415e-07
-9.66117e-08
9.68992e-07
-6.99284e-08
1.58286e-08
9.58805e-07
9.53615e-07
-5.16022e-07
1.0079e-06
-1.16935e-06
1.04772e-06
-6.22547e-07
1.0135e-06
1.46335e-06
9.82231e-07
1.03731e-06
1.00768e-06
6.56479e-07
9.91787e-07
-2.05881e-07
9.67478e-07
-7.77931e-07
9.80454e-07
-9.09665e-07
9.31329e-07
-1.21096e-06
9.60543e-07
-1.1429e-06
9.5587e-07
-8.33161e-07
9.67166e-07
-7.643e-07
9.79099e-07
-5.4096e-07
9.84989e-07
-5.42588e-07
1.00059e-06
-2.91432e-07
9.9785e-07
-2.62419e-07
1.01171e-06
-1.10472e-07
9.98375e-07
-5.65929e-08
6.2182e-09
1.00799e-06
9.91221e-07
-4.9779e-07
1.04436e-06
-1.22249e-06
1.08448e-06
-6.62673e-07
1.05973e-06
1.4881e-06
1.02386e-06
1.07317e-06
1.04571e-06
6.34631e-07
1.03034e-06
-1.90513e-07
1.01219e-06
-7.59775e-07
1.01345e-06
-9.10927e-07
9.81815e-07
-1.17933e-06
9.93877e-07
-1.15496e-06
1.00049e-06
-8.39778e-07
1.0004e-06
-7.64207e-07
1.01921e-06
-5.59772e-07
1.01764e-06
-5.41014e-07
1.03777e-06
-3.11566e-07
1.03137e-06
-2.56014e-07
1.04575e-06
-1.24852e-07
1.03439e-06
-4.52398e-08
1.38452e-09
1.03923e-06
1.02958e-06
-4.79594e-07
1.08068e-06
-1.27359e-06
1.11975e-06
-7.01739e-07
1.10578e-06
1.50207e-06
1.07156e-06
1.1074e-06
1.08461e-06
6.21582e-07
1.07072e-06
-1.76626e-07
1.05668e-06
-7.4574e-07
1.04961e-06
-9.03855e-07
1.02935e-06
-1.15907e-06
1.02765e-06
-1.15326e-06
1.04101e-06
-8.53141e-07
1.03437e-06
-7.57564e-07
1.05463e-06
-5.8003e-07
1.05187e-06
-5.38253e-07
1.07086e-06
-3.3056e-07
1.06781e-06
-2.52961e-07
1.07915e-06
-1.36195e-07
1.0729e-06
-3.89908e-08
-4.29874e-10
1.07472e-06
1.0691e-06
-4.61142e-07
1.11632e-06
-1.3208e-06
1.15408e-06
-7.395e-07
1.14982e-06
1.50633e-06
1.1225e-06
1.13472e-06
1.12609e-06
6.17995e-07
1.11295e-06
-1.63492e-07
1.10101e-06
-7.33803e-07
1.08995e-06
-8.92785e-07
1.07506e-06
-1.14418e-06
1.06458e-06
-1.14279e-06
1.07979e-06
-8.68343e-07
1.07111e-06
-7.48887e-07
1.08947e-06
-5.98389e-07
1.08816e-06
-5.36946e-07
1.10523e-06
-3.47635e-07
1.10594e-06
-2.53671e-07
1.11586e-06
-1.46112e-07
1.11322e-06
-3.63469e-08
-1.48306e-09
1.11427e-06
1.11066e-06
-4.42957e-07
1.15144e-06
-1.36158e-06
1.18844e-06
-7.76505e-07
1.19277e-06
1.502e-06
1.17407e-06
1.15342e-06
1.17003e-06
6.2203e-07
1.15649e-06
-1.49947e-07
1.14585e-06
-7.2316e-07
1.13335e-06
-8.80286e-07
1.12004e-06
-1.13087e-06
1.1047e-06
-1.12745e-06
1.11922e-06
-8.82857e-07
1.11034e-06
-7.40005e-07
1.12613e-06
-6.14181e-07
1.12574e-06
-5.36556e-07
1.14155e-06
-3.6345e-07
1.14451e-06
-2.56625e-07
1.15434e-06
-1.5595e-07
1.15421e-06
-3.62121e-08
-3.12411e-09
1.15585e-06
1.1549e-06
-4.26156e-07
1.18682e-06
-1.3935e-06
1.22335e-06
-8.13028e-07
1.23583e-06
1.48951e-06
1.22457e-06
1.16468e-06
1.2154e-06
6.31202e-07
1.20079e-06
-1.35335e-07
1.19156e-06
-7.13937e-07
1.17862e-06
-8.67337e-07
1.16555e-06
-1.11781e-06
1.14735e-06
-1.10925e-06
1.16031e-06
-8.95819e-07
1.15132e-06
-7.31013e-07
1.16486e-06
-6.27729e-07
1.1643e-06
-5.35988e-07
1.17917e-06
-3.7832e-07
1.18321e-06
-2.60662e-07
1.19327e-06
-1.66014e-07
1.19506e-06
-3.80052e-08
-5.89552e-09
1.19783e-06
1.20192e-06
-4.11897e-07
1.22349e-06
-1.41507e-06
1.25853e-06
-8.48071e-07
1.27875e-06
1.46929e-06
1.27287e-06
1.17056e-06
1.26102e-06
6.43052e-07
1.24558e-06
-1.19898e-07
1.23831e-06
-7.06663e-07
1.2251e-06
-8.54129e-07
1.21236e-06
-1.10507e-06
1.19219e-06
-1.08907e-06
1.20331e-06
-9.06943e-07
1.19391e-06
-7.21611e-07
1.2055e-06
-6.39319e-07
1.20411e-06
-5.34605e-07
1.21798e-06
-3.92183e-07
1.22251e-06
-2.65194e-07
1.23256e-06
-1.7606e-07
1.23592e-06
-4.13726e-08
-9.76774e-09
1.23979e-06
1.25134e-06
-4.00886e-07
1.26234e-06
-1.42607e-06
1.2934e-06
-8.79128e-07
1.32006e-06
1.44263e-06
1.31836e-06
1.17227e-06
1.30628e-06
6.55124e-07
1.29096e-06
-1.04572e-07
1.28611e-06
-7.01813e-07
1.27261e-06
-8.40633e-07
1.26077e-06
-1.09323e-06
1.2392e-06
-1.06749e-06
1.24832e-06
-9.16063e-07
1.23833e-06
-7.11629e-07
1.24799e-06
-6.48972e-07
1.24555e-06
-5.32164e-07
1.25821e-06
-4.04845e-07
1.263e-06
-2.69986e-07
1.27268e-06
-1.85738e-07
1.27741e-06
-4.61045e-08
-1.45101e-08
1.28215e-06
1.30257e-06
-3.93179e-07
1.30406e-06
-1.42756e-06
1.32785e-06
-9.02921e-07
1.35864e-06
1.41184e-06
1.36126e-06
1.16965e-06
1.3514e-06
6.64983e-07
1.33727e-06
-9.04435e-08
1.33501e-06
-6.99544e-07
1.32117e-06
-8.268e-07
1.31081e-06
-1.08286e-06
1.28841e-06
-1.04509e-06
1.29546e-06
-9.23119e-07
1.28488e-06
-7.01049e-07
1.29243e-06
-6.5652e-07
1.28885e-06
-5.28582e-07
1.30003e-06
-4.16032e-07
1.30499e-06
-2.74944e-07
1.31404e-06
-1.94783e-07
1.32002e-06
-5.20904e-08
-1.99336e-08
1.32545e-06
1.35513e-06
-3.88287e-07
1.349e-06
-1.42143e-06
1.36281e-06
-9.16734e-07
1.39505e-06
1.37961e-06
1.40287e-06
1.16183e-06
1.39727e-06
6.70579e-07
1.38507e-06
-7.82406e-08
1.38512e-06
-6.99592e-07
1.37089e-06
-8.12569e-07
1.36244e-06
-1.07442e-06
1.33979e-06
-1.02244e-06
1.34488e-06
-9.28215e-07
1.33381e-06
-6.89976e-07
1.33902e-06
-6.61728e-07
1.33425e-06
-5.23809e-07
1.34356e-06
-4.25344e-07
1.34855e-06
-2.79935e-07
1.35678e-06
-2.03015e-07
1.36389e-06
-5.9201e-08
-2.59421e-08
1.3699e-06
1.4088e-06
-3.85438e-07
1.39724e-06
-1.40987e-06
1.40011e-06
-9.19603e-07
1.4316e-06
1.34811e-06
1.44519e-06
1.14824e-06
1.44503e-06
6.70737e-07
1.43488e-06
-6.8086e-08
1.43661e-06
-7.01329e-07
1.42192e-06
-7.97876e-07
1.41564e-06
-1.06814e-06
1.39326e-06
-1.00006e-06
1.39666e-06
-9.31612e-07
1.38532e-06
-6.78639e-07
1.388e-06
-6.64407e-07
1.38202e-06
-5.1783e-07
1.38895e-06
-4.32266e-07
1.39369e-06
-2.84681e-07
1.40092e-06
-2.10244e-07
1.40891e-06
-6.71906e-08
-3.24471e-08
1.41541e-06
1.46364e-06
-3.83836e-07
1.44862e-06
-1.39484e-06
1.44175e-06
-9.12733e-07
1.47134e-06
1.31852e-06
1.49023e-06
1.12935e-06
1.49558e-06
6.65381e-07
1.48707e-06
-5.95717e-08
1.48966e-06
-7.03924e-07
1.47449e-06
-7.82704e-07
1.4704e-06
-1.06404e-06
1.44871e-06
-9.78378e-07
1.45077e-06
-9.33672e-07
1.43952e-06
-6.67384e-07
1.43961e-06
-6.64498e-07
1.4325e-06
-5.10723e-07
1.4365e-06
-4.36264e-07
1.44056e-06
-2.88743e-07
1.44651e-06
-2.16195e-07
1.45494e-06
-7.5622e-08
-3.92555e-08
1.46175e-06
1.51988e-06
-3.82848e-07
1.50286e-06
-1.37781e-06
1.48907e-06
-8.9894e-07
1.51664e-06
1.29095e-06
1.53931e-06
1.10667e-06
1.54937e-06
6.55329e-07
1.54182e-06
-5.20223e-08
1.54443e-06
-7.06538e-07
1.52887e-06
-7.6714e-07
1.52672e-06
-1.06189e-06
1.50603e-06
-9.57695e-07
1.50713e-06
-9.34768e-07
1.49635e-06
-6.56604e-07
1.49394e-06
-6.62091e-07
1.48594e-06
-5.02724e-07
1.48662e-06
-4.36944e-07
1.48948e-06
-2.91602e-07
1.4938e-06
-2.2051e-07
1.50203e-06
-8.38569e-08
-4.59983e-08
1.50878e-06
1.57783e-06
-3.82069e-07
1.5597e-06
-1.35968e-06
1.5423e-06
-8.81534e-07
1.56838e-06
1.26487e-06
1.59284e-06
1.08222e-06
1.60636e-06
6.41803e-07
1.59912e-06
-4.47759e-08
1.60107e-06
-7.08496e-07
1.58532e-06
-7.51385e-07
1.58464e-06
-1.06122e-06
1.56518e-06
-9.38232e-07
1.56562e-06
-9.35205e-07
1.55568e-06
-6.46671e-07
1.55097e-06
-6.57376e-07
1.54246e-06
-4.94215e-07
1.53971e-06
-4.34197e-07
1.5409e-06
-2.92786e-07
1.54322e-06
-2.22828e-07
1.5505e-06
-9.11446e-08
-5.21389e-08
1.55664e-06
1.63777e-06
-3.81298e-07
1.61897e-06
-1.34088e-06
1.60069e-06
-8.63259e-07
1.62604e-06
1.23952e-06
1.65046e-06
1.0578e-06
1.6663e-06
6.2596e-07
1.65888e-06
-3.73577e-08
1.65976e-06
-7.09378e-07
1.6441e-06
-7.35718e-07
1.64426e-06
-1.06138e-06
1.62619e-06
-9.20162e-07
1.62613e-06
-9.35145e-07
1.61735e-06
-6.37899e-07
1.61056e-06
-6.50579e-07
1.60198e-06
-4.85633e-07
1.59601e-06
-4.28235e-07
1.59524e-06
-2.92017e-07
1.5953e-06
-2.22882e-07
1.60094e-06
-9.67864e-08
-5.7077e-08
1.60588e-06
1.69991e-06
-3.8046e-07
1.68061e-06
-1.32158e-06
1.66311e-06
-8.45763e-07
1.68834e-06
1.21429e-06
1.71153e-06
1.03462e-06
1.72887e-06
6.08618e-07
1.72103e-06
-2.95201e-08
1.72068e-06
-7.09023e-07
1.70539e-06
-7.20428e-07
1.7057e-06
-1.06168e-06
1.68916e-06
-9.03624e-07
1.68857e-06
-9.34562e-07
1.68123e-06
-6.30553e-07
1.67258e-06
-6.41931e-07
1.66432e-06
-4.77372e-07
1.6556e-06
-4.19521e-07
1.65285e-06
-2.89268e-07
1.65057e-06
-2.20594e-07
1.65409e-06
-1.00305e-07
-6.03051e-08
1.65731e-06
1.76439e-06
-3.7953e-07
1.74468e-06
-1.30187e-06
1.72855e-06
-8.29634e-07
1.75409e-06
1.18876e-06
1.7755e-06
1.0132e-06
1.79388e-06
5.90237e-07
1.78557e-06
-2.12025e-08
1.78401e-06
-7.0747e-07
1.76935e-06
-7.05763e-07
1.76917e-06
-1.0615e-06
1.75426e-06
-8.88713e-07
1.75292e-06
-9.33222e-07
1.74722e-06
-6.24852e-07
1.73697e-06
-6.31683e-07
1.72931e-06
-4.69714e-07
1.71845e-06
-4.08664e-07
1.71391e-06
-2.84728e-07
1.70943e-06
-2.16115e-07
1.71066e-06
-1.01533e-07
-6.15508e-08
1.71191e-06
1.83129e-06
-3.78488e-07
1.8113e-06
-1.28188e-06
1.79644e-06
-8.14771e-07
1.82251e-06
1.16269e-06
1.84208e-06
9.93626e-07
1.86129e-06
5.71034e-07
1.85256e-06
-1.24758e-08
1.84996e-06
-7.04868e-07
1.83611e-06
-6.91919e-07
1.83491e-06
-1.0603e-06
1.82167e-06
-8.75479e-07
1.81915e-06
-9.30702e-07
1.81524e-06
-6.20941e-07
1.8037e-06
-6.2014e-07
1.7968e-06
-4.62817e-07
1.78447e-06
-3.96333e-07
1.77845e-06
-2.7871e-07
1.77214e-06
-2.09802e-07
1.77121e-06
-1.00601e-07
-6.08285e-08
1.77049e-06
1.90071e-06
-3.77299e-07
1.88059e-06
-1.26176e-06
1.86659e-06
-8.00772e-07
1.89333e-06
1.13595e-06
1.91121e-06
9.75744e-07
1.93112e-06
5.51122e-07
1.92215e-06
-3.50867e-09
1.91868e-06
-7.01393e-07
1.90581e-06
-6.79053e-07
1.90314e-06
-1.05763e-06
1.8916e-06
-8.63939e-07
1.88736e-06
-9.26455e-07
1.8853e-06
-6.18883e-07
1.87277e-06
-6.07617e-07
1.86668e-06
-4.56717e-07
1.85355e-06
-3.83206e-07
1.8464e-06
-2.71563e-07
1.83873e-06
-2.02133e-07
1.836e-06
-9.78638e-08
-5.8394e-08
1.83356e-06
1.97273e-06
-3.75925e-07
1.95263e-06
-1.24166e-06
1.93905e-06
-7.87184e-07
1.96656e-06
1.10843e-06
1.98294e-06
9.59362e-07
2.00346e-06
5.30606e-07
1.9945e-06
5.44494e-09
1.99031e-06
-6.97198e-07
1.97857e-06
-6.67311e-07
1.97407e-06
-1.05313e-06
1.96421e-06
-8.54073e-07
1.95772e-06
-9.1997e-07
1.95742e-06
-6.18585e-07
1.94422e-06
-5.94409e-07
1.93884e-06
-4.51342e-07
1.92556e-06
-3.69921e-07
1.91761e-06
-2.6362e-07
1.9091e-06
-1.9362e-07
1.90503e-06
-9.37982e-08
-5.46484e-08
1.90129e-06
2.04745e-06
-3.74326e-07
2.02754e-06
-1.22175e-06
2.01395e-06
-7.73599e-07
2.04233e-06
1.08006e-06
2.05739e-06
9.44302e-07
2.07838e-06
5.09613e-07
2.06977e-06
1.40557e-08
2.06495e-06
-6.92379e-07
2.05448e-06
-6.56844e-07
2.04783e-06
-1.04647e-06
2.03956e-06
-8.45805e-07
2.03051e-06
-9.10921e-07
2.03168e-06
-6.19762e-07
2.01805e-06
-5.80779e-07
2.01324e-06
-4.46526e-07
2.00034e-06
-3.5702e-07
1.9919e-06
-2.5518e-07
1.98302e-06
-1.84742e-07
1.97812e-06
-8.8895e-08
-5.00551e-08
1.97352e-06
2.12498e-06
-3.72465e-07
2.10538e-06
-1.20215e-06
2.09145e-06
-7.59667e-07
2.12075e-06
1.05075e-06
2.13466e-06
9.30399e-07
2.15597e-06
4.883e-07
2.14808e-06
2.19407e-08
2.14267e-06
-6.86963e-07
2.13365e-06
-6.47827e-07
2.12448e-06
-1.03731e-06
2.1177e-06
-8.39021e-07
2.10595e-06
-8.9917e-07
2.10819e-06
-6.22001e-07
2.09435e-06
-5.66945e-07
2.08984e-06
-4.42015e-07
2.07775e-06
-3.44928e-07
2.06908e-06
-2.46512e-07
2.06021e-06
-1.75874e-07
2.05494e-06
-8.36193e-08
-4.50559e-08
2.04994e-06
2.20543e-06
-3.70308e-07
2.18626e-06
-1.18298e-06
2.17169e-06
-7.45097e-07
2.20194e-06
1.0205e-06
2.21487e-06
9.17474e-07
2.23633e-06
4.66837e-07
2.22957e-06
2.86997e-08
2.22351e-06
-6.80899e-07
2.21612e-06
-6.40438e-07
2.20416e-06
-1.02535e-06
2.19871e-06
-8.33561e-07
2.18428e-06
-8.84746e-07
2.18708e-06
-6.24804e-07
2.17322e-06
-5.53083e-07
2.1687e-06
-4.37487e-07
2.15767e-06
-3.33905e-07
2.149e-06
-2.37839e-07
2.14042e-06
-1.67292e-07
2.13516e-06
-7.83572e-08
-4.00395e-08
2.13014e-06
2.28891e-06
-3.67822e-07
2.27027e-06
-1.16435e-06
2.25483e-06
-7.29658e-07
2.286e-06
9.89326e-07
2.29816e-06
9.05315e-07
2.31961e-06
4.45392e-07
2.31435e-06
3.39557e-08
2.3075e-06
-6.74045e-07
2.30187e-06
-6.34804e-07
2.28707e-06
-1.01056e-06
2.28265e-06
-8.29135e-07
2.26573e-06
-8.67834e-07
2.26857e-06
-6.27638e-07
2.25482e-06
-5.39332e-07
2.24994e-06
-4.32612e-07
2.24006e-06
-3.24025e-07
2.23156e-06
-2.29337e-07
2.22342e-06
-1.59148e-07
2.21846e-06
-7.34027e-08
-3.53192e-08
2.21374e-06
2.37554e-06
-3.64974e-07
2.35753e-06
-1.14634e-06
2.34105e-06
-7.13181e-07
2.37304e-06
9.57332e-07
2.3847e-06
8.93657e-07
2.40598e-06
4.24112e-07
2.40255e-06
3.73905e-08
2.39469e-06
-6.66186e-07
2.39085e-06
-6.30964e-07
2.37334e-06
-9.93049e-07
2.36959e-06
-8.2539e-07
2.35052e-06
-8.48757e-07
2.35287e-06
-6.29991e-07
2.33932e-06
-5.25784e-07
2.33382e-06
-4.27114e-07
2.32497e-06
-3.15173e-07
2.31671e-06
-2.2108e-07
2.30909e-06
-1.51529e-07
2.30466e-06
-6.89695e-08
-3.11034e-08
2.30045e-06
2.46543e-06
-3.61729e-07
2.44811e-06
-1.12902e-06
2.43049e-06
-6.95559e-07
2.46317e-06
9.24651e-07
2.47465e-06
8.82183e-07
2.49564e-06
4.03117e-07
2.49427e-06
3.87644e-08
2.48521e-06
-6.57122e-07
2.48304e-06
-6.28799e-07
2.46307e-06
-9.73076e-07
2.45964e-06
-8.21963e-07
2.43881e-06
-8.27926e-07
2.44024e-06
-6.31425e-07
2.42694e-06
-5.12483e-07
2.42066e-06
-4.2083e-07
2.41254e-06
-3.0706e-07
2.40405e-06
-2.12591e-07
2.39753e-06
-1.45004e-07
2.39374e-06
-6.5176e-08
-2.7494e-08
2.39013e-06
2.55873e-06
-3.58059e-07
2.54212e-06
-1.11241e-06
2.52331e-06
-6.76742e-07
2.55652e-06
8.91443e-07
2.56817e-06
8.70525e-07
2.58879e-06
3.82496e-07
2.58964e-06
3.79151e-08
2.57919e-06
-6.46672e-07
2.57848e-06
-6.28089e-07
2.55637e-06
-9.50968e-07
2.5529e-06
-8.18484e-07
2.53078e-06
-8.05814e-07
2.53093e-06
-6.31575e-07
2.51793e-06
-4.99475e-07
2.51076e-06
-4.13665e-07
2.503e-06
-2.99303e-07
2.4983e-06
-2.07886e-07
2.49085e-06
-1.37556e-07
2.48578e-06
-6.01045e-08
-2.4504e-08
2.48279e-06
2.65557e-06
-3.53945e-07
2.63964e-06
-1.09648e-06
2.61964e-06
-6.56739e-07
2.65321e-06
8.57866e-07
2.66545e-06
8.58288e-07
2.68561e-06
3.62331e-07
2.68877e-06
3.47545e-08
2.6768e-06
-6.34693e-07
2.67724e-06
-6.28532e-07
2.65341e-06
-9.27139e-07
2.64946e-06
-8.14539e-07
2.62666e-06
-7.83012e-07
2.62511e-06
-6.3002e-07
2.6126e-06
-4.86962e-07
2.60466e-06
-4.05727e-07
2.59567e-06
-2.90317e-07
2.58802e-06
-2.00235e-07
2.58245e-06
-1.31982e-07
2.58099e-06
-5.86496e-08
-2.21184e-08
2.57861e-06
2.75609e-06
-3.49377e-07
2.74074e-06
-1.08114e-06
2.71961e-06
-6.35612e-07
2.75342e-06
8.24057e-07
2.76663e-06
8.4508e-07
2.78626e-06
3.42708e-07
2.7917e-06
2.93105e-08
2.77815e-06
-6.21142e-07
2.77939e-06
-6.29772e-07
2.75434e-06
-9.02095e-07
2.74944e-06
-8.09633e-07
2.72673e-06
-7.60306e-07
2.72286e-06
-6.26144e-07
2.71148e-06
-4.75582e-07
2.70189e-06
-3.96138e-07
2.69265e-06
-2.81084e-07
2.68421e-06
-1.9179e-07
2.67842e-06
-1.26189e-07
2.6799e-06
-6.0131e-08
-1.99979e-08
2.67778e-06
2.86044e-06
-3.4436e-07
2.84553e-06
-1.06622e-06
2.8234e-06
-6.13483e-07
2.85733e-06
7.90123e-07
2.87188e-06
8.30535e-07
2.89083e-06
3.23753e-07
2.89847e-06
2.16731e-08
2.88336e-06
-6.06034e-07
2.88507e-06
-6.31485e-07
2.85932e-06
-8.76343e-07
2.85299e-06
-8.03306e-07
2.83118e-06
-7.38494e-07
2.82438e-06
-6.19345e-07
2.81501e-06
-4.66205e-07
2.80382e-06
-3.84952e-07
2.80184e-06
-2.79108e-07
2.7999e-06
-1.89843e-07
2.79482e-06
-1.21114e-07
2.78304e-06
-4.83475e-08
-1.73974e-08
2.78044e-06
2.96879e-06
-3.38904e-07
2.95411e-06
-1.05155e-06
2.93115e-06
-5.90518e-07
2.96513e-06
7.56148e-07
2.98132e-06
8.14344e-07
2.99943e-06
3.05639e-07
3.00911e-06
1.199e-08
2.99256e-06
-5.89485e-07
2.99443e-06
-6.33349e-07
2.96842e-06
-8.50333e-07
2.96046e-06
-7.95344e-07
2.93996e-06
-7.17997e-07
2.93027e-06
-6.09659e-07
2.92316e-06
-4.59094e-07
2.91268e-06
-3.74467e-07
2.90466e-06
-2.71087e-07
2.89111e-06
-1.763e-07
2.88447e-06
-1.14469e-07
2.88902e-06
-5.29039e-08
-1.57719e-08
2.8874e-06
3.08128e-06
-3.33025e-07
3.06665e-06
-1.03692e-06
3.04305e-06
-5.66918e-07
3.07699e-06
7.2221e-07
3.09508e-06
7.9625e-07
3.11214e-06
2.88587e-07
3.12369e-06
4.32574e-10
3.10587e-06
-5.71662e-07
3.10764e-06
-6.3512e-07
3.08169e-06
-8.24378e-07
3.07219e-06
-7.85848e-07
3.05263e-06
-6.98442e-07
3.04156e-06
-5.98588e-07
3.03414e-06
-4.51673e-07
3.02333e-06
-3.63655e-07
3.02326e-06
-2.71018e-07
3.02067e-06
-1.73706e-07
3.01513e-06
-1.08929e-07
3.00045e-06
-3.82274e-08
-1.34069e-08
2.99809e-06
3.19808e-06
-3.26741e-07
3.18331e-06
-1.02216e-06
3.1593e-06
-5.42909e-07
3.19308e-06
6.8844e-07
3.21333e-06
7.75993e-07
3.22902e-06
2.72901e-07
3.24233e-06
-1.28817e-08
3.2234e-06
-5.52733e-07
3.2249e-06
-6.36619e-07
3.1991e-06
-7.9857e-07
3.18879e-06
-7.7554e-07
3.16806e-06
-6.77713e-07
3.15903e-06
-5.89558e-07
3.14874e-06
-4.41382e-07
3.13954e-06
-3.54458e-07
3.1223e-06
-2.53778e-07
3.11395e-06
-1.65352e-07
3.10947e-06
-1.04451e-07
3.11407e-06
-4.28239e-08
-1.32276e-08
3.11389e-06
3.31933e-06
-3.20062e-07
3.30431e-06
-1.00714e-06
3.2801e-06
-5.18692e-07
3.31356e-06
6.54974e-07
3.33609e-06
7.53462e-07
3.35036e-06
2.58638e-07
3.36502e-06
-2.75481e-08
3.34549e-06
-5.332e-07
3.34611e-06
-6.37239e-07
3.32154e-06
-7.73997e-07
3.30939e-06
-7.63394e-07
3.28945e-06
-6.5777e-07
3.27917e-06
-5.79285e-07
3.26259e-06
-4.24799e-07
3.24932e-06
-3.41191e-07
3.23989e-06
-2.44342e-07
3.23232e-06
-1.57781e-07
3.22806e-06
-1.00197e-07
3.23384e-06
-4.86071e-08
-1.31994e-08
3.23382e-06
3.44523e-06
-3.13006e-07
3.42987e-06
-9.91783e-07
3.40564e-06
-4.9446e-07
3.43859e-06
6.22026e-07
3.46351e-06
7.28544e-07
3.47632e-06
2.45824e-07
3.49192e-06
-4.31464e-08
3.47236e-06
-5.13645e-07
3.47136e-06
-6.36231e-07
3.44944e-06
-7.52082e-07
3.43377e-06
-7.47722e-07
3.41713e-06
-6.41129e-07
3.4018e-06
-5.63955e-07
3.39971e-06
-4.22708e-07
3.3906e-06
-3.32085e-07
3.3888e-06
-2.42543e-07
3.38563e-06
-1.5461e-07
3.37998e-06
-9.45419e-08
3.36068e-06
-2.93075e-08
-1.02608e-08
3.35774e-06
3.57593e-06
-3.0559e-07
3.56019e-06
-9.76039e-07
3.53618e-06
-4.70459e-07
3.56825e-06
5.8996e-07
3.59579e-06
7.01004e-07
3.60691e-06
2.34707e-07
3.6235e-06
-5.9743e-08
3.60372e-06
-4.93863e-07
3.60177e-06
-6.34273e-07
3.58013e-06
-7.3045e-07
3.56563e-06
-7.33218e-07
3.5464e-06
-6.21896e-07
3.53528e-06
-5.52841e-07
3.52253e-06
-4.09961e-07
3.50514e-06
-3.14693e-07
3.49126e-06
-2.28665e-07
3.48425e-06
-1.47595e-07
3.48145e-06
-9.17393e-08
3.48782e-06
-3.56835e-08
-1.06043e-08
3.48817e-06
3.71161e-06
-2.97812e-07
3.69551e-06
-9.59946e-07
3.67188e-06
-4.46821e-07
3.70289e-06
5.58947e-07
3.7328e-06
6.71096e-07
3.74273e-06
2.24773e-07
3.75949e-06
-7.65051e-08
3.74042e-06
-4.7479e-07
3.73646e-06
-6.30311e-07
3.71663e-06
-7.10623e-07
3.70128e-06
-7.17871e-07
3.68116e-06
-6.01772e-07
3.6708e-06
-5.42481e-07
3.65006e-06
-3.89224e-07
3.63766e-06
-3.02296e-07
3.62501e-06
-2.16012e-07
3.61773e-06
-1.40317e-07
3.61498e-06
-8.89903e-08
3.6228e-06
-4.3501e-08
-1.06967e-08
3.62289e-06
3.85246e-06
-2.89686e-07
3.83606e-06
-9.43542e-07
3.81294e-06
-4.23699e-07
3.84274e-06
5.29148e-07
3.87466e-06
6.39173e-07
3.88399e-06
2.15438e-07
3.90001e-06
-9.25207e-08
3.88293e-06
-4.57706e-07
3.87516e-06
-6.22545e-07
3.85926e-06
-6.94726e-07
3.83874e-06
-6.97346e-07
3.82516e-06
-5.88194e-07
3.80246e-06
-5.19781e-07
3.80897e-06
-3.95734e-07
3.80161e-06
-2.94934e-07
3.79992e-06
-2.14319e-07
3.79653e-06
-1.36932e-07
3.78975e-06
-8.22143e-08
3.76688e-06
-2.06293e-08
-5.47612e-09
3.76166e-06
3.9987e-06
-2.81237e-07
3.98198e-06
-9.26813e-07
3.9597e-06
-4.01421e-07
3.98779e-06
5.01055e-07
4.02198e-06
6.0498e-07
4.03021e-06
2.07207e-07
4.04642e-06
-1.08722e-07
4.02916e-06
-4.40456e-07
4.02231e-06
-6.1569e-07
4.00183e-06
-6.74248e-07
3.98866e-06
-6.84179e-07
3.9658e-06
-5.65334e-07
3.95905e-06
-5.13027e-07
3.93447e-06
-3.71152e-07
3.92061e-06
-2.81073e-07
3.90873e-06
-2.02442e-07
3.90231e-06
-1.30512e-07
3.90034e-06
-8.02449e-08
3.90835e-06
-2.86366e-08
-5.65869e-09
3.90853e-06
4.1505e-06
-2.72453e-07
4.13354e-06
-9.09857e-07
4.11218e-06
-3.80055e-07
4.13872e-06
4.74508e-07
4.17417e-06
5.69535e-07
4.18274e-06
1.98636e-07
4.1972e-06
-1.2318e-07
4.18238e-06
-4.25634e-07
4.17265e-06
-6.05966e-07
4.15315e-06
-6.54744e-07
4.13976e-06
-6.70788e-07
4.11295e-06
-5.38528e-07
4.09668e-06
-4.96751e-07
4.08203e-06
-3.56501e-07
4.07112e-06
-2.70172e-07
4.05959e-06
-1.90904e-07
4.05283e-06
-1.23759e-07
4.05033e-06
-7.77368e-08
4.05986e-06
-3.81677e-08
-5.51453e-09
4.05971e-06
4.3081e-06
-2.63361e-07
4.29094e-06
-8.927e-07
4.27061e-06
-3.5973e-07
4.29571e-06
4.49414e-07
4.33157e-06
5.33674e-07
4.34185e-06
1.88357e-07
4.35178e-06
-1.3311e-07
4.3437e-06
-4.17554e-07
4.32528e-06
-5.8755e-07
4.31557e-06
-6.45027e-07
4.28677e-06
-6.41994e-07
4.27886e-06
-5.30616e-07
4.25557e-06
-4.73464e-07
4.26571e-06
-3.66643e-07
4.26149e-06
-2.65949e-07
4.26248e-06
-1.91893e-07
4.25842e-06
-1.19698e-07
4.24905e-06
-6.83699e-08
4.22295e-06
-1.2063e-08
2.55722e-09
4.21488e-06
4.47173e-06
-2.54007e-07
4.45427e-06
-8.75239e-07
4.43541e-06
-3.4087e-07
4.45853e-06
4.26294e-07
4.49546e-06
4.96747e-07
4.5055e-06
1.78315e-07
4.51555e-06
-1.43156e-07
4.50573e-06
-4.07741e-07
4.48993e-06
-5.71752e-07
4.47424e-06
-6.29335e-07
4.45082e-06
-6.18568e-07
4.43189e-06
-5.11692e-07
4.41397e-06
-4.55538e-07
4.40036e-06
-3.5304e-07
4.38913e-06
-2.54718e-07
4.38076e-06
-1.83519e-07
4.37163e-06
-1.10572e-07
4.37066e-06
-6.7393e-08
4.37945e-06
-2.08608e-08
2.23446e-09
4.37978e-06
4.64158e-06
-2.44378e-07
4.62392e-06
-8.57581e-07
4.60636e-06
-3.23308e-07
4.62809e-06
4.0456e-07
4.66489e-06
4.59955e-07
4.67583e-06
1.67373e-07
4.68518e-06
-1.52506e-07
4.67364e-06
-3.96209e-07
4.66121e-06
-5.59316e-07
4.63913e-06
-6.07253e-07
4.62228e-06
-6.01718e-07
4.59897e-06
-4.88386e-07
4.58242e-06
-4.38986e-07
4.56817e-06
-3.38789e-07
4.55912e-06
-2.45673e-07
4.54936e-06
-1.73756e-07
4.54637e-06
-1.07584e-07
4.54376e-06
-6.47808e-08
4.54774e-06
-2.48412e-08
6.12869e-10
4.54936e-06
4.81794e-06
-2.34531e-07
4.80002e-06
-8.39659e-07
4.78379e-06
-3.0708e-07
4.80448e-06
3.83873e-07
4.84018e-06
4.2425e-07
4.85333e-06
1.54228e-07
4.85983e-06
-1.59005e-07
4.84971e-06
-3.86093e-07
4.8351e-06
-5.44709e-07
4.81485e-06
-5.86999e-07
4.79523e-06
-5.82099e-07
4.77438e-06
-4.67534e-07
4.75637e-06
-4.20975e-07
4.7437e-06
-3.26116e-07
4.73462e-06
-2.36596e-07
4.72651e-06
-1.65647e-07
4.72489e-06
-1.05963e-07
4.72508e-06
-6.49699e-08
4.72359e-06
-2.33556e-08
-8.38177e-10
4.72504e-06
5.00105e-06
-2.24515e-07
4.98278e-06
-8.2138e-07
4.96801e-06
-2.92311e-07
4.98773e-06
3.64147e-07
5.02216e-06
3.89825e-07
5.03709e-06
1.39294e-07
5.04185e-06
-1.63759e-07
5.03183e-06
-3.76077e-07
5.01588e-06
-5.28763e-07
4.99649e-06
-5.67609e-07
4.97593e-06
-5.61541e-07
4.95656e-06
-4.48155e-07
4.93773e-06
-4.02147e-07
4.92594e-06
-3.14327e-07
4.9171e-06
-2.27756e-07
4.90965e-06
-1.58198e-07
4.90449e-06
-1.00805e-07
4.90044e-06
-6.09186e-08
4.90514e-06
-2.80536e-08
-3.53145e-09
4.90783e-06
5.19115e-06
-2.14353e-07
5.17257e-06
-8.02801e-07
5.15902e-06
-2.78756e-07
5.17839e-06
3.4477e-07
5.21057e-06
3.57644e-07
5.22776e-06
1.22107e-07
5.23067e-06
-1.66664e-07
5.22097e-06
-3.66384e-07
5.20352e-06
-5.11313e-07
5.18461e-06
-5.48696e-07
5.16384e-06
-5.40774e-07
5.14572e-06
-4.3003e-07
5.12652e-06
-3.8295e-07
5.11498e-06
-3.02788e-07
5.10615e-06
-2.18929e-07
5.0999e-06
-1.51941e-07
5.09704e-06
-9.79486e-08
5.09837e-06
-6.22526e-08
5.09535e-06
-2.5026e-08
-5.20467e-09
5.09702e-06
5.38853e-06
-2.04103e-07
5.36959e-06
-7.83859e-07
5.35723e-06
-2.66399e-07
5.37652e-06
3.25478e-07
5.4062e-06
3.27962e-07
5.42472e-06
1.03587e-07
5.42692e-06
-1.68865e-07
5.41687e-06
-3.56332e-07
5.39865e-06
-4.93092e-07
5.37966e-06
-5.29701e-07
5.35939e-06
-5.20509e-07
5.34179e-06
-4.12426e-07
5.32299e-06
-3.64156e-07
5.31108e-06
-2.90875e-07
5.30302e-06
-2.10868e-07
5.29671e-06
-1.45635e-07
5.29141e-06
-9.26477e-08
5.28754e-06
-5.83766e-08
5.29119e-06
-2.86762e-08
-7.99002e-09
5.29397e-06
5.59344e-06
-1.93805e-07
5.57415e-06
-7.64573e-07
5.56289e-06
-2.55133e-07
5.58247e-06
3.05895e-07
5.60956e-06
3.00875e-07
5.62847e-06
8.46757e-08
5.63036e-06
-1.7075e-07
5.6202e-06
-3.46172e-07
5.60158e-06
-4.74474e-07
5.58229e-06
-5.10418e-07
5.56242e-06
-5.00638e-07
5.54538e-06
-3.95383e-07
5.52717e-06
-3.45942e-07
5.51489e-06
-2.78598e-07
5.50706e-06
-2.03033e-07
5.50123e-06
-1.39806e-07
5.49677e-06
-8.81925e-08
5.49468e-06
-5.62864e-08
5.49569e-06
-2.96835e-08
-1.04411e-08
5.49814e-06
5.80619e-06
-1.83515e-07
5.78656e-06
-7.44941e-07
5.77628e-06
-2.4485e-07
5.79647e-06
2.85699e-07
5.8212e-06
2.76145e-07
5.83931e-06
6.65683e-08
5.84102e-06
-1.72457e-07
5.8313e-06
-3.36457e-07
5.81245e-06
-4.55625e-07
5.79278e-06
-4.90747e-07
5.77327e-06
-4.81124e-07
5.75684e-06
-3.78959e-07
5.73909e-06
-3.28185e-07
5.72667e-06
-2.66185e-07
5.71867e-06
-1.95031e-07
5.71396e-06
-1.351e-07
5.71084e-06
-8.50703e-08
5.71105e-06
-5.64907e-08
5.70839e-06
-2.70238e-08
-1.18737e-08
5.70982e-06
6.02708e-06
-1.73294e-07
6.00704e-06
-7.24906e-07
5.9978e-06
-2.35607e-07
6.01828e-06
2.65221e-07
6.0416e-06
2.52827e-07
6.05721e-06
5.09567e-08
6.05956e-06
-1.74808e-07
6.0501e-06
-3.27e-07
6.03162e-06
-4.37147e-07
6.01136e-06
-4.70489e-07
5.99232e-06
-4.62077e-07
5.97628e-06
-3.62925e-07
5.95916e-06
-3.1106e-07
5.94674e-06
-2.53766e-07
5.93884e-06
-1.87132e-07
5.93435e-06
-1.30606e-07
5.92925e-06
-7.99737e-08
5.92552e-06
-5.27583e-08
5.92799e-06
-2.94955e-08
-1.40715e-08
5.93019e-06
6.2564e-06
-1.63191e-07
6.23596e-06
-7.04471e-07
6.22773e-06
-2.27373e-07
6.24821e-06
2.44735e-07
6.27054e-06
2.30505e-07
6.28407e-06
3.74182e-08
6.28617e-06
-1.76903e-07
6.27713e-06
-3.17956e-07
6.25919e-06
-4.19214e-07
6.23853e-06
-4.49824e-07
6.21967e-06
-4.43216e-07
6.20421e-06
-3.47467e-07
6.18767e-06
-2.94522e-07
6.17547e-06
-2.41567e-07
6.16713e-06
-1.78797e-07
6.16299e-06
-1.26465e-07
6.16088e-06
-7.78554e-08
6.16072e-06
-5.2601e-08
6.15746e-06
-2.62397e-08
-1.50596e-08
6.15845e-06
6.49449e-06
-1.53277e-07
6.47357e-06
-6.83548e-07
6.46641e-06
-2.20214e-07
6.4866e-06
2.24547e-07
6.50847e-06
2.08633e-07
6.5202e-06
2.56855e-08
6.52163e-06
-1.78328e-07
6.51273e-06
-3.0906e-07
6.49539e-06
-4.01873e-07
6.47455e-06
-4.28981e-07
6.45575e-06
-4.24423e-07
6.44094e-06
-3.32659e-07
6.42486e-06
-2.78436e-07
6.4129e-06
-2.29607e-07
6.40454e-06
-1.70433e-07
6.40057e-06
-1.22496e-07
6.39638e-06
-7.3671e-08
6.39294e-06
-4.91608e-08
6.39463e-06
-2.79316e-08
-1.63597e-08
6.39593e-06
6.74166e-06
-1.43598e-07
6.72019e-06
-6.62076e-07
6.7142e-06
-2.14221e-07
6.73391e-06
2.04831e-07
6.75554e-06
1.8701e-07
6.76592e-06
1.53038e-08
6.76638e-06
-1.78793e-07
6.75726e-06
-2.99937e-07
6.74052e-06
-3.8513e-07
6.71978e-06
-4.08248e-07
6.70085e-06
-4.05488e-07
6.68677e-06
-3.1858e-07
6.67113e-06
-2.628e-07
6.65959e-06
-2.18067e-07
6.65099e-06
-1.61834e-07
6.64691e-06
-1.18412e-07
6.64536e-06
-7.21254e-08
6.64508e-06
-4.8879e-08
6.64204e-06
-2.48945e-08
-1.62746e-08
6.64196e-06
6.99827e-06
-1.34223e-07
6.97616e-06
-6.3996e-07
6.97142e-06
-2.09478e-07
6.99054e-06
1.85702e-07
7.01215e-06
1.65403e-07
7.02143e-06
6.0237e-09
7.02079e-06
-1.7815e-07
7.01121e-06
-2.9036e-07
6.99488e-06
-3.68798e-07
6.97449e-06
-3.87861e-07
6.95538e-06
-3.86374e-07
6.94204e-06
-3.05243e-07
6.9269e-06
-2.47658e-07
6.91555e-06
-2.06717e-07
6.90717e-06
-1.53456e-07
6.9029e-06
-1.14141e-07
6.89987e-06
-6.9093e-08
6.89692e-06
-4.59269e-08
6.89794e-06
-2.59132e-08
-1.63949e-08
6.89806e-06
7.26466e-06
-1.2519e-07
7.24184e-06
-6.1714e-07
7.23841e-06
-2.06055e-07
7.25699e-06
1.67122e-07
7.27892e-06
1.43482e-07
7.28709e-06
-2.14868e-09
7.28524e-06
-1.76302e-07
7.27489e-06
-2.80014e-07
7.25884e-06
-3.52744e-07
7.23905e-06
-3.68071e-07
7.21973e-06
-3.67052e-07
7.20702e-06
-2.92533e-07
7.19249e-06
-2.33132e-07
7.18136e-06
-1.95589e-07
7.17316e-06
-1.45251e-07
7.16849e-06
-1.09475e-07
7.16703e-06
-6.76327e-08
7.16647e-06
-4.53596e-08
7.16442e-06
-2.38714e-08
-1.55576e-08
7.16359e-06
7.54118e-06
-1.16541e-07
7.5177e-06
-5.93658e-07
7.51543e-06
-2.03789e-07
7.53365e-06
1.48904e-07
7.55531e-06
1.21823e-07
7.56349e-06
-1.03286e-08
7.56002e-06
-1.7283e-07
7.54879e-06
-2.68792e-07
7.53282e-06
-3.3677e-07
7.51378e-06
-3.4903e-07
7.49432e-06
-3.47595e-07
7.48206e-06
-2.80266e-07
7.46838e-06
-2.19455e-07
7.45725e-06
-1.84455e-07
7.44945e-06
-1.37459e-07
7.44452e-06
-1.04545e-07
7.44238e-06
-6.54867e-08
7.44008e-06
-4.30599e-08
7.44042e-06
-2.42166e-08
-1.48339e-08
7.4397e-06
7.82821e-06
-1.08294e-07
7.80413e-06
-5.69581e-07
7.80282e-06
-2.02477e-07
7.82082e-06
1.30907e-07
7.84181e-06
1.00824e-07
7.85115e-06
-1.96671e-08
7.84544e-06
-1.67113e-07
7.8332e-06
-2.56557e-07
7.81725e-06
-3.20815e-07
7.79902e-06
-3.30803e-07
7.7796e-06
-3.28175e-07
7.76747e-06
-2.6814e-07
7.75481e-06
-2.06791e-07
7.74371e-06
-1.73359e-07
7.73632e-06
-1.30065e-07
7.73097e-06
-9.91996e-08
7.72932e-06
-6.38352e-08
7.7279e-06
-4.16355e-08
7.72725e-06
-2.35661e-08
-1.39352e-08
7.72635e-06
8.12614e-06
-1.00471e-07
8.10157e-06
-5.45013e-07
8.1009e-06
-2.01808e-07
8.11861e-06
1.13197e-07
8.13936e-06
8.00708e-08
8.15027e-06
-3.05729e-08
8.14131e-06
-1.58156e-07
8.12856e-06
-2.43808e-07
8.11263e-06
-3.04876e-07
8.09515e-06
-3.1333e-07
8.07596e-06
-3.08981e-07
8.06373e-06
-2.55915e-07
8.05221e-06
-1.95266e-07
8.04117e-06
-1.62325e-07
8.03407e-06
-1.22959e-07
8.02858e-06
-9.37068e-08
8.02694e-06
-6.22013e-08
8.02528e-06
-3.99765e-08
8.02489e-06
-2.31694e-08
-1.30729e-08
8.02402e-06
8.43537e-06
-9.30816e-08
8.41045e-06
-5.20096e-07