/*--------------------------------*- C++ -*----------------------------------*\
| =========                 |                                                 |
| \\      /  F ield         | OpenFOAM: The Open Source CFD Toolbox           |
|  \\    /   O peration     | Version:  v2012                                 |
|   \\  /    A nd           | Website:  www.openfoam.com                      |
|    \\/     M anipulation  |                                                 |
\*---------------------------------------------------------------------------*/
FoamFile
{
    version     2.0;
    format      ascii;
    class       volVectorField;
    location    "3.1";
    object      U;
}
// * * * * * * * * * * * * * * * * * * * * * * * * * * * * * * * * * * * * * //

dimensions      [0 1 -1 0 0 0 0];


internalField   nonuniform List<vector> 
7000
(
(0.875803 -0.00438549 0)
(1.07114 -0.00970894 0)
(1.0063 -0.00564647 0)
(1.14277 0.0162974 0)
(0.942519 0.0128374 0)
(1.07018 0.0101496 0)
(1.00023 -0.00377352 0)
(1.03858 -0.0154709 0)
(0.931533 -0.0183678 0)
(1.09326 -0.0311372 0)
(0.80864 -0.0290895 0)
(1.15415 -0.025585 0)
(0.809161 -0.0253916 0)
(1.16696 -0.0200879 0)
(0.847433 -0.0232139 0)
(1.17056 -0.0130373 0)
(0.883563 -0.0147501 0)
(1.1684 -0.00559209 0)
(0.902181 -0.00520461 0)
(1.15901 0.00103381 0)
(0.886661 -0.00420215 0)
(1.06417 -0.0102562 0)
(1.01047 -0.00611562 0)
(1.1379 0.0165211 0)
(0.956681 0.0131858 0)
(1.05707 0.00982353 0)
(1.01816 -0.00356694 0)
(1.02157 -0.0146617 0)
(0.968794 -0.0191785 0)
(1.04717 -0.0291514 0)
(0.873145 -0.0303839 0)
(1.09507 -0.0252423 0)
(0.876693 -0.0259887 0)
(1.1053 -0.0205822 0)
(0.912894 -0.0235605 0)
(1.10716 -0.0138785 0)
(0.953889 -0.0146533 0)
(1.09456 -0.00648968 0)
(0.986361 -0.00438839 0)
(1.06698 0.000468929 0)
(0.904169 -0.00404164 0)
(1.05132 -0.0107916 0)
(1.01843 -0.00657075 0)
(1.12527 0.0169235 0)
(0.982291 0.0136761 0)
(1.04257 0.009435 0)
(1.03054 -0.00328217 0)
(1.01233 -0.0143092 0)
(0.991743 -0.0192294 0)
(1.01916 -0.0283689 0)
(0.925987 -0.0309513 0)
(1.04269 -0.0252872 0)
(0.938315 -0.0261742 0)
(1.04452 -0.0212555 0)
(0.971968 -0.023554 0)
(1.04612 -0.0149122 0)
(1.00642 -0.0142692 0)
(1.03974 -0.00750866 0)
(1.02725 -0.00348393 0)
(1.02673 6.82878e-05 0)
(0.925236 -0.00390023 0)
(1.03402 -0.0112705 0)
(1.02772 -0.00696155 0)
(1.10645 0.0172217 0)
(1.00936 0.0141596 0)
(1.03457 0.00916543 0)
(1.03612 -0.00304241 0)
(1.00972 -0.0140175 0)
(1.00483 -0.0191482 0)
(1.0036 -0.0277682 0)
(0.958019 -0.0310176 0)
(1.00742 -0.025641 0)
(0.973823 -0.0260057 0)
(1.00608 -0.0220586 0)
(0.999959 -0.0234396 0)
(1.01342 -0.0158938 0)
(1.02413 -0.0140273 0)
(1.01892 -0.00827464 0)
(1.03501 -0.00290115 0)
(1.01788 -4.30354e-05 0)
(0.947036 -0.00375526 0)
(1.01551 -0.0117181 0)
(1.03472 -0.00733423 0)
(1.08612 0.0173301 0)
(1.03086 0.0145659 0)
(1.03343 0.00904592 0)
(1.03758 -0.00281483 0)
(1.01126 -0.0137869 0)
(1.01062 -0.0189274 0)
(0.99951 -0.0273717 0)
(0.972964 -0.0308233 0)
(0.99077 -0.0261036 0)
(0.987045 -0.0257222 0)
(0.990137 -0.0228159 0)
(1.00501 -0.0233796 0)
(1.00256 -0.0167447 0)
(1.02305 -0.0140128 0)
(1.01536 -0.00888047 0)
(1.03145 -0.00263362 0)
(1.0197 -5.49455e-05 0)
(0.96698 -0.00360737 0)
(0.999511 -0.0121205 0)
(1.03671 -0.00770974 0)
(1.06861 0.0173068 0)
(1.0451 0.0148642 0)
(1.0359 0.00905917 0)
(1.03727 -0.0025896 0)
(1.01377 -0.0135787 0)
(1.01331 -0.018666 0)
(1.00069 -0.0270375 0)
(0.978733 -0.0304675 0)
(0.985308 -0.0265501 0)
(0.9891 -0.0254289 0)
(0.985995 -0.0234591 0)
(1.00085 -0.0233648 0)
(0.999844 -0.0175286 0)
(1.01632 -0.0141354 0)
(1.0152 -0.00947825 0)
(1.02579 -0.00255687 0)
(1.02204 -0.000126349 0)
(0.983263 -0.00346527 0)
(0.988485 -0.0124513 0)
(1.03303 -0.00809007 0)
(1.05547 0.0171991 0)
(1.05307 0.0150572 0)
(1.03854 0.00916804 0)
(1.03633 -0.0023526 0)
(1.01534 -0.0133915 0)
(1.01533 -0.0183932 0)
(1.00268 -0.0267191 0)
(0.98167 -0.0300145 0)
(0.98394 -0.0269562 0)
(0.98795 -0.025136 0)
(0.985125 -0.024004 0)
(0.995274 -0.0233551 0)
(0.997803 -0.0182749 0)
(1.00928 -0.0143332 0)
(1.01331 -0.0101095 0)
(1.02027 -0.00262119 0)
(1.02167 -0.000313133 0)
(0.995188 -0.00333923 0)
(0.982919 -0.0126904 0)
(1.02489 -0.00846354 0)
(1.04525 0.0170097 0)
(1.05582 0.0151655 0)
(1.03909 0.00933107 0)
(1.03488 -0.0021012 0)
(1.01552 -0.0132349 0)
(1.01737 -0.0181172 0)
(1.00372 -0.0264074 0)
(0.984634 -0.0294947 0)
(0.983346 -0.0273181 0)
(0.986804 -0.0248266 0)
(0.984319 -0.0244784 0)
(0.990629 -0.0233186 0)
(0.994766 -0.0189775 0)
(1.00319 -0.014577 0)
(1.00946 -0.0107514 0)
(1.01508 -0.00279907 0)
(1.01887 -0.000592326 0)
(1.00301 -0.00323733 0)
(0.981723 -0.0128298 0)
(1.01456 -0.00880688 0)
(1.03514 0.016738 0)
(1.05384 0.0152098 0)
(1.0368 0.00951269 0)
(1.03284 -0.00184493 0)
(1.01459 -0.013121 0)
(1.01922 -0.0178369 0)
(1.00371 -0.0261117 0)
(0.988153 -0.0289291 0)
(0.982829 -0.0276271 0)
(0.986286 -0.0244927 0)
(0.983255 -0.0248922 0)
(0.986989 -0.023236 0)
(0.991143 -0.0196301 0)
(0.997963 -0.0148396 0)
(1.00464 -0.0113641 0)
(1.01011 -0.00309129 0)
(1.0148 -0.000944244 0)
(1.00753 -0.00316282 0)
(0.98316 -0.012876 0)
(1.00431 -0.00908822 0)
(1.02317 0.0164031 0)
(1.04773 0.0151985 0)
(1.03214 0.00967784 0)
(1.03033 -0.00160108 0)
(1.01307 -0.0130563 0)
(1.02053 -0.0175503 0)
(1.003 -0.0258461 0)
(0.991901 -0.028334 0)
(0.982545 -0.027875 0)
(0.986304 -0.0241375 0)
(0.982286 -0.0252326 0)
(0.984044 -0.0231019 0)
(0.98746 -0.0202224 0)
(0.993296 -0.0151115 0)
(0.99956 -0.0119365 0)
(1.00529 -0.00348245 0)
(1.0103 -0.00135439 0)
(1.00968 -0.00311373 0)
(0.985655 -0.0128457 0)
(0.995709 -0.00927693 0)
(1.00938 0.0160367 0)
(1.03878 0.0151261 0)
(1.02635 0.00979338 0)
(1.02772 -0.00138456 0)
(1.0114 -0.0130395 0)
(1.0211 -0.0172558 0)
(1.00196 -0.0256226 0)
(0.995461 -0.0277249 0)
(0.982663 -0.0280609 0)
(0.986749 -0.0237647 0)
(0.981699 -0.0254839 0)
(0.98167 -0.0229161 0)
(0.983999 -0.0207344 0)
(0.988969 -0.0153979 0)
(0.994452 -0.012472 0)
(1.00053 -0.00394974 0)
(1.00563 -0.00181276 0)
(1.01031 -0.00308459 0)
(0.988174 -0.0127596 0)
(0.989443 -0.00935449 0)
(0.99565 0.0156681 0)
(1.02887 0.0149832 0)
(1.02076 0.00983519 0)
(1.02537 -0.00120177 0)
(1.0099 -0.0130609 0)
(1.02086 -0.0169518 0)
(1.00085 -0.0254487 0)
(0.998504 -0.027117 0)
(0.983219 -0.0281914 0)
(0.987533 -0.0233749 0)
(0.98165 -0.0256422 0)
(0.979906 -0.0226772 0)
(0.980943 -0.0211374 0)
(0.984921 -0.0156869 0)
(0.989353 -0.0129537 0)
(0.995706 -0.00449569 0)
(1.0007 -0.00231924 0)
(1.01006 -0.00306866 0)
(0.990239 -0.0126368 0)
(0.985401 -0.00932531 0)
(0.984425 0.0153159 0)
(1.01986 0.0147686 0)
(1.01636 0.00979443 0)
(1.02349 -0.00104954 0)
(1.00877 -0.0131058 0)
(1.01987 -0.0166368 0)
(0.999922 -0.0253278 0)
(1.00078 -0.0265227 0)
(0.984169 -0.0282747 0)
(0.98852 -0.0229807 0)
(0.982179 -0.0256995 0)
(0.978824 -0.0223885 0)
(0.978473 -0.0214022 0)
(0.981228 -0.015953 0)
(0.984342 -0.0133675 0)
(0.990753 -0.00509048 0)
(0.995375 -0.00286134 0)
(1.00942 -0.00305985 0)
(0.991763 -0.0124919 0)
(0.983046 -0.00921431 0)
(0.977338 0.0149862 0)
(1.01288 0.0144952 0)
(1.01352 0.00967754 0)
(1.02204 -0.000918241 0)
(1.00806 -0.0131579 0)
(1.01823 -0.0163112 0)
(0.999346 -0.0252572 0)
(1.00212 -0.0259519 0)
(0.985446 -0.0283202 0)
(0.98952 -0.0225986 0)
(0.983214 -0.0256498 0)
(0.978421 -0.0220601 0)
(0.976737 -0.0215077 0)
(0.978055 -0.0161626 0)
(0.979611 -0.0136938 0)
(0.985739 -0.00569114 0)
(0.989639 -0.00341475 0)
(1.00866 -0.00305378 0)
(0.992848 -0.0123346 0)
(0.981744 -0.0090533 0)
(0.97457 0.0146766 0)
(1.0082 0.0141864 0)
(1.01207 0.0095007 0)
(1.0209 -0.000796661 0)
(1.00771 -0.0132026 0)
(1.01615 -0.0159785 0)
(0.999205 -0.0252277 0)
(1.00248 -0.0254115 0)
(0.986971 -0.0283405 0)
(0.990349 -0.022239 0)
(0.984581 -0.0255008 0)
(0.978598 -0.0217056 0)
(0.975783 -0.0214425 0)
(0.975561 -0.0162812 0)
(0.975431 -0.0139048 0)
(0.980862 -0.00624801 0)
(0.983694 -0.00394224 0)
(1.00796 -0.00304806 0)
(0.99364 -0.0121697 0)
(0.981003 -0.00887204 0)
(0.975079 0.0143804 0)
(1.00541 0.0138678 0)
(1.01154 0.0092822 0)
(1.01993 -0.000675595 0)
(1.00757 -0.01323 0)
(1.01387 -0.0156444 0)
(0.999454 -0.0252261 0)
(1.00197 -0.0249045 0)
(0.988629 -0.0283451 0)
(0.99089 -0.0219163 0)
(0.986055 -0.0252607 0)
(0.979189 -0.0213395 0)
(0.975529 -0.0212091 0)
(0.973829 -0.0162957 0)
(0.97206 -0.0139785 0)
(0.976397 -0.00670536 0)
(0.977926 -0.00439405 0)
(1.00738 -0.00304184 0)
(0.994244 -0.0119988 0)
(0.980551 -0.00869131 0)
(0.977348 0.0140898 0)
(1.00387 0.0135587 0)
(1.01142 0.0090368 0)
(1.01905 -0.000549508 0)
(1.0075 -0.0132346 0)
(1.01167 -0.0153164 0)
(0.999954 -0.0252357 0)
(1.00085 -0.024436 0)
(0.990265 -0.028336 0)
(0.991123 -0.0216418 0)
(0.98743 -0.0249411 0)
(0.980014 -0.0209811 0)
(0.975805 -0.0208278 0)
(0.972844 -0.0161972 0)
(0.969656 -0.013908 0)
(0.972622 -0.00702037 0)
(0.972797 -0.00472176 0)
(1.00694 -0.0030349 0)
(0.994711 -0.011823 0)
(0.980299 -0.00852163 0)
(0.980081 0.0137985 0)
(1.00304 0.0132697 0)
(1.01134 0.00877373 0)
(1.01823 -0.000415931 0)
(1.0074 -0.0132164 0)
(1.00976 -0.0149993 0)
(1.00055 -0.025242 0)
(0.999451 -0.0240102 0)
(0.991716 -0.0283075 0)
(0.991098 -0.0214251 0)
(0.988557 -0.0245572 0)
(0.980924 -0.0206429 0)
(0.976418 -0.0203317 0)
(0.97251 -0.0159825 0)
(0.968242 -0.0136957 0)
(0.969746 -0.00717515 0)
(0.968702 -0.00489667 0)
(1.00662 -0.00302711 0)
(0.995061 -0.0116437 0)
(0.98024 -0.00836525 0)
(0.982522 0.0135023 0)
(1.00259 0.0130044 0)
(1.01114 0.00849738 0)
(1.0175 -0.000274429 0)
(1.00723 -0.0131785 0)
(1.00824 -0.0146965 0)
(1.00113 -0.0252328 0)
(0.998043 -0.0236283 0)
(0.992856 -0.0282492 0)
(0.990883 -0.0212716 0)
(0.989365 -0.0241233 0)
(0.981808 -0.0203301 0)
(0.977197 -0.019753 0)
(0.972689 -0.0156778 0)
(0.967718 -0.0133563 0)
(0.96786 -0.00717037 0)
(0.965855 -0.00491165 0)
(1.00638 -0.00301827 0)
(0.995312 -0.0114626 0)
(0.980374 -0.00821957 0)
(0.984405 0.0131994 0)
(1.00238 0.0127621 0)
(1.01075 0.00820974 0)
(1.01686 -0.00012733 0)
(1.00703 -0.013123 0)
(1.00716 -0.0144124 0)
(1.00166 -0.0251954 0)
(0.996824 -0.0232939 0)
(0.993633 -0.0281437 0)
(0.990529 -0.0211809 0)
(0.989834 -0.0236507 0)
(0.98258 -0.0200534 0)
(0.97801 -0.0191208 0)
(0.973227 -0.0153065 0)
(0.9679 -0.0129224 0)
(0.966929 -0.00703221 0)
(0.96426 -0.00477763 0)
(1.00621 -0.00300811 0)
(0.995485 -0.0112811 0)
(0.980675 -0.00808029 0)
(0.985744 0.012888 0)
(1.00234 0.0125408 0)
(1.0102 0.00791239 0)
(1.01627 2.14935e-05 0)
(1.00686 -0.0130537 0)
(1.00646 -0.0141496 0)
(1.00215 -0.0251183 0)
(0.995878 -0.0230097 0)
(0.994064 -0.0279733 0)
(0.990069 -0.0211547 0)
(0.989976 -0.0231449 0)
(0.983172 -0.0198148 0)
(0.978756 -0.0184723 0)
(0.973965 -0.0148698 0)
(0.968569 -0.0124194 0)
(0.966808 -0.00679309 0)
(0.963748 -0.00452374 0)
(1.00606 -0.00299631 0)
(0.995611 -0.0111006 0)
(0.981094 -0.00794291 0)
(0.986647 0.0125668 0)
(1.00242 0.0123378 0)
(1.00954 0.00760738 0)
(1.01572 0.000168541 0)
(1.00679 -0.0129753 0)
(1.00607 -0.0139114 0)
(1.00262 -0.0249876 0)
(0.99521 -0.0227765 0)
(0.994213 -0.02773 0)
(0.989532 -0.0211834 0)
(0.989815 -0.0226207 0)
(0.983531 -0.0195974 0)
(0.979347 -0.0178361 0)
(0.974755 -0.0143977 0)
(0.969501 -0.0118633 0)
(0.967282 -0.00647059 0)
(0.964055 -0.00418865 0)
(1.00591 -0.00298254 0)
(0.995719 -0.0109224 0)
(0.981583 -0.00780343 0)
(0.987226 0.012235 0)
(1.00258 0.0121504 0)
(1.0088 0.0072963 0)
(1.01514 0.000308462 0)
(1.00686 -0.0128854 0)
(1.00589 -0.0137051 0)
(1.00309 -0.0247958 0)
(0.994784 -0.0225842 0)
(0.994154 -0.0274114 0)
(0.988954 -0.0212521 0)
(0.989383 -0.0220919 0)
(0.983638 -0.0193928 0)
(0.979713 -0.017225 0)
(0.975465 -0.0139216 0)
(0.970496 -0.0113079 0)
(0.968109 -0.00609622 0)
(0.964881 -0.00379102 0)
(1.00574 -0.00296649 0)
(0.995831 -0.0107476 0)
(0.982105 -0.00765889 0)
(0.987572 0.0118927 0)
(1.00276 0.0119778 0)
(1.00804 0.00698066 0)
(1.01453 0.000432518 0)
(1.00708 -0.01278 0)
(1.00584 -0.0135322 0)
(1.00355 -0.0245423 0)
(0.994551 -0.0224271 0)
(0.993951 -0.0270046 0)
(0.988386 -0.0213549 0)
(0.988727 -0.0215583 0)
(0.983508 -0.0191948 0)
(0.979817 -0.0166681 0)
(0.975997 -0.0134383 0)
(0.971391 -0.01077 0)
(0.96907 -0.00572852 0)
(0.965952 -0.00338277 0)
(1.00554 -0.00294808 0)
(0.995955 -0.0105768 0)
(0.982638 -0.0075065 0)
(0.98776 0.0115388 0)
(1.0029 0.0118176 0)
(1.00733 0.00666555 0)
(1.01386 0.000534005 0)
(1.00744 -0.0126637 0)
(1.00586 -0.013394 0)
(1.00397 -0.0242142 0)
(0.994466 -0.0223105 0)
(0.993644 -0.0265135 0)
(0.987877 -0.0214615 0)
(0.987908 -0.021026 0)
(0.983187 -0.0189873 0)
(0.979665 -0.0161735 0)
(0.976307 -0.0129656 0)
(0.972079 -0.0102451 0)
(0.96998 -0.00536045 0)
(0.967048 -0.00299627 0)
(1.00532 -0.00292692 0)
(0.996091 -0.0104117 0)
(0.983171 -0.00734336 0)
(0.987849 0.0111746 0)
(1.00298 0.0116631 0)
(1.00672 0.00635287 0)
(1.01316 0.00061175 0)
(1.0079 -0.0125293 0)
(1.00592 -0.0133081 0)
(1.00433 -0.0238052 0)
(0.994489 -0.022217 0)
(0.993263 -0.0259655 0)
(0.987466 -0.0215514 0)
(0.986997 -0.0205001 0)
(0.982742 -0.0187451 0)
(0.979302 -0.0157357 0)
(0.976396 -0.0124911 0)
(0.972526 -0.00975808 0)
(0.970729 -0.00503085 0)
(0.968019 -0.00262568 0)
(1.00508 -0.0029024 0)
(0.99623 -0.0102529 0)
(0.983692 -0.00716988 0)
(0.987883 0.0108038 0)
(1.00298 0.0115152 0)
(1.00624 0.00603965 0)
(1.01246 0.000653271 0)
(1.00841 -0.0123611 0)
(1.006 -0.0132615 0)
(1.0046 -0.0233557 0)
(0.994594 -0.0221159 0)
(0.992826 -0.0253646 0)
(0.987173 -0.0216173 0)
(0.986071 -0.0200136 0)
(0.982242 -0.0184392 0)
(0.97881 -0.0153436 0)
(0.976309 -0.012056 0)
(0.972746 -0.00925549 0)
(0.971279 -0.00473059 0)
(0.968811 -0.00233606 0)
(1.00484 -0.00287496 0)
(0.996361 -0.0100996 0)
(0.984187 -0.00698398 0)
(0.987891 0.0104218 0)
(1.00288 0.0113728 0)
(1.00592 0.00573488 0)
(1.01179 0.00065327 0)
(1.00891 -0.0121834 0)
(1.0061 -0.0132149 0)
(1.00475 -0.0228706 0)
(0.994761 -0.022022 0)
(0.992358 -0.0247048 0)
(0.986999 -0.021633 0)
(0.985204 -0.0195348 0)
(0.981753 -0.0181591 0)
(0.978269 -0.0148934 0)
(0.976122 -0.011673 0)
(0.972825 -0.0088872 0)
(0.971632 -0.00439602 0)
(0.96942 -0.00205194 0)
(1.00462 -0.00284409 0)
(0.996471 -0.00995413 0)
(0.984636 -0.00678264 0)
(0.987894 0.0100349 0)
(1.0027 0.0112166 0)
(1.00577 0.00543349 0)
(1.01118 0.000631697 0)
(1.00933 -0.0119755 0)
(1.00621 -0.0132301 0)
(1.00479 -0.0222791 0)
(0.99497 -0.0219588 0)
(0.991891 -0.0240041 0)
(0.98693 -0.0216166 0)
(0.98445 -0.0190195 0)
(0.98133 -0.0178579 0)
(0.97778 -0.0144757 0)
(0.975871 -0.0112289 0)
(0.972834 -0.0085151 0)
(0.971872 -0.00422302 0)
(0.969891 -0.0018009 0)
(1.00444 -0.00280955 0)
(0.996554 -0.00981249 0)
(0.98502 -0.00657837 0)
(0.987912 0.00965628 0)
(1.00247 0.011051 0)
(1.00576 0.00514694 0)
(1.01066 0.000537894 0)
(1.00963 -0.0116741 0)
(1.00635 -0.0133117 0)
(1.00472 -0.0216602 0)
(0.995194 -0.0218646 0)
(0.99146 -0.0232879 0)
(0.986948 -0.0215714 0)
(0.983859 -0.0185437 0)
(0.980988 -0.0174759 0)
(0.977405 -0.0140727 0)
(0.975665 -0.0109807 0)
(0.972825 -0.00782983 0)
(0.972032 -0.0042122 0)
(0.970321 -0.00178132 0)
(1.00431 -0.00276849 0)
(0.996604 -0.00968202 0)
(0.985326 -0.00634791 0)
(0.987962 0.00925116 0)
(1.0022 0.0108873 0)
(1.00584 0.00485601 0)
(1.01022 0.00044401 0)
(1.0098 -0.0114578 0)
(1.00647 -0.0132613 0)
(1.00459 -0.021122 0)
(0.99541 -0.0216985 0)
(0.991098 -0.0226113 0)
(0.987021 -0.0213465 0)
(0.983453 -0.0181785 0)
(0.98076 -0.0170862 0)
(0.977157 -0.0137266 0)
(0.975567 -0.0104649 0)
(0.972913 -0.00786612 0)
(0.97213 -0.00379529 0)
(0.970749 -0.00144061 0)
(1.00424 -0.00273224 0)
(0.99662 -0.00953767 0)
(0.985553 -0.00612926 0)
(0.988054 0.00888061 0)
(1.00193 0.0106596 0)
(1.00599 0.00461278 0)
(1.00987 0.000262853 0)
(1.00984 -0.0110988 0)
(1.00658 -0.0134011 0)
(1.00439 -0.020419 0)
(0.995602 -0.0215298 0)
(0.990829 -0.0220211 0)
(0.987129 -0.0210143 0)
(0.983226 -0.0178727 0)
(0.980634 -0.016554 0)
(0.977138 -0.0135319 0)
(0.975473 -0.010168 0)
(0.97309 -0.0072508 0)
(0.97242 -0.00358651 0)
(0.971161 -0.00136012 0)
(1.00422 -0.00268436 0)
(0.9966 -0.00941285 0)
(0.985715 -0.00588537 0)
(0.98819 0.00847999 0)
(1.00169 0.0104637 0)
(1.00614 0.00432484 0)
(1.00958 0.000132292 0)
(1.00975 -0.0108344 0)
(1.00665 -0.0133648 0)
(1.00419 -0.0198997 0)
(0.995741 -0.0211759 0)
(0.990658 -0.0215584 0)
(0.987269 -0.0205352 0)
(0.983178 -0.0176766 0)
(0.980611 -0.01594 0)
(0.977199 -0.0133626 0)
(0.975677 -0.00986483 0)
(0.973395 -0.00697096 0)
(0.972545 -0.00317933 0)
(0.971648 -0.00122089 0)
(1.00425 -0.00262564 0)
(0.996554 -0.00929975 0)
(0.985831 -0.00561834 0)
(0.98837 0.00805409 0)
(1.00149 0.0102388 0)
(1.00626 0.00406414 0)
(1.00932 -6.05866e-05 0)
(1.00956 -0.0105369 0)
(1.00665 -0.013302 0)
(1.00396 -0.0193633 0)
(0.99585 -0.0208628 0)
(0.990573 -0.0209017 0)
(0.987433 -0.0202449 0)
(0.983263 -0.0172448 0)
(0.980693 -0.015553 0)
(0.97746 -0.0129368 0)
(0.975845 -0.00920438 0)
(0.973858 -0.00711817 0)
(0.973001 -0.00271354 0)
(0.972098 -0.000799954 0)
(1.0043 -0.00259257 0)
(0.996492 -0.00912377 0)
(0.985929 -0.00542822 0)
(0.988585 0.00775107 0)
(1.00133 0.00986388 0)
(1.00633 0.00395512 0)
(1.00908 -0.000456844 0)
(1.00931 -0.00993345 0)
(1.00658 -0.0136608 0)
(1.00373 -0.0184379 0)
(0.995927 -0.0208363 0)
(0.990541 -0.0200553 0)
(0.987641 -0.0201171 0)
(0.983463 -0.0166008 0)
(0.980875 -0.0153466 0)
(0.977823 -0.0122308 0)
(0.976183 -0.00910204 0)
(0.97435 -0.00581677 0)
(0.97344 -0.00337971 0)
(0.972671 -0.00132685 0)
(1.00436 -0.00253074 0)
(0.996432 -0.00900788 0)
(0.986028 -0.00514537 0)
(0.988831 0.00731979 0)
(1.0012 0.00962545 0)
(1.00635 0.00367237 0)
(1.00881 -0.000527975 0)
(1.00902 -0.00983354 0)
(1.00644 -0.0133499 0)
(1.00351 -0.0181769 0)
(0.995958 -0.0202458 0)
(0.990593 -0.0197185 0)
(0.987859 -0.0194919 0)
(0.983729 -0.0163563 0)
(0.981166 -0.0146403 0)
(0.978304 -0.0120134 0)
(0.97675 -0.008738 0)
(0.97489 -0.00613181 0)
(0.973768 -0.00268952 0)
(0.973339 -0.000969122 0)
(1.00441 -0.00245111 0)
(0.996377 -0.0089052 0)
(0.986153 -0.00486939 0)
(0.989095 0.00688842 0)
(1.0011 0.00934069 0)
(1.0063 0.00344422 0)
(1.00851 -0.000785903 0)
(1.00871 -0.00946012 0)
(1.00623 -0.0132513 0)
(1.0033 -0.0177996 0)
(0.99596 -0.0196307 0)
(0.99066 -0.0193208 0)
(0.988109 -0.01901 0)
(0.984096 -0.016041 0)
(0.981494 -0.0138845 0)
(0.978806 -0.0116239 0)
(0.977177 -0.00818631 0)
(0.975649 -0.00642674 0)
(0.974547 -0.00198684 0)
(0.973886 -0.000470444 0)
(1.00445 -0.00242864 0)
(0.996332 -0.00869195 0)
(0.986324 -0.0047014 0)
(0.989361 0.00666664 0)
(1.00101 0.00879123 0)
(1.0062 0.00347541 0)
(1.0082 -0.0013328 0)
(1.00837 -0.00875891 0)
(1.00599 -0.0136402 0)
(1.00309 -0.0168024 0)
(0.995964 -0.0197409 0)
(0.990732 -0.0182822 0)
(0.988396 -0.0188619 0)
(0.984496 -0.0154034 0)
(0.981911 -0.0137113 0)
(0.979348 -0.010782 0)
(0.977757 -0.00806557 0)
(0.976338 -0.0049443 0)
(0.975207 -0.00304762 0)
(0.974557 -0.00124644 0)
(1.00445 -0.00234603 0)
(0.996315 -0.0085833 0)
(0.98653 -0.00441801 0)
(0.989639 0.00622964 0)
(1.00093 0.0085223 0)
(1.00607 0.00319262 0)
(1.00786 -0.00132246 0)
(1.00804 -0.00880726 0)
(1.00571 -0.0130384 0)
(1.00287 -0.0168467 0)
(0.995964 -0.0188857 0)
(0.990847 -0.0180713 0)
(0.988659 -0.0181722 0)
(0.984914 -0.01513 0)
(0.9824 -0.0129899 0)
(0.979965 -0.0106369 0)
(0.978533 -0.00776612 0)
(0.976959 -0.0054019 0)
(0.975657 -0.00217504 0)
(0.975339 -0.000704616 0)
(1.00443 -0.00224927 0)
(0.996318 -0.00848348 0)
(0.986781 -0.00414012 0)
(0.989925 0.00582281 0)
(1.00085 0.0081539 0)
(1.00591 0.00299869 0)
(1.0075 -0.00153909 0)
(1.0077 -0.00851781 0)
(1.00541 -0.0128322 0)
(1.00268 -0.0165188 0)
(0.995955 -0.0182701 0)
(0.990931 -0.0176739 0)
(0.988974 -0.0175268 0)
(0.985399 -0.0148476 0)
(0.982861 -0.0122849 0)
(0.980514 -0.0103576 0)
(0.97906 -0.00726145 0)
(0.977909 -0.00578245 0)
(0.976673 -0.00127874 0)
(0.9759 1.72627e-05 0)
(1.00438 -0.0022567 0)
(0.996333 -0.00819712 0)
(0.987079 -0.00405797 0)
(0.990207 0.00573007 0)
(1.00078 0.00745927 0)
(1.0057 0.00314293 0)
(1.00716 -0.00225477 0)
(1.00733 -0.00767773 0)
(1.00513 -0.0133007 0)
(1.00246 -0.0153166 0)
(0.995982 -0.0186027 0)
(0.991046 -0.0163969 0)
(0.989265 -0.0175096 0)
(0.985861 -0.0141107 0)
(0.983383 -0.0122085 0)
(0.981113 -0.00939329 0)
(0.979739 -0.00707538 0)
(0.978678 -0.00413275 0)
(0.977465 -0.00274438 0)
(0.976609 -0.000956571 0)
(1.0043 -0.0021089 0)
(0.996386 -0.00817503 0)
(0.987394 -0.00371719 0)
(0.990517 0.00524036 0)
(1.0007 0.00721347 0)
(1.00548 0.00275871 0)
(1.0068 -0.00202311 0)
(1.00698 -0.00798021 0)
(1.00484 -0.012429 0)
(1.00224 -0.0155361 0)
(0.996015 -0.01755 0)
(0.991166 -0.0162603 0)
(0.989546 -0.0166433 0)
(0.986384 -0.0139352 0)
(0.983974 -0.0116463 0)
(0.981777 -0.00938677 0)
(0.980578 -0.00672843 0)
(0.979274 -0.00472882 0)
(0.977915 -0.00158534 0)
(0.977441 -6.2133e-05 0)
(1.00419 -0.00206086 0)
(0.996454 -0.00797827 0)
(0.987729 -0.00354782 0)
(0.990846 0.00497983 0)
(1.00061 0.0067159 0)
(1.00527 0.00264146 0)
(1.00642 -0.00214043 0)
(1.00664 -0.00789917 0)
(1.00453 -0.0119555 0)
(1.00206 -0.0154089 0)
(0.996043 -0.0166458 0)
(0.991304 -0.0160234 0)
(0.989827 -0.0156249 0)
(0.98687 -0.013889 0)
(0.984476 -0.0112062 0)
(0.982387 -0.00945108 0)
(0.981109 -0.00639818 0)
(0.980361 -0.00467378 0)
(0.979171 -0.000625041 0)
(0.97795 0.000690361 0)
(1.00409 -0.00202087 0)
(0.996514 -0.00775563 0)
(0.988105 -0.0034355 0)
(0.991161 0.00487099 0)
(1.00055 0.00609464 0)
(1.00502 0.0026387 0)
(1.00609 -0.00259855 0)
(1.00628 -0.00735153 0)
(1.00426 -0.012074 0)
(1.00187 -0.0145279 0)
(0.996097 -0.0165157 0)
(0.991457 -0.0150205 0)
(0.990091 -0.0153133 0)
(0.987331 -0.0133611 0)
(0.98504 -0.0110156 0)
(0.983027 -0.00878204 0)
(0.981976 -0.006224 0)
(0.981131 -0.00367516 0)
(0.979807 -0.00185443 0)
(0.978643 -0.00013351 0)
(1.00396 -0.00187492 0)
(0.996599 -0.00770451 0)
(0.988481 -0.00314173 0)
(0.991487 0.00445857 0)
(1.00049 0.00577989 0)
(1.00477 0.00229641 0)
(1.00574 -0.00251938 0)
(1.00592 -0.00734642 0)
(1.004 -0.0115899 0)
(1.00168 -0.0142482 0)
(0.99619 -0.0158888 0)
(0.991615 -0.0143861 0)
(0.990334 -0.014772 0)
(0.987832 -0.0128641 0)
(0.985637 -0.0104787 0)
(0.983699 -0.00833935 0)
(0.982678 -0.00577603 0)
(0.981856 -0.00413862 0)
(0.980613 -0.00174255 0)
(0.979369 3.77594e-05 0)
(1.00383 -0.00185157 0)
(0.996692 -0.00746043 0)
(0.988862 -0.00307488 0)
(0.991822 0.00433122 0)
(1.00044 0.00524496 0)
(1.00453 0.00216771 0)
(1.0054 -0.00265298 0)
(1.00557 -0.007065 0)
(1.00373 -0.0113693 0)
(1.00152 -0.0137263 0)
(0.996286 -0.0153032 0)
(0.991783 -0.0138853 0)
(0.990586 -0.0140871 0)
(0.988339 -0.0123369 0)
(0.98622 -0.0101169 0)
(0.984368 -0.00793284 0)
(0.983328 -0.00576602 0)
(0.982601 -0.0039437 0)
(0.981479 -0.00180161 0)
(0.980065 -0.00017226 0)
(1.00369 -0.00174807 0)
(0.996793 -0.00732435 0)
(0.989254 -0.002904 0)
(0.992153 0.00409652 0)
(1.0004 0.00481261 0)
(1.00429 0.00192111 0)
(1.00506 -0.00270924 0)
(1.00522 -0.0069105 0)
(1.00347 -0.0109744 0)
(1.00136 -0.0132624 0)
(0.996375 -0.0148205 0)
(0.99198 -0.0132867 0)
(0.990843 -0.0133821 0)
(0.988819 -0.0119349 0)
(0.986832 -0.00975701 0)
(0.984994 -0.00757526 0)
(0.984026 -0.00551689 0)
(0.983342 -0.00382369 0)
(0.982187 -0.00187396 0)
(0.980776 -0.000361389 0)
(1.00355 -0.00166134 0)
(0.996903 -0.00716546 0)
(0.989649 -0.00276468 0)
(0.992481 0.00383584 0)
(1.00036 0.0044577 0)
(1.00405 0.0016285 0)
(1.00473 -0.00275156 0)
(1.00488 -0.00674518 0)
(1.00322 -0.0105344 0)
(1.0012 -0.0128891 0)
(0.996495 -0.0142306 0)
(0.992197 -0.0127186 0)
(0.991069 -0.0127584 0)
(0.989301 -0.011519 0)
(0.987447 -0.00932151 0)
(0.985688 -0.00729478 0)
(0.98465 -0.00517923 0)
(0.984036 -0.00385534 0)
(0.982997 -0.00188833 0)
(0.981455 -0.000500348 0)
(1.00341 -0.00159543 0)
(0.997015 -0.00696948 0)
(0.990053 -0.00267805 0)
(0.992803 0.0036696 0)
(1.00032 0.00406335 0)
(1.00381 0.00137486 0)
(1.00442 -0.00283489 0)
(1.00455 -0.00648607 0)
(1.00296 -0.0102348 0)
(1.00106 -0.0123526 0)
(0.996617 -0.0136942 0)
(0.992413 -0.0122275 0)
(0.991314 -0.0121513 0)
(0.989783 -0.0109637 0)
(0.988072 -0.00901442 0)
(0.986339 -0.00696581 0)
(0.985295 -0.00514304 0)
(0.984715 -0.00353856 0)
(0.983706 -0.00202352 0)
(0.982159 -0.000783806 0)
(1.00327 -0.00149976 0)
(0.997134 -0.00681288 0)
(0.99046 -0.00252917 0)
(0.993116 0.00339275 0)
(1.00028 0.00374038 0)
(1.00359 0.00108117 0)
(1.00412 -0.00283532 0)
(1.00423 -0.00639931 0)
(1.00271 -0.009758 0)
(1.00091 -0.0119078 0)
(0.996737 -0.0131856 0)
(0.99266 -0.0117243 0)
(0.991565 -0.011483 0)
(0.990232 -0.0105111 0)
(0.988678 -0.00868838 0)
(0.987003 -0.00680775 0)
(0.985972 -0.00473664 0)
(0.985384 -0.00351994 0)
(0.984342 -0.00201435 0)
(0.982838 -0.000895147 0)
(1.00313 -0.0014236 0)
(0.997255 -0.00662349 0)
(0.990868 -0.00245592 0)
(0.993424 0.00317055 0)
(1.00025 0.00343796 0)
(1.00336 0.000849166 0)
(1.00383 -0.00292313 0)
(1.00392 -0.00618462 0)
(1.00247 -0.00937931 0)
(1.00077 -0.0114489 0)
(0.996874 -0.0126425 0)
(0.992922 -0.0112224 0)
(0.991807 -0.010914 0)
(0.990672 -0.0100373 0)
(0.989271 -0.00834537 0)
(0.987737 -0.00648818 0)
(0.986605 -0.00454816 0)
(0.985976 -0.00341529 0)
(0.985042 -0.00199137 0)
(0.983513 -0.00104051 0)
(1.00299 -0.0013424 0)
(0.997378 -0.00644551 0)
(0.991281 -0.0023549 0)
(0.993728 0.00293459 0)
(1.00022 0.00313398 0)
(1.00314 0.000633227 0)
(1.00355 -0.00292903 0)
(1.00363 -0.00602317 0)
(1.00223 -0.00900457 0)
(1.00064 -0.0109273 0)
(0.997009 -0.0121481 0)
(0.993191 -0.010745 0)
(0.992067 -0.010339 0)
(0.9911 -0.00954235 0)
(0.989882 -0.00797838 0)
(0.988401 -0.00631356 0)
(0.987258 -0.00439446 0)
(0.986631 -0.00328832 0)
(0.985612 -0.00197045 0)
(0.984145 -0.00117663 0)
(1.00285 -0.00125881 0)
(0.997506 -0.0062587 0)
(0.991692 -0.0022751 0)
(0.994024 0.00268044 0)
(1.00019 0.00284993 0)
(1.00293 0.000460635 0)
(1.00327 -0.00294624 0)
(1.00335 -0.00588083 0)
(1.00201 -0.00862649 0)
(1.0005 -0.0104559 0)
(0.997149 -0.0116511 0)
(0.993489 -0.0102792 0)
(0.992326 -0.00978442 0)
(0.991519 -0.00908867 0)
(0.990425 -0.00761707 0)
(0.989123 -0.0061404 0)
(0.987919 -0.00418512 0)
(0.98721 -0.00317775 0)
(0.986242 -0.00189958 0)
(0.984766 -0.00125805 0)
(1.00272 -0.00118563 0)
(0.997632 -0.00606366 0)
(0.992104 -0.00221669 0)
(0.99432 0.00246505 0)
(1.00017 0.00256984 0)
(1.00271 0.000302668 0)
(1.00301 -0.00297738 0)
(1.00308 -0.00569452 0)
(1.0018 -0.00829847 0)
(1.00038 -0.00995182 0)
(0.997291 -0.0111382 0)
(0.993792 -0.00984302 0)
(0.992595 -0.00924828 0)
(0.991927 -0.00862727 0)
(0.990997 -0.00723524 0)
(0.989789 -0.00591037 0)
(0.988591 -0.00405333 0)
(0.987853 -0.00304586 0)
(0.986756 -0.00185477 0)
(0.985325 -0.00131913 0)
(1.00258 -0.00110396 0)
(0.997762 -0.00587488 0)
(0.992514 -0.00214754 0)
(0.994607 0.00222339 0)
(1.00015 0.00228762 0)
(1.00252 0.000145143 0)
(1.00275 -0.00293469 0)
(1.00283 -0.00554899 0)
(1.00161 -0.00793741 0)
(1.00026 -0.0094592 0)
(0.997426 -0.0106373 0)
(0.994119 -0.00943092 0)
(0.992874 -0.00870325 0)
(0.992334 -0.00819307 0)
(0.991505 -0.00686712 0)
(0.990478 -0.00573795 0)
(0.989261 -0.00389744 0)
(0.988431 -0.00297936 0)
(0.987335 -0.00179387 0)
(0.985889 -0.00129845 0)
(1.00245 -0.00103391 0)
(0.997888 -0.00566607 0)
(0.992922 -0.00212325 0)
(0.994893 0.0020211 0)
(1.00014 0.00200046 0)
(1.00232 4.29888e-05 0)
(1.0025 -0.00292315 0)
(1.00259 -0.00534149 0)
(1.00143 -0.00762671 0)
(1.00015 -0.00898568 0)
(0.99756 -0.0101253 0)
(0.994453 -0.00903889 0)
(0.99316 -0.00819811 0)
(0.992719 -0.00776608 0)
(0.99203 -0.00651399 0)
(0.991118 -0.00548195 0)
(0.989934 -0.0038109 0)
(0.989077 -0.00284323 0)
(0.987856 -0.00173574 0)
(0.986396 -0.00128185 0)
(1.00232 -0.000961355 0)
(0.998015 -0.00545786 0)
(0.993329 -0.002084 0)
(0.995172 0.00180899 0)
(1.00013 0.00171401 0)
(1.00214 -8.50354e-05 0)
(1.00226 -0.00285294 0)
(1.00236 -0.00514866 0)
(1.00127 -0.00728517 0)
(1.00005 -0.00852233 0)
(0.997685 -0.00960459 0)
(0.994803 -0.00867236 0)
(0.99346 -0.00769955 0)
(0.993107 -0.007331 0)
(0.992515 -0.0061453 0)
(0.991753 -0.00527337 0)
(0.990604 -0.00366244 0)
(0.989675 -0.00277297 0)
(0.98841 -0.00170944 0)
(0.986905 -0.00120788 0)
(1.0022 -0.000897447 0)
(0.998137 -0.00523524 0)
(0.99373 -0.00207485 0)
(0.995448 0.00160153 0)
(1.00013 0.00143113 0)
(1.00198 -0.000202125 0)
(1.00204 -0.00277716 0)
(1.00214 -0.00490435 0)
(1.00111 -0.00694807 0)
(0.999964 -0.00808346 0)
(0.997801 -0.00908335 0)
(0.995156 -0.0083203 0)
(0.993776 -0.0072568 0)
(0.993474 -0.00689138 0)
(0.992994 -0.00583141 0)
(0.992352 -0.00500226 0)
(0.99126 -0.00360829 0)
(0.990304 -0.0026548 0)
(0.988968 -0.00166923 0)
(0.987399 -0.00114165 0)
(1.00208 -0.000829812 0)
(0.998257 -0.00502266 0)
(0.994128 -0.0020539 0)
(0.995719 0.00139414 0)
(1.00013 0.0011662 0)
(1.00183 -0.000359552 0)
(1.00183 -0.00268048 0)
(1.00193 -0.00466725 0)
(1.00096 -0.0065948 0)
(0.99989 -0.0076447 0)
(0.997907 -0.00855276 0)
(0.99551 -0.00796091 0)
(0.994113 -0.0068464 0)
(0.99384 -0.00645432 0)
(0.99345 -0.00549806 0)
(0.99292 -0.00475158 0)
(0.991912 -0.0035 0)
(0.990927 -0.00254915 0)
(0.98953 -0.00164949 0)
(0.987887 -0.00107268 0)
(1.00196 -0.000770059 0)
(0.998372 -0.00479322 0)
(0.994518 -0.00205291 0)
(0.995986 0.00119047 0)
(1.00013 0.00089089 0)
(1.0017 -0.000504839 0)
(1.00164 -0.00257622 0)
(1.00173 -0.00441315 0)
(1.00082 -0.00623193 0)
(0.99982 -0.00722736 0)
(0.998 -0.00803092 0)
(0.995852 -0.00758571 0)
(0.994463 -0.00648384 0)
(0.994197 -0.00603016 0)
(0.993887 -0.0051987 0)
(0.993463 -0.00447476 0)
(0.992546 -0.0034048 0)
(0.991547 -0.00245634 0)
(0.990106 -0.00163008 0)
(0.988383 -0.00101017 0)
(1.00185 -0.000717807 0)
(0.998484 -0.00456407 0)
(0.9949 -0.00203868 0)
(0.996245 0.00100562 0)
(1.00013 0.000648902 0)
(1.00159 -0.000619545 0)
(1.00147 -0.00248531 0)
(1.00154 -0.00417946 0)
(1.00068 -0.0058876 0)
(0.999758 -0.00683209 0)
(0.998086 -0.00752694 0)
(0.996178 -0.00719195 0)
(0.994827 -0.00615626 0)
(0.994555 -0.00561547 0)
(0.994313 -0.00489603 0)
(0.993974 -0.00418976 0)
(0.993156 -0.0032973 0)
(0.992167 -0.00236234 0)
(0.990689 -0.00160268 0)
(0.988883 -0.000957927 0)
(1.00174 -0.000657991 0)
(0.998591 -0.00434566 0)
(0.995272 -0.00201202 0)
(0.996503 0.000832348 0)
(1.00015 0.00046836 0)