/*--------------------------------*- C++ -*----------------------------------*\
| =========                 |                                                 |
| \\      /  F ield         | OpenFOAM: The Open Source CFD Toolbox           |
|  \\    /   O peration     | Version:  v2012                                 |
|   \\  /    A nd           | Website:  www.openfoam.com                      |
|    \\/     M anipulation  |                                                 |
\*---------------------------------------------------------------------------*/
FoamFile
{
    version     2.0;
    format      ascii;
    class       volScalarField;
    location    "0.1";
    object      p;
}
// * * * * * * * * * * * * * * * * * * * * * * * * * * * * * * * * * * * * * //

dimensions      [0 2 -2 0 0 0 0];


internalField   nonuniform List<scalar> 
7000
(
-1.62603e-11
0.0131931
0.0110861
0.012888
0.0123526
0.0134578
0.0146982
0.0164689
0.0152286
0.017037
0.0167895
0.0201729
0.0202315
0.0214419
0.0228461
0.0253602
0.0270134
0.0303016
0.0330004
0.0382729
2.36326e-06
0.0131962
0.0110902
0.0128862
0.0123526
0.0134564
0.0147009
0.0164684
0.0152351
0.0170298
0.0167933
0.0201554
0.0202286
0.0214513
0.0228472
0.0253515
0.0270244
0.0302666
0.0330261
0.0380281
5.093e-06
0.0132015
0.0110975
0.0128809
0.0123541
0.0134582
0.0147017
0.0164697
0.0152464
0.0170129
0.0167999
0.0201284
0.020231
0.0214701
0.0228422
0.0253437
0.0270351
0.0302135
0.0330398
0.0376076
9.21777e-06
0.0132132
0.0111079
0.0128712
0.0123592
0.0134654
0.0146975
0.0164729
0.0152641
0.0169871
0.0168093
0.020099
0.0202347
0.0214953
0.0228337
0.0253339
0.0270438
0.0301505
0.03302
0.0371651
1.57521e-05
0.0132335
0.011121
0.0128567
0.0123685
0.0134754
0.0146885
0.0164776
0.0152882
0.0169547
0.0168231
0.0200671
0.0202398
0.0215218
0.0228266
0.0253179
0.0270534
0.0300751
0.0329742
0.0367428
2.58875e-05
0.0132613
0.0111347
0.0128384
0.0123819
0.0134858
0.0146764
0.0164829
0.0153173
0.0169192
0.016841
0.0200325
0.0202481
0.0215456
0.0228238
0.025294
0.0270641
0.0299886
0.032907
0.036344
4.07224e-05
0.0132936
0.0111469
0.0128176
0.0123991
0.0134956
0.0146627
0.016488
0.0153498
0.0168831
0.0168622
0.019996
0.0202593
0.0215645
0.0228255
0.0252616
0.0270745
0.0298929
0.0328183
0.035963
6.11755e-05
0.0133277
0.0111558
0.0127958
0.0124197
0.0135046
0.0146478
0.016492
0.0153852
0.0168477
0.0168861
0.0199578
0.0202728
0.0215772
0.0228303
0.0252206
0.0270828
0.0297892
0.0327074
0.0355942
8.79748e-05
0.0133623
0.0111598
0.0127743
0.0124438
0.0135131
0.0146317
0.0164942
0.0154234
0.0168135
0.0169127
0.019918
0.0202886
0.0215826
0.0228375
0.0251714
0.0270867
0.029679
0.0325735
0.0352332
0.000121619
0.0133965
0.0111583
0.0127538
0.0124715
0.0135214
0.0146138
0.0164941
0.0154642
0.0167808
0.0169421
0.0198768
0.020307
0.0215797
0.022845
0.0251145
0.0270837
0.029564
0.0324163
0.0348764
0.000162299
0.0134302
0.0111513
0.0127345
0.0125029
0.0135297
0.0145938
0.0164913
0.0155075
0.0167494
0.0169745
0.0198341
0.0203281
0.0215683
0.0228525
0.025051
0.0270714
0.0294451
0.0322363
0.0345207
0.000209841
0.0134634
0.0111391
0.0127163
0.012538
0.013538
0.0145718
0.0164858
0.015553
0.016719
0.0170098
0.0197899
0.0203521
0.0215486
0.0228594
0.0249828
0.0270476
0.0293227
0.0320349
0.0341628
0.000263727
0.0134963
0.0111225
0.0126987
0.0125764
0.0135462
0.0145484
0.0164775
0.0156006
0.0166891
0.0170478
0.019744
0.020379
0.0215216
0.0228643
0.024912
0.0270104
0.0291967
0.0318136
0.0338003
0.000323202
0.0135292
0.0111026
0.0126815
0.0126177
0.0135539
0.0145241
0.0164665
0.01565
0.0166588
0.0170882
0.0196961
0.0204081
0.0214885
0.0228659
0.0248408
0.0269586
0.0290659
0.0315742
0.033431
0.000387424
0.0135622
0.0110804
0.012664
0.0126612
0.0135611
0.0144996
0.0164529
0.0157011
0.0166276
0.0171306
0.019646
0.0204389
0.0214508
0.0228621
0.024771
0.0268918
0.028929
0.0313187
0.033054
0.00045561
0.0135955
0.011057
0.0126459
0.0127065
0.0135675
0.0144757
0.0164367
0.0157539
0.0165947
0.0171747
0.0195938
0.0204706
0.0214105
0.0228507
0.0247034
0.0268101
0.0287841
0.0310489
0.0326687
0.000527141
0.0136291
0.0110331
0.012627
0.0127532
0.0135728
0.0144528
0.0164179
0.0158082
0.0165599
0.0172201
0.0195398
0.0205019
0.0213699
0.0228299
0.0246381
0.0267143
0.0286292
0.0307664
0.0322751
0.000601598
0.0136631
0.0110095
0.0126069
0.0128011
0.0135768
0.0144313
0.0163964
0.0158641
0.016523
0.0172664
0.0194849
0.0205309
0.0213308
0.0227984
0.0245744
0.0266056
0.0284621
0.0304722
0.0318737
0.000678742
0.0136973
0.0109866
0.0125856
0.0128502
0.0135794
0.0144115
0.0163723
0.0159213
0.0164842
0.017313
0.0194302
0.0205557
0.0212948
0.0227557
0.0245112
0.0264862
0.0282817
0.0301667
0.0314651
0.000758476
0.0137316
0.0109647
0.0125628
0.0129003
0.0135804
0.0143935
0.0163454
0.0159796
0.0164437
0.017359
0.0193772
0.0205742
0.0212627
0.0227014
0.0244463
0.0263579
0.0280873
0.0298504
0.03105
0.000840789
0.013766
0.0109442
0.0125384
0.0129517
0.0135795
0.0143776
0.0163157
0.0160388
0.0164021
0.0174034
0.0193277
0.020585
0.0212349
0.0226362
0.0243772
0.0262222
0.0278787
0.0295236
0.0306291
0.000925724
0.0138002
0.0109251
0.0125124
0.0130042
0.0135767
0.0143638
0.0162834
0.0160985
0.0163601
0.0174446
0.0192834
0.0205871
0.0212107
0.022561
0.0243013
0.0260797
0.0276567
0.0291867
0.0302035
0.00101335
0.013834
0.0109078
0.0124846
0.0130579
0.0135718
0.014352
0.0162487
0.016158
0.0163189
0.017481
0.0192454
0.0205798
0.0211889
0.0224776
0.024216
0.0259305
0.0274226
0.0288406
0.0297737
0.00110375
0.0138673
0.0108924
0.0124549
0.0131129
0.0135645
0.0143425
0.0162117
0.0162166
0.0162796
0.017511
0.0192146
0.0205626
0.0211683
0.0223883
0.0241191
0.0257739
0.0271781
0.0284861
0.0293405
0.001197
0.0138997
0.0108792
0.0124232
0.0131693
0.013555
0.014335
0.0161729
0.0162734
0.0162436
0.0175331
0.0191912
0.020536
0.0211468
0.0222948
0.0240098
0.0256091
0.0269244
0.0281246
0.0289046
0.00129322
0.013931
0.0108683
0.0123893
0.0132269
0.0135429
0.0143295
0.0161328
0.0163274
0.0162124
0.0175462
0.0191749
0.0205009
0.021122
0.0221983
0.0238881
0.0254353
0.026662
0.0277575
0.0284671
0.00139248
0.0139609
0.0108601
0.0123531
0.0132859
0.0135285
0.0143255
0.0160922
0.0163771
0.0161871
0.0175494
0.019165
0.0204589
0.0210909
0.0220994
0.0237551
0.0252525
0.0263914
0.0273857
0.0280286
0.0014949
0.0139891
0.0108548
0.0123145
0.0133461
0.0135116
0.0143227
0.016052
0.0164213
0.0161686
0.0175424
0.0191601
0.020412
0.0210513
0.0219978
0.0236125
0.0250609
0.0261131
0.0270095
0.0275902
0.00160057
0.0140153
0.0108526
0.0122733
0.0134077
0.0134925
0.0143205
0.0160134
0.0164588
0.0161572
0.0175254
0.0191583
0.0203622
0.0210013
0.0218929
0.0234621
0.024861
0.0258277
0.0266297
0.0271524
0.00170961
0.014039
0.0108538
0.0122295
0.0134704
0.0134715
0.0143183
0.0159775
0.0164883
0.0161529
0.0174991
0.0191571
0.0203122
0.0209404
0.0217826
0.0233047
0.0246548
0.025537
0.0262462
0.0267151
0.00182212
0.01406
0.0108586
0.012183
0.0135341
0.0134487
0.0143151
0.0159457
0.0165091
0.0161552
0.0174648
0.0191534
0.0202637
0.020869
0.0216638
0.0231399
0.0244444
0.0252424
0.0258586
0.026279
0.00193821
0.0140778
0.0108674
0.0121336
0.0135987
0.0134249
0.0143097
0.015919
0.0165206
0.0161631
0.0174246
0.0191443
0.0202177
0.0207888
0.0215351
0.0229683
0.0242309
0.0249469
0.0254685
0.0258442
0.002058
0.0140921
0.0108803
0.0120813
0.0136639
0.0134007
0.0143009
0.0158981
0.0165229
0.0161751
0.0173805
0.0191265
0.0201739
0.0207024
0.0213959
0.0227914
0.0240136
0.0246531
0.0250793
0.0254113
0.00218161
0.0141023
0.0108977
0.0120262
0.0137294
0.0133768
0.0142879
0.0158835
0.0165166
0.0161892
0.0173356
0.0190982
0.0201306
0.0206127
0.0212464
0.0225988
0.0237931
0.024363
0.0246945
0.0249812
0.00230915
0.0141081
0.0109198
0.0119681
0.0137947
0.0133539
0.0142696
0.0158757
0.0165026
0.0162025
0.0172931
0.0190587
0.0200847
0.0205223
0.0210882
0.022392
0.0235737
0.0240776
0.0243187
0.0245553
0.00244075
0.014109
0.0109468
0.0119073
0.0138592
0.0133329
0.0142449
0.0158745
0.0164822
0.0162125
0.0172549
0.0190084
0.0200321
0.0204324
0.0209243
0.0221725
0.0233373
0.0237979
0.023956
0.0241354
0.00257652
0.0141045
0.0109789
0.0118438
0.0139224
0.0133151
0.0142129
0.0158792
0.0164575
0.0162161
0.0172228
0.0189492
0.0199694
0.020343
0.0207579
0.0219406
0.023091
0.0235248
0.023607
0.0237241
0.00271657
0.0140943
0.0110163
0.0117778
0.0139837
0.0133014
0.0141728
0.0158888
0.0164311
0.0162105
0.017196
0.0188846
0.0198938
0.0202516
0.0205927
0.0216984
0.0228343
0.0232494
0.0232699
0.0233239
0.00286103
0.0140777
0.0110592
0.0117097
0.0140421
0.0132929
0.0141243
0.0159019
0.0164056
0.0161937
0.0171725
0.0188189
0.0198042
0.0201532
0.0204315
0.0214513
0.0225673
0.0229724
0.0229424
0.0229356
0.00301
0.0140545
0.0111077
0.0116398
0.0140968
0.0132907
0.0140664
0.0159164
0.0163839
0.0161641
0.0171493
0.018756
0.0197016
0.0200424
0.0202745
0.0212054
0.0222914
0.0226913
0.0226204
0.0225583
0.0031636
0.0140241
0.0111617
0.0115686
0.0141467
0.0132957
0.0140006
0.0159299
0.0163688
0.0161216
0.0171224
0.0186984
0.019589
0.0199152
0.0201197
0.0209664
0.0220099
0.0224041
0.0222991
0.0221905
0.0033219
0.0139862
0.0112213
0.0114968
0.0141908
0.013309
0.0139268
0.0159397
0.0163624
0.0160678
0.0170863
0.0186469
0.0194716
0.0197695
0.0199617
0.0207378
0.0217282
0.0221103
0.0219744
0.0218297
0.00348501
0.0139405
0.0112865
0.0114251
0.0142279
0.013331
0.0138464
0.0159429
0.0163656
0.0160048
0.0170367
0.0186008
0.0193556
0.0196059
0.0197926
0.02052
0.0214528
0.0218128
0.0216448
0.0214723
0.00365298
0.0138866
0.0113569
0.0113543
0.0142569
0.0133622
0.0137606
0.015937
0.0163794
0.0159357
0.0169698
0.0185577
0.0192462
0.0194271
0.0196051
0.0203104
0.0211902
0.0215172
0.0213127
0.0211157
0.00382588
0.0138243
0.0114322
0.0112854
0.0142764
0.013403
0.0136713
0.015919
0.0164032
0.0158648
0.0168827
0.0185132
0.0191469
0.0192397
0.0193943
0.020102
0.0209448
0.0212304
0.0209833
0.0207594
0.00400374
0.0137535
0.0115122
0.0112195
0.0142855
0.0134529
0.0135808
0.0158862
0.0164358
0.0157974
0.0167742
0.0184612
0.0190591
0.019053
0.019158
0.0198823
0.0207174
0.020962
0.0206638
0.0204046
0.00418657
0.013674
0.0115961
0.0111576
0.014283
0.0135117
0.0134915
0.0158364
0.0164747
0.0157382
0.0166444
0.0183958
0.0189816
0.0188762
0.0188999
0.0196372
0.0205031
0.0207222
0.0203651
0.0200554
0.00437435
0.0135859
0.0116834
0.011101
0.0142679
0.0135784
0.0134058
0.0157683
0.0165167
0.0156913
0.0164955
0.0183115
0.0189115
0.0187163
0.0186293
0.019357
0.0202903
0.0205168
0.0201005
0.0197182
0.00456701
0.0134894
0.0117732
0.0110509
0.0142396
0.0136517
0.0133265
0.0156813
0.0165578
0.0156605
0.0163303
0.0182036
0.0188444
0.018576
0.0183598
0.0190396
0.0200605
0.0203426
0.0198835
0.019402
0.00476447
0.0133848
0.0118645
0.0110085
0.0141978
0.01373
0.013256
0.0155758
0.0165934
0.0156485
0.0161538
0.0180681
0.0187741
0.0184547
0.0181058
0.018691
0.0197949
0.0201878
0.0197232
0.0191187
0.0049666
0.0132724
0.0119561
0.0109749
0.0141422
0.0138111
0.0131968
0.015453
0.0166185
0.0156563
0.0159724
0.0179023
0.0186951
0.0183496
0.0178777
0.0183235
0.0194829
0.0200311
0.0196141
0.0188801
0.00517319
0.0131529
0.0120468
0.0109511
0.0140731
0.0138925
0.0131511
0.015315
0.016628
0.0156826
0.0157931
0.0177052
0.0186024
0.0182561
0.0176805
0.0179543
0.0191254
0.0198468
0.0195388
0.0186915
0.005384
0.0130271
0.0121351
0.0109383
0.0139908
0.0139718
0.0131206
0.0151645
0.0166179
0.0157247
0.0156233
0.0174777
0.0184909
0.018168
0.0175155
0.0176016
0.0187306
0.019613
0.0194694
0.0185484
0.00559873
0.0128958
0.0122196
0.010937
0.0138952
0.014046
0.0131062
0.0150052
0.016584
0.0157781
0.0154704
0.0172226
0.0183564
0.0180789
0.0173812
0.0172813
0.0183121
0.0193145
0.0193694
0.0184345
0.00581703
0.0127601
0.0122989
0.0109479
0.0137903
0.0141123
0.0131085
0.0148411
0.0165236
0.0158372
0.0153404
0.0169448
0.0181952
0.017984
0.0172718
0.0170018
0.0178865
0.0189487
0.0192042
0.0183257
0.00603845
0.0126213
0.0123664
0.0109712
0.0136779
0.0141682
0.0131269
0.0146763
0.0164356
0.0158952
0.0152374
0.0166562
0.0180042
0.0178792
0.0171789
0.0167648
0.0174724
0.0185274
0.0189504
0.0181942
0.0062625
0.0124808
0.0124308
0.0110071
0.013559
0.014211
0.0131603
0.014515
0.0163201
0.0159442
0.0151643
0.0163634
0.0177808
0.0177596
0.0170939
0.0165681
0.0170836
0.0180696
0.0186026
0.0180159
0.00648862
0.0123399
0.0124859
0.0110553
0.0134357
0.0142385
0.0132067
0.0143609
0.0161785
0.015977
0.0151207
0.0160763
0.0175252
0.0176211
0.0170085
0.0164059
0.0167268
0.0175978
0.0181763
0.0177772
0.00671618
0.0122003
0.0125306
0.0111148
0.0133107
0.0142493
0.013263
0.0142173
0.0160137
0.0159878
0.0151028
0.0158048
0.0172406
0.0174603
0.0169152
0.0162709
0.0164042
0.0171334
0.0177003
0.0174786
0.00694449
0.0120635
0.0125642
0.0111842
0.0131866
0.0142425
0.0133259
0.0140868
0.01583
0.0159719
0.0151043
0.0155574
0.0169331
0.0172747
0.0168078
0.0161543
0.0161159
0.0166918
0.0172064
0.0171333
0.00717282
0.0119311
0.0125863
0.011262
0.013066
0.0142178
0.0133914
0.013971
0.0156324
0.0159268
0.0151171
0.0153399
0.0166105
0.0170634
0.0166819
0.0160465
0.0158605
0.0162831
0.0167258
0.0167624
0.00740037
0.0118046
0.0125966
0.0113459
0.0129514
0.0141751
0.0134557
0.013871
0.0154265
0.015852
0.0151313
0.0151553
0.0162826
0.0168267
0.0165348
0.0159386
0.0156365
0.0159133
0.0162798
0.0163865
0.00762636
0.0116854
0.012595
0.0114339
0.0128447
0.0141153
0.0135149
0.0137869
0.0152176
0.0157483
0.0151375
0.0150031
0.0159601
0.0165666
0.0163653
0.0158239
0.0154416
0.0155845
0.0158777
0.0160218
0.00784996
0.0115748
0.012582
0.0115237
0.0127475
0.0140399
0.0135657
0.0137177
0.0150105
0.0156179
0.0151282
0.0148805
0.0156525
0.0162874
0.0161735
0.0156971
0.015271
0.0152961
0.0155207
0.0156779
0.00807039
0.011474
0.0125579
0.011613
0.012661
0.0139508
0.0136049
0.0136619
0.0148092
0.0154647
0.0150982
0.0147814
0.0153664
0.0159949
0.0159615
0.0155544
0.0151175
0.0150454
0.0152053
0.0153587
0.00828679
0.0113835
0.0125239
0.0116995
0.0125858
0.0138498
0.0136302
0.0136169
0.0146168
0.0152935
0.0150466
0.0146984
0.0151077
0.0156963
0.0157324
0.0153947
0.0149735
0.014828
0.0149259
0.0150639
0.00849831
0.011304
0.0124811
0.0117811
0.0125221
0.0137412
0.0136398
0.0135799
0.0144355
0.0151091
0.0149668
0.0146226
0.0148768
0.0153992
0.0154896
0.0152186
0.0148314
0.0146376
0.0146774
0.0147911
0.0087042
0.0112358
0.012431
0.0118561
0.0124694
0.0136273
0.0136331
0.0135477
0.0142664
0.0149165
0.0148639
0.0145466
0.0146728
0.0151111
0.0152377
0.0150283
0.0146855
0.0144664
0.0144551
0.014538
0.00890377
0.011179
0.0123737
0.0119229
0.0124267
0.0135109
0.0136101
0.0135172
0.0141097
0.0147202
0.0147405
0.0144641
0.0144915
0.014838
0.0149815
0.0148266
0.014532
0.0143062
0.0142535
0.0143023
0.00909644
0.0111336
0.012312
0.0119802
0.0123928
0.0133945
0.0135716
0.0134853
0.0139647
0.0145239
0.0145993
0.0143691
0.0143273
0.0145833
0.0147258
0.0146165
0.0143693
0.0141501
0.0140666
0.0140818
0.00928167
0.0110989
0.0122483
0.0120274
0.0123661
0.01328
0.0135186
0.0134494
0.0138306
0.0143308
0.0144414
0.0142614
0.0141887
0.0143487
0.0144751
0.014401
0.0141973
0.013993
0.013889
0.0138736
0.009459
0.0110745
0.0121838
0.0120642
0.0123448
0.0131692
0.0134529
0.0134073
0.0137057
0.0141432
0.0142756
0.0141395
0.0140409
0.0141317
0.0142329
0.0141832
0.0140171
0.0138318
0.0137162
0.013675
0.00962809
0.0110596
0.0121198
0.0120906
0.0123274
0.013063
0.0133764
0.0133577
0.0135881
0.0139624
0.0141041
0.0140048
0.0138964
0.013931
0.0140014
0.0139657
0.0138303
0.0136652
0.0135447
0.0134835
0.00978868
0.0110533
0.0120573
0.0121068
0.012312
0.0129623
0.0132911
0.0132997
0.0134761
0.013789
0.0139297
0.0138597
0.0137514
0.0137436
0.0137818
0.0137511
0.0136391
0.0134932
0.0133727
0.013297
0.00994058
0.0110546
0.0119975
0.0121134
0.0122971
0.0128672
0.0131993
0.0132331
0.0133676
0.0136233
0.0137548
0.0137066
0.0136041
0.0135661
0.0135742
0.0135415
0.0134459
0.0133166
0.0131994
0.0131142
0.0100837
0.0110625
0.0119412
0.0121113
0.0122813
0.0127776
0.0131029
0.0131582
0.013261
0.0134648
0.0135816
0.0135481
0.0134534
0.0133954
0.0133773
0.0133381
0.0132527
0.0131371
0.0130247
0.012934
0.0102181
0.0110761
0.0118889
0.0121013
0.0122636
0.0126932
0.0130036
0.0130758
0.0131551
0.013313
0.0134113
0.0133864
0.0132997
0.0132291
0.0131897
0.0131416
0.0130615
0.0129563
0.0128492
0.0127563
0.0103438
0.0110943
0.011841
0.0120845
0.012243
0.0126134
0.0129031
0.0129868
0.0130487
0.0131671
0.0132449
0.0132237
0.0131435
0.0130656
0.0130098
0.0129523
0.0128738
0.0127759
0.0126741
0.012581
0.0104609
0.0111161
0.0117976
0.012062
0.012219
0.0125374
0.0128025
0.0128925
0.0129414
0.0130262
0.0130831
0.0130614
0.0129861
0.012904
0.0128361
0.0127698
0.0126906
0.0125976
0.0125003
0.0124084
0.0105697
0.0111406
0.0117589
0.012035
0.0121913
0.0124646
0.0127027
0.0127942
0.0128328
0.0128896
0.012926
0.0129009
0.0128285
0.0127441
0.0126675
0.0125937
0.0125127
0.0124225
0.0123289
0.0122389
0.0106703
0.0111669
0.0117246
0.0120044
0.0121599
0.0123944
0.0126046
0.012693
0.0127229
0.0127567
0.0127739
0.0127431
0.0126717
0.012586
0.0125033
0.0124235
0.0123402
0.0122515
0.0121608
0.012073
0.010763
0.0111942
0.0116944
0.0119712
0.0121249
0.012326
0.0125084
0.0125902
0.0126123
0.0126269
0.0126266
0.0125887
0.0125169
0.0124302
0.0123434
0.0122589
0.0121734
0.0120854
0.0119968
0.0119111
0.0108481
0.0112219
0.0116681
0.0119364
0.0120867
0.012259
0.0124145
0.0124869
0.0125012
0.0125
0.012484
0.0124383
0.0123648
0.0122771
0.0121874
0.0120995
0.0120121
0.0119243
0.0118375
0.0117537
0.010926
0.0112494
0.0116452
0.0119005
0.0120458
0.0121931
0.012323
0.0123841
0.0123903
0.0123758
0.0123461
0.0122922
0.0122163
0.0121274
0.0120357
0.0119453
0.0118563
0.0117687
0.0116831
0.0116011
0.0109969
0.0112761
0.0116252
0.0118643
0.0120026
0.012128
0.0122342
0.0122825
0.0122804
0.0122544
0.0122128
0.0121518
0.0120721
0.0119817
0.0118884
0.0117962
0.0117062
0.0116186
0.0115341
0.0114536
0.0110612
0.0113016
0.0116078
0.0118283
0.0119579
0.0120637
0.012148
0.0121829
0.012172
0.0121359
0.0120841
0.0120162
0.0119327
0.0118406
0.0117458
0.0116524
0.0115617
0.0114742
0.0113906
0.0113115
0.0111193
0.0113257
0.0115926
0.011793
0.0119122
0.0120004
0.0120645
0.0120858
0.012066
0.0120208
0.0119599
0.0118852
0.0117982
0.0117043
0.0116084
0.0115141
0.011423
0.0113357
0.0112529
0.0111749
0.0111715
0.011348
0.0115791
0.0117586
0.0118662
0.0119382
0.011984
0.0119918
0.0119628
0.0119093
0.0118405
0.0117596
0.0116692
0.0115734
0.0114765
0.0113816
0.0112902
0.0112032
0.0111211
0.0110442
0.0112181
0.0113685
0.0115671
0.0117255
0.0118204
0.0118774
0.0119065
0.0119014
0.0118633
0.0118021
0.0117262
0.0116398
0.011546
0.0114484
0.0113505
0.0112551
0.0111637
0.011077
0.0109955
0.0109196
0.0112595
0.0113869
0.0115563
0.0116939
0.0117756
0.0118185
0.0118323
0.0118149
0.0117679
0.0116995
0.0116173
0.0115261
0.0114291
0.0113297
0.0112309
0.0111351
0.0110436
0.0109573
0.0108765
0.0108015
0.0112961
0.0114035
0.0115466
0.011664
0.0117322
0.0117618
0.0117619
0.0117329
0.0116773
0.0116022
0.0115143
0.0114187
0.0113188
0.0112177
0.0111181
0.0110219
0.0109305
0.0108445
0.0107643
0.0106901
0.0113282
0.0114181
0.0115377
0.0116361
0.0116908
0.0117079
0.0116955
0.0116558
0.0115921
0.0115106
0.0114176
0.0113181
0.0112156
0.0111129
0.0110125
0.010916
0.0108246
0.0107389
0.0106593
0.0105858
0.0113562
0.0114309
0.0115298
0.0116104
0.0116519
0.0116574
0.0116336
0.0115841
0.0115128
0.0114254
0.0113278
0.0112248
0.0111199
0.0110157
0.0109145
0.0108178
0.0107265
0.0106411
0.010562
0.0104891
0.0113804
0.011442
0.0115227
0.0115871
0.0116162
0.0116108
0.0115768
0.0115185
0.0114401
0.0113473
0.0112455
0.0111394
0.0110322
0.0109267
0.0108248
0.0107278
0.0106365
0.0105515
0.0104728
0.0104005
0.0114011
0.0114516
0.0115167
0.0115665
0.011584
0.0115687
0.0115257
0.0114594
0.0113747
0.0112769
0.0111713
0.0110623
0.0109531
0.0108464
0.0107439
0.0106467
0.0105554
0.0104706
0.0103923
0.0103205
0.0114187
0.01146
0.0115118
0.0115489
0.011556
0.0115319
0.0114809
0.0114077
0.0113173
0.011215
0.0111059
0.0109943
0.0108833
0.0107754
0.0106723
0.0105749
0.0104838
0.0103992
0.0103212
0.0102498
0.0114335
0.0114673
0.0115083
0.0115347
0.0115329
0.0115012
0.0114434
0.0113643
0.0112689
0.0111624
0.0110501
0.010936
0.0108235
0.0107146
0.0106108
0.010513
0.0104219
0.0103376
0.0102601
0.010189
0.0114455
0.0114736
0.0115062
0.0115241
0.0115151
0.0114773
0.0114141
0.0113302
0.0112306
0.0111205
0.0110052
0.010889
0.010775
0.0106652
0.010561
0.010463
0.0103715
0.010287
0.0102095
0.0101388
0.0114552
0.011479
0.0115053
0.0115166
0.0115019
0.0114594
0.0113924
0.011305
0.011202
0.0110886
0.0109704
0.010852
0.0107368
0.0106263
0.0105217
0.0104238
0.0103328
0.0102487
0.0101716
0.010101
0.011464
0.0114877
0.0115115
0.0115189
0.0115003
0.0114545
0.0113846
0.0112948
0.011189
0.011072
0.0109502
0.0108289
0.0107113
0.0105995
0.0104945
0.0103963
0.0103051
0.010221
0.0101439
0.0100733
0.0464525
0.0221189
0.0120852
0.0103664
0.0100144
0.00941761
0.00866026
0.00783119
0.00713025
0.00675905
0.00645987
0.00596057
0.00541252
0.00496692
0.00451883
0.00397528
0.00337201
0.00274702
0.00209329
0.00140186
0.000676473
-7.88638e-05
-0.000863969
-0.00167966
-0.0025266
-0.00340556
-0.00431758
-0.00526377
-0.00624536
-0.00726361
-0.00831987
-0.00941553
-0.010552
-0.0117309
-0.0129537
-0.0142222
-0.0155377
-0.0169026
-0.0183177
-0.0197868
-0.0213082
-0.0228901
-0.0245253
-0.026228
-0.0279889
-0.0298123
-0.0317256
-0.0336689
-0.0357434
-0.037936
0.0455787
0.0221658
0.0121279
0.0103839
0.010024
0.00942366
0.00866424
0.00783369
0.00713159
0.00675967
0.00646019
0.00596077
0.0054126
0.00496692
0.00451881
0.00397527
0.003372
0.00274701
0.00209328
0.00140186
0.00067647
-7.88656e-05
-0.000863971
-0.00167966
-0.0025266
-0.00340556
-0.00431758
-0.00526377
-0.00624536
-0.00726361
-0.00831987
-0.00941553
-0.010552
-0.0117309
-0.0129537
-0.0142222
-0.0155377
-0.0169026
-0.0183177
-0.0197868
-0.0213082
-0.0228901
-0.0245253
-0.026228
-0.0279889
-0.0298123
-0.0317256
-0.0336689
-0.0357434
-0.0379361
0.044818
0.0222595
0.0121971
0.0104059
0.0100348
0.00943055
0.00866881
0.00783667
0.0071333
0.00676055
0.00646068
0.00596103
0.0054127
0.00496695
0.00451882
0.00397526
0.00337199
0.002747
0.00209328
0.00140186
0.000676468
-7.88672e-05
-0.000863972
-0.00167967
-0.0025266
-0.00340556
-0.00431758
-0.00526377
-0.00624536
-0.00726361
-0.00831987
-0.00941553
-0.010552
-0.0117309
-0.0129537
-0.0142222
-0.0155377
-0.0169026
-0.0183177
-0.0197868
-0.0213082
-0.0228901
-0.0245253
-0.026228
-0.0279889
-0.0298123
-0.0317256
-0.0336689
-0.0357435
-0.0379361
0.0441307
0.0223821
0.0122987
0.0104386
0.0100499
0.00944032
0.00867563
0.00784153
0.00713648
0.00676236
0.00646163
0.00596151
0.00541294
0.00496708
0.00451887
0.00397526
0.00337198
0.002747
0.00209328
0.00140185
0.000676465
-7.8869e-05
-0.000863973
-0.00167967
-0.0025266
-0.00340556
-0.00431758
-0.00526377
-0.00624536
-0.00726361
-0.00831987
-0.00941553
-0.010552
-0.0117309
-0.0129537
-0.0142222
-0.0155377
-0.0169026
-0.0183177
-0.0197868
-0.0213082
-0.0228901
-0.0245253
-0.026228
-0.0279889
-0.0298123
-0.0317256
-0.0336689
-0.0357435
-0.0379362
0.0434541
0.022516
0.0124259
0.0104822
0.0100706
0.00945436
0.00868604
0.00784965
0.00714238
0.00676597
0.0064635
0.00596247
0.00541351
0.00496741
0.00451901
0.00397528
0.00337198
0.00274699
0.00209327
0.00140185
0.000676461
-7.88715e-05
-0.000863975
-0.00167967
-0.0025266
-0.00340557
-0.00431758
-0.00526377
-0.00624536
-0.00726361
-0.00831987
-0.00941553
-0.010552
-0.0117309
-0.0129537
-0.0142222
-0.0155377
-0.0169026
-0.0183177
-0.0197868
-0.0213082
-0.0228901
-0.0245253
-0.026228
-0.0279889
-0.0298123
-0.0317256
-0.0336689
-0.0357435
-0.0379363
0.0427699
0.0226525
0.0125669
0.010532
0.0100954
0.00947252
0.00870038
0.00786161
0.00715171
0.00677199
0.00646671
0.00596418
0.0054146
0.00496809
0.00451931
0.00397536
0.00337197
0.00274699
0.00209327
0.00140184
0.000676456
-7.8875e-05
-0.000863977
-0.00167967
-0.0025266
-0.00340557
-0.00431758
-0.00526377
-0.00624536
-0.00726361
-0.00831987
-0.00941553
-0.010552
-0.0117309
-0.0129537
-0.0142222
-0.0155377
-0.0169026
-0.0183177
-0.0197868
-0.0213082
-0.0228901
-0.0245253
-0.026228
-0.0279889
-0.0298123
-0.0317256
-0.0336689
-0.0357435
-0.0379365
0.042078
0.0227869
0.0127146
0.0105845
0.0101225
0.00949363
0.00871797
0.00787707
0.00716445
0.00678058
0.00647143
0.00596678
0.00541635
0.00496923
0.00451985
0.00397553
0.00337201
0.00274701
0.00209327
0.00140183
0.000676448
-7.88796e-05
-0.00086398
-0.00167967
-0.0025266
-0.00340557
-0.00431758
-0.00526377
-0.00624536
-0.00726361
-0.00831987
-0.00941553
-0.010552
-0.0117309
-0.0129537
-0.0142222
-0.0155377
-0.0169026
-0.0183177
-0.0197868
-0.0213082
-0.0228901
-0.0245253
-0.026228
-0.0279889
-0.0298123
-0.0317256
-0.0336689
-0.0357435
-0.0379366
0.0413811
0.0229171
0.0128667
0.010638
0.0101504
0.0095165
0.0087378
0.00789511
0.00717988
0.00679135
0.00647753
0.00597025
0.00541877
0.00497086
0.00452067
0.00397582
0.00337211
0.00274705
0.00209328
0.00140183
0.00067644
-7.88851e-05
-0.000863983
-0.00167967
-0.0025266
-0.00340557
-0.00431758
-0.00526377
-0.00624536
-0.00726361
-0.00831987
-0.00941553
-0.010552
-0.0117309
-0.0129537
-0.0142222
-0.0155377
-0.0169026
-0.0183177
-0.0197868
-0.0213082
-0.0228901
-0.0245253
-0.026228
-0.0279889
-0.0298123
-0.0317256
-0.0336689
-0.0357435
-0.0379368
0.0406812
0.0230418
0.0130225
0.0106919
0.0101783
0.00954034
0.008759
0.00791477
0.00719709
0.00680369
0.00648469
0.00597442
0.00542175
0.00497293
0.00452177
0.00397626
0.00337228
0.00274712
0.0020933
0.00140182
0.00067643
-7.88911e-05
-0.000863987
-0.00167968
-0.00252661
-0.00340557
-0.00431758
-0.00526378
-0.00624536
-0.00726361
-0.00831987
-0.00941553
-0.010552
-0.0117309
-0.0129537
-0.0142222
-0.0155377
-0.0169026
-0.0183177
-0.0197868
-0.0213082
-0.0228901
-0.0245253
-0.026228
-0.0279889
-0.0298123
-0.0317256
-0.0336689
-0.0357436
-0.0379369
0.0399796
0.0231602
0.0131821
0.0107463
0.010206
0.00956475
0.0087811
0.00793541
0.00721537
0.00681703
0.00649257
0.00597907
0.00542513
0.00497534
0.0045231
0.00397683
0.00337251
0.00274722
0.00209332
0.00140182
0.000676421
-7.88974e-05
-0.000863991
-0.00167968
-0.00252661
-0.00340557
-0.00431758
-0.00526378
-0.00624536
-0.00726361
-0.00831987
-0.00941553
-0.010552
-0.0117309
-0.0129537
-0.0142222
-0.0155377
-0.0169026
-0.0183177
-0.0197868
-0.0213082
-0.0228901
-0.0245253
-0.026228
-0.0279889
-0.0298123
-0.0317256
-0.0336689
-0.0357436
-0.0379371
0.0392774
0.0232711
0.0133455
0.0108014
0.0102332
0.00958953
0.00880391
0.00795674
0.00723433
0.00683102
0.00650094
0.00598404
0.00542876
0.00497799
0.0045246
0.00397749
0.00337278
0.00274734
0.00209337
0.00140182
0.000676413
-7.89035e-05
-0.000863994
-0.00167968
-0.00252661
-0.00340557
-0.00431758
-0.00526378
-0.00624536
-0.00726361
-0.00831987
-0.00941553
-0.010552
-0.0117309
-0.0129537
-0.0142222
-0.0155377
-0.0169026
-0.0183177
-0.0197868
-0.0213082
-0.0228901
-0.0245253
-0.026228
-0.0279889
-0.0298123
-0.0317256
-0.0336689
-0.0357436
-0.0379373
0.0385754
0.0233738
0.0135127
0.0108573
0.01026
0.00961461
0.00882737
0.00797866
0.00725382
0.0068455
0.00650968
0.00598924
0.00543257
0.00498081
0.00452623
0.00397823
0.0033731
0.00274748
0.00209342
0.00140182
0.000676405
-7.89093e-05
-0.000863998
-0.00167968
-0.00252661
-0.00340557
-0.00431758
-0.00526378
-0.00624536
-0.00726361
-0.00831987
-0.00941553
-0.010552
-0.0117309
-0.0129537
-0.0142222
-0.0155377
-0.0169026
-0.0183177
-0.0197868
-0.0213082
-0.0228901
-0.0245253
-0.026228
-0.0279889
-0.0298123
-0.0317256
-0.0336688
-0.0357436
-0.0379375
0.037875
0.0234674
0.013684
0.0109145
0.0102862
0.00963991
0.00885151
0.00800118
0.00727384
0.00686044
0.00651876
0.00599463
0.00543651
0.00498375
0.00452797
0.00397902
0.00337344
0.00274764
0.00209347
0.00140183
0.000676399
-7.89146e-05
-0.000864001
-0.00167969
-0.00252661
-0.00340557
-0.00431758
-0.00526378
-0.00624536
-0.00726361
-0.00831987
-0.00941553
-0.010552
-0.0117309
-0.0129537
-0.0142222
-0.0155377
-0.0169026
-0.0183177
-0.0197868
-0.0213082
-0.0228901
-0.0245253
-0.026228
-0.0279889
-0.0298123
-0.0317256
-0.0336688
-0.0357437
-0.0379377
0.0371772
0.0235514
0.0138593
0.0109733
0.0103117
0.00966538
0.00887635
0.00802435
0.00729439
0.00687586
0.00652816
0.0060002
0.00544058
0.00498681
0.0045298
0.00397987
0.00337381
0.00274781
0.00209354
0.00140184
0.000676395
-7.89192e-05
-0.000864004
-0.00167969
-0.00252661
-0.00340557
-0.00431759
-0.00526378
-0.00624536
-0.00726361
-0.00831987
-0.00941553
-0.010552
-0.0117309
-0.0129537
-0.0142222
-0.0155377
-0.0169026
-0.0183177
-0.0197868
-0.0213082
-0.0228901
-0.0245253
-0.026228
-0.0279889
-0.0298123
-0.0317256
-0.0336688
-0.0357437
-0.0379379
0.0364835
0.0236249
0.0140388
0.0110342
0.0103365
0.00969092
0.00890192
0.00804822
0.00731554
0.00689178
0.00653793
0.00600596
0.00544477
0.00498999
0.00453171
0.00398076
0.0033742
0.002748
0.00209362
0.00140186
0.000676391
-7.89231e-05
-0.000864006
-0.00167969
-0.00252662
-0.00340558
-0.00431759
-0.00526378
-0.00624536
-0.00726361
-0.00831987
-0.00941553
-0.010552
-0.0117309
-0.0129537
-0.0142222
-0.0155377
-0.0169026
-0.0183177
-0.0197868
-0.0213082
-0.0228901
-0.0245253
-0.026228
-0.0279889
-0.0298123
-0.0317256
-0.0336688
-0.0357437
-0.0379381
0.0357947
0.023687
0.0142223
0.0110976
0.0103606
0.00971643
0.00892821
0.00807282
0.00733731
0.00690823
0.00654805
0.00601192
0.00544909
0.00499329
0.00453373
0.00398171
0.00337461
0.00274819
0.0020937
0.00140188
0.00067639
-7.89263e-05
-0.000864008
-0.00167969
-0.00252662
-0.00340558
-0.00431759
-0.00526378
-0.00624536
-0.00726361
-0.00831987
-0.00941553
-0.010552
-0.0117309
-0.0129537
-0.0142222
-0.0155377
-0.0169026
-0.0183177
-0.0197868
-0.0213082
-0.0228901
-0.0245253
-0.026228
-0.0279889
-0.0298123
-0.0317256
-0.0336687
-0.0357438
-0.0379384
0.0351121
0.023737
0.0144096
0.011164
0.010384
0.00974175
0.00895523
0.00809819
0.00735973
0.00692524
0.00655856
0.00601808
0.00545355
0.00499672
0.00453584
0.0039827
0.00337504
0.00274841
0.00209379
0.0014019
0.00067639
-7.89285e-05
-0.00086401
-0.00167969
-0.00252662
-0.00340558
-0.00431759
-0.00526378
-0.00624536
-0.00726361
-0.00831987
-0.00941553
-0.010552
-0.0117309
-0.0129537
-0.0142222
-0.0155377