/*--------------------------------*- C++ -*----------------------------------*\
| =========                 |                                                 |
| \\      /  F ield         | OpenFOAM: The Open Source CFD Toolbox           |
|  \\    /   O peration     | Version:  v2012                                 |
|   \\  /    A nd           | Website:  www.openfoam.com                      |
|    \\/     M anipulation  |                                                 |
\*---------------------------------------------------------------------------*/
FoamFile
{
    version     2.0;
    format      ascii;
    class       surfaceScalarField;
    location    "0.1";
    object      phi;
}
// * * * * * * * * * * * * * * * * * * * * * * * * * * * * * * * * * * * * * //

dimensions      [0 3 -1 0 0 0 0];
oriented        oriented;


internalField   nonuniform List<scalar> 
13830
(
9.63891e-07
-2.82743e-06
9.4718e-07
4.06678e-06
9.7645e-07
-1.82568e-06
9.65986e-07
-1.21169e-06
9.59754e-07
2.31767e-07
9.49266e-07
1.06361e-06
9.6685e-07
-2.42026e-07
9.59544e-07
-8.40769e-07
9.72882e-07
-8.19195e-07
9.60088e-07
-2.45367e-07
9.63122e-07
1.8936e-07
9.39851e-07
1.55626e-07
9.454e-07
2.68595e-07
9.49315e-07
1.79279e-07
9.49817e-07
-8.97471e-08
9.43613e-07
-1.29341e-07
9.47854e-07
-2.22536e-07
9.38748e-07
-2.09942e-07
9.4389e-07
-1.48729e-07
-1.94341e-07
9.21273e-07
1.00392e-06
-2.85881e-06
9.92534e-07
4.07816e-06
1.01953e-06
-1.85268e-06
1.00279e-06
-1.19496e-06
9.95601e-07
2.38958e-07
9.9623e-07
1.06298e-06
1.003e-06
-2.48795e-07
9.93549e-07
-8.31319e-07
1.00976e-06
-8.35407e-07
9.99358e-07
-2.34963e-07
9.97427e-07
1.91291e-07
9.82326e-07
1.70727e-07
9.78655e-07
2.72266e-07
9.93906e-07
1.64028e-07
9.8344e-07
-7.92816e-08
9.8758e-07
-1.33481e-07
9.78363e-07
-2.13319e-07
9.8142e-07
-2.12999e-07
9.71503e-07
-1.38812e-07
-1.90502e-07
9.67664e-07
1.04156e-06
-2.89091e-06
1.04147e-06
4.07825e-06
1.05726e-06
-1.86847e-06
1.04371e-06
-1.1814e-06
1.03522e-06
2.47444e-07
1.04473e-06
1.05347e-06
1.03842e-06
-2.42481e-07
1.0297e-06
-8.22606e-07
1.04275e-06
-8.4846e-07
1.04186e-06
-2.34066e-07
1.03259e-06
2.00563e-07
1.02879e-06
1.74519e-07
1.01909e-06
2.81967e-07
1.03574e-06
1.47377e-07
1.02097e-06
-6.4503e-08
1.02542e-06
-1.37931e-07
1.01175e-06
-1.99655e-07
1.01623e-06
-2.17478e-07
1.00501e-06
-1.27588e-07
-1.88519e-07
1.00302e-06
1.07968e-06
-2.92282e-06
1.09083e-06
4.0671e-06
1.09103e-06
-1.86867e-06
1.08578e-06
-1.17615e-06
1.07995e-06
2.53276e-07
1.0922e-06
1.04122e-06
1.07369e-06
-2.23968e-07
1.06558e-06
-8.14496e-07
1.0736e-06
-8.56484e-07
1.08222e-06
-2.42689e-07
1.07183e-06
2.10952e-07
1.07361e-06
1.7274e-07
1.06639e-06
2.89188e-07
1.07661e-06
1.3716e-07
1.06187e-06
-4.97656e-08
1.06252e-06
-1.38581e-07
1.04819e-06
-1.85319e-07
1.05103e-06
-2.20322e-07
1.0406e-06
-1.17163e-07
-1.86007e-07
1.03809e-06
1.11821e-06
-2.95347e-06
1.13888e-06
4.04642e-06
1.12254e-06
-1.85232e-06
1.12708e-06
-1.18069e-06
1.12875e-06
2.51603e-07
1.13877e-06
1.03121e-06
1.11091e-06
-1.9611e-07
1.10113e-06
-8.04716e-07
1.1049e-06
-8.60253e-07
1.12014e-06
-2.57928e-07
1.11434e-06
2.16751e-07
1.11781e-06
1.69272e-07
1.11512e-06
2.91875e-07
1.11922e-06
1.33061e-07
1.10402e-06
-3.45729e-08
1.10171e-06
-1.36262e-07
1.08686e-06
-1.70471e-07
1.08772e-06
-2.21182e-07
1.07801e-06
-1.07457e-07
-1.82099e-07
1.0741e-06
1.15712e-06
-2.98174e-06
1.18482e-06
4.01871e-06
1.15469e-06
-1.8222e-06
1.16677e-06
-1.19276e-06
1.17852e-06
2.39846e-07
1.18462e-06
1.02511e-06
1.1511e-06
-1.62591e-07
1.13781e-06
-7.91421e-07
1.13852e-06
-8.60961e-07
1.15755e-06
-2.76961e-07
1.15791e-06
2.16389e-07
1.16222e-06
1.64968e-07
1.16201e-06
2.92085e-07
1.16302e-06
1.32043e-07
1.14655e-06
-1.80953e-08
1.14268e-06
-1.32393e-07
1.12724e-06
-1.55034e-07
1.12624e-06
-2.20182e-07
1.11703e-06
-9.82459e-08
-1.76622e-07
1.11155e-06
1.19645e-06
-3.00649e-06
1.22857e-06
3.98659e-06
1.1898e-06
-1.78343e-06
1.20511e-06
-1.20807e-06
1.22596e-06
2.18998e-07
1.22946e-06
1.0216e-06
1.19385e-06
-1.2698e-07
1.17695e-06
-7.7452e-07
1.17486e-06
-8.5887e-07
1.19574e-06
-2.97841e-07
1.20089e-06
2.11243e-07
1.20634e-06
1.59514e-07
1.20645e-06
2.91978e-07
1.2068e-06
1.31687e-07
1.18933e-06
-6.18139e-10
1.18492e-06
-1.27991e-07
1.16922e-06
-1.3933e-07
1.16659e-06
-2.1755e-07
1.15785e-06
-8.95058e-08
-1.69687e-07
1.15091e-06
1.2363e-06
-3.02661e-06
1.27076e-06
3.95213e-06
1.22887e-06
-1.74154e-06
1.24296e-06
-1.22216e-06
1.26925e-06
1.92711e-07
1.27285e-06
1.01801e-06
1.23825e-06
-9.23758e-08
1.21909e-06
-7.55366e-07
1.2137e-06
-8.53478e-07
1.23486e-06
-3.19001e-07
1.24264e-06
2.03467e-07
1.24943e-06
1.52718e-07
1.24895e-06
2.92464e-07
1.24994e-06
1.30692e-07
1.23249e-06
1.68383e-08
1.22823e-06
-1.2374e-07
1.21287e-06
-1.23964e-07
1.20883e-06
-2.13511e-07
1.20069e-06
-8.13673e-08
-1.61496e-07
1.1925e-06
1.27687e-06
-3.04113e-06
1.31235e-06
3.91665e-06
1.27169e-06
-1.70088e-06
1.28129e-06
-1.23176e-06
1.30865e-06
1.65352e-07
1.31476e-06
1.0119e-06
1.28367e-06
-6.1292e-08
1.26412e-06
-7.35808e-07
1.25488e-06
-8.4424e-07
1.27474e-06
-3.38865e-07
1.28328e-06
1.94933e-07
1.29131e-06
1.44682e-07
1.29029e-06
2.93485e-07
1.29259e-06
1.28391e-07
1.27631e-06
3.31225e-08
1.27265e-06
-1.20087e-07
1.25827e-06
-1.09584e-07
1.25301e-06
-2.08248e-07
1.24563e-06
-7.39862e-08
-1.52312e-07
1.23645e-06
1.31848e-06
-3.04934e-06
1.3544e-06
3.88074e-06
1.31755e-06
-1.66403e-06
1.32099e-06
-1.23521e-06
1.34595e-06
1.40394e-07
1.35592e-06
1.00192e-06
1.33007e-06
-3.54414e-08
1.31168e-06
-7.17418e-07
1.29848e-06
-8.31041e-07
1.31562e-06
-3.56001e-07
1.32353e-06
1.87023e-07
1.3326e-06
1.3561e-07
1.33149e-06
2.94591e-07
1.33547e-06
1.24415e-07
1.32126e-06
4.73347e-08
1.31839e-06
-1.17222e-07
1.30551e-06
-9.67085e-08
1.29916e-06
-2.01892e-07
1.29263e-06
-6.74541e-08
-1.42442e-07
1.28276e-06
1.36161e-06
-3.05093e-06
1.39789e-06
3.84446e-06
1.3658e-06
-1.63194e-06
1.36288e-06
-1.23229e-06
1.38355e-06
1.19731e-07
1.39767e-06
9.87799e-07
1.37775e-06
-1.55155e-08
1.36147e-06
-7.01139e-07
1.3447e-06
-8.14269e-07
1.35819e-06
-3.69499e-07
1.3646e-06
1.80621e-07
1.37452e-06
1.25689e-07
1.3738e-06
2.95313e-07
1.37957e-06
1.18647e-07
1.36792e-06
5.89827e-08
1.36574e-06
-1.15044e-07
1.35467e-06
-8.56436e-08
1.34732e-06
-1.94533e-07
1.34162e-06
-6.17587e-08
-1.32196e-07
1.33138e-06
1.40681e-06
-3.04609e-06
1.44367e-06
3.8076e-06
1.41614e-06
-1.60441e-06
1.40762e-06
-1.22377e-06
1.42356e-06
1.03794e-07
1.44148e-06
9.69873e-07
1.42716e-06
-1.19399e-09
1.41328e-06
-6.87263e-07
1.39365e-06
-7.94631e-07
1.40335e-06
-3.79198e-07
1.40787e-06
1.76101e-07
1.41847e-06
1.15083e-07
1.41845e-06
2.95334e-07
1.42583e-06
1.11265e-07
1.41685e-06
6.79643e-08
1.41501e-06
-1.132e-07
1.40584e-06
-7.64826e-08
1.39756e-06
-1.86249e-07
1.3926e-06
-5.67979e-08
-1.21844e-07
1.38225e-06
1.45459e-06
-3.03543e-06
1.49236e-06
3.76983e-06
1.46853e-06
-1.58058e-06
1.45565e-06
-1.21088e-06
1.46737e-06
9.20714e-08
1.48848e-06
9.48764e-07
1.47872e-06
8.56061e-09
1.46705e-06
-6.75592e-07
1.44533e-06
-7.72909e-07
1.45173e-06
-3.85595e-07
1.45444e-06
1.73385e-07
1.46555e-06
1.03974e-07
1.46638e-06
2.94508e-07
1.47491e-06
1.02732e-07
1.46844e-06
7.44328e-08
1.46642e-06
-1.11174e-07
1.45907e-06
-6.91388e-08
1.44997e-06
-1.77143e-07
1.44559e-06
-5.24224e-08
-1.11578e-07
1.43533e-06
1.50532e-06
-3.01988e-06
1.54432e-06
3.73082e-06
1.52306e-06
-1.55931e-06
1.50716e-06
-1.19499e-06
1.51558e-06
8.36474e-08
1.53923e-06
9.25112e-07
1.53271e-06
1.50801e-08
1.5228e-06
-6.65676e-07
1.49966e-06
-7.49766e-07
1.5036e-06
-3.89536e-07
1.50489e-06
1.7209e-07
1.51629e-06
9.2575e-08
1.51801e-06
2.92792e-07
1.52705e-06
9.36917e-08
1.52286e-06
7.86225e-08
1.5201e-06
-1.08417e-07
1.5144e-06
-6.34416e-08
1.50461e-06
-1.67346e-07
1.50066e-06
-4.84755e-08
-1.01521e-07
1.4906e-06
1.55918e-06
-3.00044e-06
1.59968e-06
3.69032e-06
1.57982e-06
-1.53945e-06
1.56212e-06
-1.17728e-06
1.56816e-06
7.7599e-08
1.5938e-06
8.99473e-07
1.58926e-06
1.96271e-08
1.5806e-06
-6.57017e-07
1.5565e-06
-7.25673e-07
1.55885e-06
-3.91882e-07
1.55923e-06
1.7171e-07
1.57067e-06
8.11305e-08
1.57331e-06
2.90151e-07
1.58217e-06
8.48359e-08
1.58006e-06
8.07339e-08
1.57616e-06
-1.04516e-07
1.57186e-06
-5.91479e-08
1.56154e-06
-1.57017e-07
1.55787e-06
-4.48131e-08
-9.17425e-08
1.54809e-06
1.61614e-06
-2.97804e-06
1.65836e-06
3.64809e-06
1.63891e-06
-1.52e-06
1.62033e-06
-1.1587e-06
1.62473e-06
7.31976e-08
1.65193e-06
8.7228e-07
1.64836e-06
2.31902e-08
1.64054e-06
-6.49195e-07
1.61579e-06
-7.00925e-07
1.6172e-06
-3.93289e-07
1.61715e-06
1.71757e-07
1.62838e-06
6.99079e-08
1.63203e-06
2.86497e-07
1.64006e-06
7.68017e-08
1.63988e-06
8.09221e-08
1.63469e-06
-9.9326e-08
1.63148e-06
-5.59444e-08
1.62081e-06
-1.46347e-07
1.61731e-06
-4.13131e-08
-8.2279e-08
1.60785e-06
1.67607e-06
-2.95337e-06
1.72018e-06
3.60399e-06
1.70037e-06
-1.50019e-06
1.68158e-06
-1.1399e-06
1.68481e-06
6.99614e-08
1.71326e-06
8.43836e-07
1.71001e-06
2.6434e-08
1.70273e-06
-6.41913e-07
1.67751e-06
-6.75703e-07
1.67836e-06
-3.9414e-07
1.6783e-06
1.71817e-07
1.68901e-06
5.91965e-08
1.69385e-06
2.81656e-07
1.70052e-06
7.01301e-08
1.70213e-06
7.93147e-08
1.69572e-06
-9.2913e-08
1.69329e-06
-5.35156e-08
1.68248e-06
-1.35542e-07
1.67905e-06
-3.78796e-08
-7.31537e-08
1.66993e-06
1.73883e-06
-2.92688e-06
1.78494e-06
3.55788e-06
1.76425e-06
-1.4795e-06
1.74565e-06
-1.1213e-06
1.74799e-06
6.76218e-08
1.7775e-06
8.14333e-07
1.77418e-06
2.97464e-08
1.76725e-06
-6.34978e-07
1.74168e-06
-6.5014e-07
1.74212e-06
-3.94579e-07
1.7424e-06
1.71542e-07
1.75228e-06
4.93124e-08
1.75857e-06
2.75374e-07
1.76352e-06
6.51737e-08
1.76674e-06
7.60951e-08
1.75931e-06
-8.54786e-08
1.75735e-06
-5.15546e-08
1.74661e-06
-1.24804e-07
1.74317e-06
-3.44462e-08
-6.43841e-08
1.7344e-06
1.80431e-06
-2.89885e-06
1.8525e-06
3.50969e-06
1.8306e-06
-1.4576e-06
1.81245e-06
-1.10315e-06
1.81401e-06
6.60582e-08
1.84446e-06
7.83882e-07
1.84089e-06
3.33186e-08
1.83418e-06
-6.28263e-07
1.80839e-06
-6.24359e-07
1.8084e-06
-3.94584e-07
1.80932e-06
1.70622e-07
1.81803e-06
4.06017e-08
1.826e-06
2.674e-07
1.82911e-06
6.20715e-08
1.83368e-06
7.15193e-08
1.82552e-06
-7.73126e-08
1.82373e-06
-4.97709e-08
1.81323e-06
-1.14305e-07
1.80977e-06
-3.09816e-08
-5.5985e-08
1.80137e-06
1.87244e-06
-2.8694e-06
1.9228e-06
3.45933e-06
1.89948e-06
-1.43428e-06
1.88193e-06
-1.08559e-06
1.88275e-06
6.52359e-08
1.91409e-06
7.52546e-07
1.91019e-06
3.7219e-08
1.90359e-06
-6.21668e-07
1.87774e-06
-5.98502e-07
1.87717e-06
-3.94019e-07
1.87905e-06
1.68738e-07
1.88622e-06
3.34397e-08
1.89604e-06
2.57577e-07
1.89737e-06
6.07384e-08
1.90299e-06
6.59058e-08
1.89441e-06
-6.87384e-08
1.89256e-06
-4.79175e-08
1.88242e-06
-1.0417e-07
1.87893e-06
-2.74835e-08
-4.79717e-08
1.87091e-06
1.94326e-06
-2.83855e-06
1.99583e-06
3.40675e-06
1.97099e-06
-1.40944e-06
1.95413e-06
-1.06873e-06
1.9542e-06
6.51601e-08
1.98638e-06
7.20369e-07
1.98215e-06
4.14436e-08
1.97558e-06
-6.15097e-07
1.94982e-06
-5.72737e-07
1.94848e-06
-3.92683e-07
1.95166e-06
1.65561e-07
1.95692e-06
2.81803e-08
1.96864e-06
2.4586e-07
1.96843e-06
6.09454e-08
1.97472e-06
5.96124e-08
1.96607e-06
-6.00864e-08
1.96394e-06
-4.57917e-08
1.95425e-06
-9.44718e-08
1.95074e-06
-2.39774e-08
-4.0361e-08
1.94313e-06
2.01681e-06
-2.80631e-06
2.07165e-06
3.35192e-06
2.04522e-06
-1.38301e-06
2.0291e-06
-1.05261e-06
2.02842e-06
6.58494e-08
2.06139e-06
6.87397e-07
2.05689e-06
4.59445e-08
2.05023e-06
-6.08438e-07
2.02475e-06
-5.47264e-07
2.0224e-06
-3.90329e-07
2.02716e-06
1.60802e-07
2.03035e-06
2.49903e-08
2.04382e-06
2.3239e-07
2.04239e-06
6.23767e-08
2.04899e-06
5.30133e-08
2.04056e-06
-5.16602e-08
2.03802e-06
-4.32562e-08
2.02877e-06
-8.52216e-08
2.02531e-06
-2.05115e-08
-3.31701e-08
2.01812e-06
2.09318e-06
-2.77265e-06
2.15032e-06
3.29477e-06
2.12227e-06
-1.35496e-06
2.10696e-06
-1.0373e-06
2.10549e-06
6.73205e-08
2.1392e-06
6.53684e-07
2.1345e-06
5.06423e-08
2.12762e-06
-6.01557e-07
2.10267e-06
-5.22314e-07
2.09902e-06
-3.86683e-07
2.10557e-06
1.54251e-07
2.1067e-06
2.38671e-08
2.12164e-06
2.17445e-07
2.11937e-06
6.46538e-08
2.12589e-06
4.64859e-08
2.11794e-06
-4.37045e-08
2.11494e-06
-4.02615e-08
2.10611e-06
-7.63877e-08
2.10273e-06
-1.7136e-08
-2.64166e-08
2.09598e-06
2.17247e-06
-2.73754e-06
2.23195e-06
3.23529e-06
2.20225e-06
-1.32526e-06
2.18778e-06
-1.02283e-06
2.18552e-06
6.9582e-08
2.2199e-06
6.19304e-07
2.21511e-06
5.543e-08
2.20785e-06
-5.94291e-07
2.18369e-06
-4.98155e-07
2.17848e-06
-3.8147e-07
2.18694e-06
1.45786e-07
2.18614e-06
2.46706e-08
2.20219e-06
2.01393e-07
2.19946e-06
6.73848e-08
2.20559e-06
4.03594e-08
2.19826e-06
-3.63784e-08
2.19485e-06
-3.68491e-08
2.18637e-06
-6.7915e-08
2.18312e-06
-1.38852e-08
-2.01143e-08
2.17682e-06
2.2548e-06
-2.70094e-06
2.31665e-06
3.17344e-06
2.28528e-06
-1.2939e-06
2.27169e-06
-1.00923e-06
2.26864e-06
7.26303e-08
2.30359e-06
5.84349e-07
2.29885e-06
6.01731e-08
2.29101e-06
-5.8645e-07
2.26794e-06
-4.75087e-07
2.2609e-06
-3.74431e-07
2.2713e-06
1.35387e-07
2.26884e-06
2.71328e-08
2.28555e-06
1.84684e-07
2.28278e-06
7.01541e-08
2.28821e-06
3.4932e-08
2.28159e-06
-2.9763e-08
2.27787e-06
-3.3127e-08
2.26972e-06
-5.97705e-08
2.26659e-06
-1.07534e-08
-1.42727e-08
2.26075e-06
2.34028e-06
-2.66283e-06
2.40451e-06
3.10921e-06
2.37148e-06
-1.26086e-06
2.35878e-06
-9.9654e-07
2.35497e-06
7.64482e-08
2.39038e-06
5.48934e-07
2.38584e-06
6.47093e-08
2.3772e-06
-5.77808e-07
2.35555e-06
-4.53434e-07
2.34648e-06
-3.65359e-07
2.3587e-06
1.23165e-07
2.35494e-06
3.08865e-08
2.37183e-06
1.678e-07
2.3694e-06
7.25784e-08
2.37392e-06
3.04162e-08
2.368e-06
-2.38398e-08
2.36412e-06
-2.92501e-08
2.35629e-06
-5.19445e-08
2.35327e-06
-7.72524e-09
-8.88178e-09
2.34788e-06
2.42903e-06
-2.62318e-06
2.49567e-06
3.04257e-06
2.46096e-06
-1.22616e-06
2.44919e-06
-9.84764e-07
2.44463e-06
8.10032e-08
2.48037e-06
5.132e-07
2.47623e-06
6.88465e-08
2.46653e-06
-5.68108e-07
2.44662e-06
-4.33526e-07
2.4354e-06
-3.5414e-07
2.44921e-06
1.09361e-07
2.4446e-06
3.54916e-08
2.46116e-06
1.51239e-07
2.45942e-06
7.43251e-08
2.4629e-06
2.6934e-08
2.45759e-06
-1.85308e-08
2.45368e-06
-2.53464e-08
2.44621e-06
-4.44717e-08
2.44327e-06
-4.78254e-09
-3.92889e-09
2.43832e-06
2.52119e-06
-2.58197e-06
2.59023e-06
2.97353e-06
2.55387e-06
-1.1898e-06
2.54302e-06
-9.73911e-07
2.53778e-06
8.62466e-08
2.57367e-06
4.77311e-07
2.57015e-06
7.23614e-08
2.5591e-06
-5.5706e-07
2.54124e-06
-4.15661e-07
2.52789e-06
-3.40795e-07
2.54292e-06
9.43304e-08
2.53794e-06
4.04709e-08
2.55369e-06
1.35497e-07
2.55289e-06
7.51185e-08
2.55531e-06
2.45129e-08
2.55051e-06
-1.37234e-08
2.54663e-06
-2.14694e-08
2.5396e-06
-3.74469e-08
2.53673e-06
-1.9053e-09
5.99182e-10
2.5322e-06
2.61688e-06
-2.53917e-06
2.68833e-06
2.90208e-06
2.65033e-06
-1.15181e-06
2.6404e-06
-9.6398e-07
2.63454e-06
9.21124e-08
2.67039e-06
4.41459e-07
2.66775e-06
7.49987e-08
2.65506e-06
-5.4437e-07
2.63943e-06
-4.0003e-07
2.62415e-06
-3.25515e-07
2.63995e-06
7.85299e-08
2.6351e-06
4.53231e-08
2.64957e-06
1.2103e-07
2.64989e-06
7.47998e-08
2.65138e-06
2.30206e-08
2.64692e-06
-9.26927e-09
2.64306e-06
-1.76033e-08
2.63656e-06
-3.09473e-08
2.63377e-06
8.87441e-10
4.71727e-09
2.62965e-06
2.71625e-06
-2.49477e-06
2.79009e-06
2.82824e-06
2.75049e-06
-1.11221e-06
2.74147e-06
-9.54957e-07
2.73506e-06
9.85163e-08
2.77066e-06
4.05861e-07
2.76918e-06
7.64837e-08
2.75458e-06
-5.29773e-07
2.74122e-06
-3.86675e-07
2.72436e-06
-3.08649e-07
2.74042e-06
6.24701e-08
2.73619e-06
4.95542e-08
2.74899e-06
1.08225e-07
2.75045e-06
7.33459e-08
2.75126e-06
2.22044e-08
2.74705e-06
-5.05632e-09
2.7431e-06
-1.3657e-08
2.73718e-06
-2.50241e-08
2.7345e-06
3.56208e-09
8.41948e-09
2.7308e-06
2.81944e-06
-2.44876e-06
2.89566e-06
2.75203e-06
2.85449e-06
-1.07104e-06
2.84635e-06
-9.46815e-07
2.83951e-06
1.05355e-07
2.8746e-06
3.70764e-07
2.87454e-06
7.65449e-08
2.85786e-06
-5.13087e-07
2.84667e-06
-3.75492e-07
2.82868e-06
-2.90655e-07
2.84446e-06
4.66921e-08
2.84131e-06
5.27019e-08
2.85216e-06
9.73778e-08
2.85462e-06
7.08785e-08
2.85508e-06
2.17522e-08
2.85105e-06
-1.03336e-09
2.84697e-06
-9.57647e-09
2.84157e-06
-1.96169e-08
2.83906e-06
6.06813e-09
1.16757e-08
2.8358e-06
2.92661e-06
-2.40112e-06
3.00516e-06
2.67347e-06
2.96248e-06
-1.02835e-06
2.95518e-06
-9.39516e-07
2.94802e-06
1.12506e-07
2.98235e-06
3.36439e-07
2.98396e-06
7.4938e-08
2.96512e-06
-4.94245e-07
2.95589e-06
-3.66266e-07
2.93728e-06
-2.72043e-07
2.95223e-06
3.17405e-08
2.95057e-06
5.43659e-08
2.95936e-06
8.85861e-08
2.96252e-06
6.77207e-08
2.9629e-06
2.13632e-08
2.95908e-06
2.78761e-09
2.9549e-06
-5.39305e-09
2.94985e-06
-1.45671e-08
2.94756e-06
8.35794e-09
1.44445e-08
2.94479e-06
3.0379e-06
-2.35186e-06
3.11875e-06
2.59262e-06
3.07461e-06
-9.84207e-07
3.0681e-06
-9.33008e-07
3.06078e-06
1.19829e-07
3.09404e-06
3.0318e-07
3.09751e-06
7.14635e-08
3.07659e-06
-4.73326e-07
3.06898e-06
-3.58657e-07
3.05032e-06
-2.53377e-07
3.06391e-06
1.81447e-08
3.06402e-06
5.42585e-08
3.07093e-06
8.16767e-08
3.07429e-06
6.436e-08
3.07481e-06
2.08424e-08
3.07132e-06
6.28192e-09
3.06706e-06
-1.1318e-09
3.06224e-06
-9.75296e-09
3.06016e-06
1.04417e-08
1.66993e-08
3.0579e-06
3.15348e-06
-2.30098e-06
3.23658e-06
2.50952e-06
3.19106e-06
-9.3869e-07
3.18527e-06
-9.27222e-07
3.17794e-06
1.27162e-07
3.20984e-06
2.71284e-07
3.21531e-06
6.59909e-08
3.19251e-06
-4.50529e-07
3.18609e-06
-3.52231e-07
3.16795e-06
-2.35242e-07
3.1797e-06
6.39663e-09
3.18166e-06
5.23049e-08
3.1871e-06
7.62294e-08
3.1902e-06
6.1262e-08
3.19089e-06
2.01487e-08
3.18787e-06
9.30471e-09
3.18362e-06
3.12463e-09
3.17897e-06
-5.1067e-09
3.17704e-06
1.23741e-08
1.84549e-08
3.17528e-06
3.27352e-06
-2.24849e-06
3.35879e-06
2.42425e-06
3.31199e-06
-8.91888e-07
3.30684e-06
-9.22076e-07
3.29968e-06
1.34322e-07
3.32993e-06
2.41035e-07
3.33747e-06
5.84538e-08
3.31308e-06
-4.26139e-07
3.30735e-06
-3.46502e-07
3.29033e-06
-2.1822e-07
3.29981e-06
-3.0868e-09
3.30345e-06
4.86695e-08
3.30803e-06
7.16498e-08
3.31054e-06
5.87469e-08
3.31127e-06
1.94204e-08
3.30883e-06
1.1739e-08
3.30474e-06
7.21473e-09
3.30027e-06
-6.32105e-10
3.2984e-06
1.42423e-08
1.97906e-08
3.29707e-06
3.3982e-06
-2.19441e-06
3.48556e-06
2.33689e-06
3.43758e-06
-8.43905e-07
3.43297e-06
-9.17469e-07
3.42619e-06
1.41107e-07
3.45451e-06
2.12712e-07
3.46412e-06
4.88423e-08
3.43849e-06
-4.00506e-07
3.43293e-06
-3.40939e-07
3.41758e-06
-2.02878e-07
3.42455e-06
-1.00492e-08
3.42947e-06
4.37496e-08
3.43379e-06
6.73231e-08
3.43562e-06
5.69157e-08
3.43608e-06
1.89681e-08
3.43436e-06
1.34514e-08
3.43058e-06
1.10014e-08
3.42632e-06
3.62103e-09
3.42449e-06
1.60778e-08
2.0866e-08
3.42341e-06
3.5277e-06
-2.13876e-06
3.61705e-06
2.24754e-06
3.56801e-06
-7.94864e-07
3.56382e-06
-9.13284e-07
3.55764e-06
1.47296e-07
3.58378e-06
1.86567e-07
3.5954e-06
3.72189e-08
3.56894e-06
-3.74044e-07
3.563e-06
-3.34998e-07
3.54984e-06
-1.89713e-07
3.55427e-06
-1.448e-08
3.55987e-06
3.81487e-08
3.56445e-06
6.27383e-08
3.56569e-06
5.56767e-08
3.5656e-06
1.90619e-08
3.56457e-06
1.44767e-08
3.56122e-06
1.43529e-08
3.55732e-06
7.51732e-09
3.55549e-06
1.79121e-08
2.18515e-08
3.5545e-06
3.66221e-06
-2.08159e-06
3.75343e-06
2.15631e-06
3.70348e-06
-7.44906e-07
3.69957e-06
-9.09383e-07
3.69422e-06
1.52648e-07
3.71796e-06
1.62833e-07
3.73147e-06
2.37084e-08
3.70463e-06
-3.47211e-07
3.69776e-06
-3.28127e-07
3.68713e-06
-1.79081e-07
3.68931e-06
-1.66571e-08
3.69489e-06
3.25642e-08
3.70003e-06
5.76023e-08
3.70098e-06
5.47294e-08
3.70014e-06
1.99013e-08
3.69963e-06
1.49853e-08
3.69681e-06
1.71717e-08
3.69342e-06
1.09063e-08
3.69156e-06
1.9773e-08
2.28542e-08
3.69056e-06
3.80193e-06
-2.02292e-06
3.89489e-06
2.06335e-06
3.84417e-06
-6.94187e-07
3.8404e-06
-9.05611e-07
3.83613e-06
1.56916e-07
3.85727e-06
1.41699e-07
3.87247e-06
8.50242e-09
3.84576e-06
-3.20501e-07
3.83742e-06
-3.19787e-07
3.82947e-06
-1.71122e-07
3.82998e-06
-1.7171e-08
3.83482e-06
2.77278e-08
3.84057e-06
5.18497e-08
3.84166e-06
5.36336e-08
3.84001e-06
2.15599e-08
3.83967e-06
1.5316e-08
3.83753e-06
1.93119e-08
3.83467e-06
1.37747e-08
3.83285e-06
2.15873e-08
2.39253e-08
3.83178e-06
3.94706e-06
-1.96283e-06
4.04161e-06
1.9688e-06
3.99031e-06
-6.42888e-07
3.98649e-06
-9.0179e-07
3.98356e-06
1.59848e-07
4.00195e-06
1.23312e-07
4.01859e-06
-8.1425e-09
3.99253e-06
-2.94442e-07
3.9823e-06
-3.09556e-07
3.97688e-06
-1.65696e-07
3.97646e-06
-1.67601e-08
3.97998e-06
2.42087e-08
3.98618e-06
4.56514e-08
3.98785e-06
5.19685e-08
3.9855e-06
2.39093e-08
3.985e-06
1.58096e-08
3.98353e-06
2.07872e-08
3.98117e-06
1.61368e-08
3.97951e-06
2.32423e-08
2.50472e-08
3.97839e-06
4.09783e-06
-1.90138e-06
4.19379e-06
1.87284e-06
4.1421e-06
-5.91206e-07
4.13804e-06
-8.97724e-07
4.13669e-06
1.61193e-07
4.15224e-06
1.07767e-07
4.17001e-06
-2.59141e-08
4.14512e-06
-2.69554e-07
4.13277e-06
-2.97209e-07
4.12947e-06
-1.62388e-07
4.12887e-06
-1.61586e-08
4.13084e-06
2.22349e-08
4.13703e-06
3.94611e-08
4.13958e-06
4.94141e-08
4.1369e-06
2.65881e-08
4.1359e-06
1.68151e-08
4.13495e-06
2.17401e-08
4.13308e-06
1.80065e-08
4.13168e-06
2.4638e-08
2.61265e-08
4.1306e-06
4.25445e-06
-1.83864e-06
4.35162e-06
1.77567e-06
4.29977e-06
-5.39362e-07
4.29525e-06
-8.93197e-07
4.29572e-06
1.60718e-07
4.3084e-06
9.5092e-08
4.32693e-06
-4.44457e-08
4.3037e-06
-2.46328e-07
4.28918e-06
-2.82689e-07
4.2874e-06
-1.60606e-07
4.2873e-06
-1.60572e-08
4.28771e-06
2.18292e-08
4.29342e-06
3.37501e-08
4.29689e-06
4.59416e-08
4.29443e-06
2.90494e-08
4.2927e-06
1.85432e-08
4.292e-06
2.24348e-08
4.29055e-06
1.94604e-08
4.2895e-06
2.56932e-08
2.70001e-08
4.28862e-06
4.41716e-06
-1.77471e-06
4.51531e-06
1.67751e-06
4.46355e-06
-4.87599e-07
4.45833e-06
-8.87972e-07
4.46084e-06
1.58205e-07
4.47068e-06
8.52515e-08
4.48956e-06
-6.33221e-08
4.46843e-06
-2.25207e-07
4.45183e-06
-2.66086e-07
4.45089e-06
-1.59666e-07
4.45186e-06
-1.70214e-08
4.45091e-06
2.27728e-08
4.45564e-06
2.90203e-08
4.45988e-06
4.17039e-08
4.45822e-06
3.07103e-08
4.45572e-06
2.1042e-08
4.45498e-06
2.31789e-08
4.45384e-06
2.06013e-08
4.45314e-06
2.63845e-08
2.7484e-08
4.45266e-06
4.58619e-06
-1.70969e-06
4.68509e-06
1.57861e-06
4.63367e-06
-4.36183e-07
4.6275e-06
-8.81795e-07
4.63224e-06
1.53465e-07
4.63935e-06
7.81434e-08
4.65812e-06
-8.20953e-08
4.63945e-06
-2.06544e-07
4.62102e-06
-2.47655e-07
4.62021e-06
-1.58848e-07
4.62262e-06
-1.94341e-08
4.62067e-06
2.47192e-08
4.62415e-06
2.55387e-08
4.62873e-06
3.7128e-08
4.6283e-06
3.11365e-08
4.62532e-06
2.40245e-08
4.62413e-06
2.437e-08
4.62324e-06
2.14898e-08
4.62286e-06
2.67698e-08
2.74329e-08
4.62291e-06
4.76181e-06
-1.64371e-06
4.86117e-06
1.47925e-06
4.81039e-06
-3.85402e-07
4.803e-06
-8.74399e-07
4.81011e-06
1.46349e-07
4.81466e-06
7.35927e-08
4.83286e-06
-1.0029e-07
4.81691e-06
-1.906e-07
4.79703e-06
-2.27773e-07
4.79566e-06
-1.57474e-07
4.79968e-06
-2.34587e-08
4.79721e-06
2.71878e-08
4.79933e-06
2.3422e-08
4.80369e-06
3.27684e-08
4.80468e-06
3.01449e-08
4.80177e-06
2.69328e-08
4.79984e-06
2.6306e-08
4.79907e-06
2.22528e-08
4.79893e-06
2.69178e-08
2.68003e-08
4.79956e-06
4.94426e-06
-1.57691e-06
5.0438e-06
1.37971e-06
4.99396e-06
-3.35563e-07
4.98506e-06
-8.65502e-07
4.99466e-06
1.36751e-07
4.9969e-06
7.13577e-08
5.01404e-06
-1.17436e-07
5.00096e-06
-1.77519e-07
4.98011e-06
-2.06922e-07
4.97761e-06
-1.5497e-07
4.9832e-06
-2.90492e-08
4.98072e-06
2.96616e-08
4.98151e-06
2.26374e-08
4.98517e-06
2.9103e-08
4.98736e-06
2.79591e-08
4.98531e-06
2.89838e-08
4.98247e-06
2.9146e-08
4.98166e-06
2.30601e-08
4.98165e-06
2.69225e-08
2.56248e-08
4.98283e-06
5.13383e-06
-1.50942e-06
5.23321e-06
1.28034e-06
5.18464e-06
-2.86994e-07
5.17396e-06
-8.54821e-07
5.18609e-06
1.24621e-07
5.18632e-06
7.11296e-08
5.20195e-06
-1.33066e-07
5.19177e-06
-1.67342e-07
5.17051e-06
-1.8566e-07
5.16643e-06
-1.5089e-07
5.17333e-06
-3.59502e-08
5.17138e-06
3.16099e-08
5.17094e-06
2.30757e-08
5.17368e-06
2.63678e-08
5.17646e-06
2.51759e-08
5.17591e-06
2.95323e-08
5.17245e-06
3.26097e-08
5.17135e-06
2.4157e-08
5.17133e-06
2.69472e-08
2.40092e-08
5.17294e-06
5.33078e-06
-1.44143e-06
5.42966e-06
1.18147e-06
5.3827e-06
-2.4004e-07
5.36996e-06
-8.42076e-07
5.38461e-06
1.09965e-07
5.3832e-06
7.25455e-08
5.39687e-06
-1.46735e-07
5.38953e-06
-1.60008e-07
5.36847e-06
-1.64595e-07
5.36251e-06
-1.44938e-07
5.37032e-06
-4.37557e-08
5.36934e-06
3.25927e-08
5.36786e-06
2.45554e-08
5.36971e-06
2.45114e-08
5.37226e-06
2.26326e-08
5.37357e-06
2.82146e-08
5.37006e-06
3.61286e-08
5.36854e-06
2.56685e-08
5.36826e-06
2.72316e-08
2.21419e-08
5.37013e-06
5.53542e-06
-1.37311e-06
5.63341e-06
1.08348e-06
5.58842e-06
-1.95056e-07
5.57335e-06
-8.27002e-07
5.59045e-06
9.28656e-08
5.58782e-06
7.51771e-08
5.59913e-06
-1.58049e-07
5.59446e-06
-1.5534e-07
5.57423e-06
-1.44364e-07
5.56627e-06
-1.36978e-07
5.57441e-06
-5.18962e-08
5.5748e-06
3.22034e-08
5.57248e-06
2.68811e-08
5.57363e-06
2.33528e-08
5.57525e-06
2.10169e-08
5.57833e-06
2.51383e-08
5.57545e-06
3.90001e-08
5.5736e-06
2.75253e-08
5.57281e-06
2.80157e-08
2.03315e-08
5.57462e-06
5.74803e-06
-1.30466e-06
5.84474e-06
9.86765e-07
5.80209e-06
-1.52405e-07
5.78445e-06
-8.09363e-07
5.80385e-06
7.34718e-08
5.80045e-06
7.85731e-08
5.8091e-06
-1.66701e-07
5.80681e-06
-1.53049e-07
5.78802e-06
-1.2557e-07
5.7781e-06
-1.2706e-07
5.7859e-06
-5.96943e-08
5.78799e-06
3.01105e-08
5.78501e-06
2.98634e-08
5.78574e-06
2.26218e-08
5.786e-06
2.07535e-08
5.79034e-06
2.08006e-08
5.7887e-06
4.06346e-08
5.78677e-06
2.946e-08
5.78536e-06
2.9423e-08
1.90077e-08
5.78669e-06
5.96893e-06
-1.2363e-06
6.06395e-06
8.91748e-07
6.024e-06
-1.12452e-07
6.00362e-06
-7.88985e-07
6.02506e-06
5.20297e-08
6.02138e-06
8.225e-08
6.02716e-06
-1.72474e-07
6.02688e-06
-1.52768e-07
6.01003e-06
-1.08725e-07
5.99837e-06
-1.15393e-07
6.00512e-06
-6.64482e-08
6.00913e-06
2.60947e-08
6.00569e-06
3.33077e-08
6.00623e-06
2.20808e-08
6.00512e-06
2.1863e-08
6.00992e-06
1.5999e-08
6.00984e-06
4.07133e-08
6.00824e-06
3.10656e-08
6.00627e-06
3.13931e-08
1.86405e-08
6.00664e-06
6.19844e-06
-1.16824e-06
6.29133e-06
7.98855e-07
6.25443e-06
-7.55516e-08
6.23122e-06
-7.65771e-07
6.25437e-06
2.88748e-08
6.2509e-06
8.57239e-08
6.2537e-06
-1.7527e-07
6.25496e-06
-1.54032e-07
6.24047e-06
-9.42338e-08
6.22745e-06
-1.0237e-07
6.23248e-06
-7.14782e-08
6.23844e-06
2.01299e-08
6.23482e-06
3.69248e-08
6.23531e-06
2.15928e-08
6.23312e-06
2.40558e-08
6.23751e-06
1.16062e-08
6.23897e-06
3.92543e-08
6.23808e-06
3.19563e-08
6.23582e-06
3.36521e-08
1.9578e-08
6.23488e-06
6.43688e-06
-1.10072e-06
6.52721e-06
7.08525e-07
6.49371e-06
-4.20419e-08
6.46764e-06
-7.39707e-07
6.49209e-06
4.42686e-09
6.48929e-06
8.85248e-08
6.48912e-06
-1.751e-07
6.49142e-06
-1.56335e-07
6.47954e-06
-8.2348e-08
6.46566e-06
-8.8497e-08
6.46842e-06
-7.42349e-08
6.47615e-06
1.23943e-08
6.47273e-06
4.03493e-08
6.47318e-06
2.11434e-08
6.47042e-06
2.68188e-08
6.47362e-06
8.40211e-09
6.47637e-06
3.65053e-08
6.47632e-06
3.20074e-08
6.47426e-06
3.57104e-08
2.19312e-08
6.47191e-06
6.6846e-06
-1.03398e-06
6.77193e-06
6.21198e-07
6.74212e-06
-1.22304e-08
6.71328e-06
-7.10869e-07
6.73853e-06
-2.08228e-08
6.73684e-06
9.02151e-08
6.73382e-06
-1.72085e-07
6.73663e-06
-1.59145e-07
6.72743e-06
-7.3145e-08
6.71332e-06
-7.43821e-08
6.71346e-06
-7.4378e-08
6.72253e-06
3.32738e-09
6.71976e-06
4.31131e-08
6.72006e-06
2.08498e-08
6.71722e-06
2.96514e-08
6.71885e-06
6.77962e-09
6.72245e-06
3.29042e-08
6.72307e-06
3.1385e-08
6.72177e-06
3.70104e-08
2.5489e-08
6.71821e-06
6.94194e-06
-9.68272e-07
7.02583e-06
5.37311e-07
6.99998e-06
1.36169e-08
6.96855e-06
-6.79434e-07
6.99404e-06
-4.63179e-08
6.99385e-06
9.04048e-08
6.98822e-06
-1.6645e-07
6.991e-06
-1.61931e-07
6.9844e-06
-6.6537e-08
6.9707e-06
-6.06811e-08
6.96811e-06
-7.17931e-08
6.97785e-06
-6.41371e-09
6.97628e-06
4.46896e-08
6.97618e-06
2.09443e-08
6.97382e-06
3.20145e-08
6.9737e-06
6.90185e-09
6.97771e-06
2.88881e-08
6.97862e-06
3.04727e-08
6.9785e-06
3.71381e-08
2.9712e-08
6.97427e-06
7.20926e-06
-9.03844e-07
7.28929e-06
4.57283e-07
7.26761e-06
3.52925e-08
7.23384e-06
-6.45664e-07
7.25901e-06
-7.14851e-08
7.26062e-06
8.87984e-08
7.25269e-06
-1.58526e-07
7.25496e-06
-1.64195e-07
7.25071e-06
-6.22896e-08
7.23806e-06
-4.80316e-08
7.23293e-06
-6.66616e-08
7.24253e-06
-1.60139e-08
7.2425e-06
4.47199e-08
7.24192e-06
2.15176e-08
7.24042e-06
3.35156e-08
7.23863e-06
8.69144e-09
7.24266e-06
2.48622e-08
7.24349e-06
2.96424e-08
7.24465e-06
3.59831e-08
3.38342e-08
7.24052e-06
7.48693e-06
-8.40941e-07
7.5627e-06
3.81512e-07
7.54534e-06
5.26562e-08
7.50958e-06
-6.09908e-07
7.53383e-06
-9.57324e-08
7.53745e-06
8.5171e-08
7.52763e-06
-1.48703e-07
7.52893e-06
-1.65496e-07
7.52673e-06
-6.00842e-08
7.51564e-06
-3.69414e-08
7.50838e-06
-5.94049e-08
7.51699e-06
-2.46245e-08
7.51877e-06
4.2937e-08
7.51769e-06
2.26047e-08
7.51722e-06
3.39807e-08
7.51408e-06
1.18363e-08
7.51777e-06
2.11637e-08
7.51831e-06
2.91049e-08
7.52052e-06
3.37779e-08
3.705e-08
7.5173e-06
7.77532e-06
-7.79804e-07
7.84647e-06
3.1036e-07
7.83348e-06
6.56505e-08
7.79615e-06
-5.72581e-07
7.81893e-06
-1.18509e-07
7.82467e-06
7.94253e-08
7.8134e-06
-1.37434e-07
7.8134e-06
-1.65489e-07
7.81284e-06
-5.95235e-08
7.80368e-06
-2.77861e-08
7.79489e-06
-5.06092e-08
7.80172e-06
-3.14606e-08
7.80543e-06
3.92277e-08
7.80389e-06
2.41423e-08
7.80443e-06
3.34453e-08
7.8004e-06
1.58633e-08
7.80352e-06
1.80414e-08
7.80376e-06
2.88672e-08
7.80656e-06
3.09835e-08
3.87503e-08
7.80486e-06
8.07482e-06
-7.20662e-07
8.14104e-06
2.44142e-07
8.13238e-06
7.43098e-08
8.09396e-06
-5.34165e-07
8.11475e-06
-1.39301e-07
8.1226e-06
7.15792e-08
8.11039e-06
-1.25222e-07
8.10882e-06
-1.63923e-07
8.10949e-06
-6.01922e-08
8.10246e-06
-2.07568e-08
8.09282e-06
-4.09676e-08
8.0973e-06
-3.59459e-08
8.10277e-06
3.37625e-08
8.10098e-06
2.59345e-08
8.10234e-06
3.2081e-08
8.09799e-06
2.0209e-08
8.10032e-06
1.57125e-08
8.10044e-06
2.87558e-08
8.10332e-06
2.80994e-08
3.8712e-08
8.10336e-06
8.38583e-06
-6.63727e-07
8.44685e-06
1.83119e-07
8.44239e-06
7.87652e-08
8.40341e-06
-4.95183e-07
8.42177e-06
-1.5766e-07
8.43157e-06
6.17779e-08
8.41895e-06
-1.12603e-07
8.41569e-06
-1.60658e-07
8.41717e-06
-6.16727e-08
8.41227e-06
-1.58542e-08
8.40251e-06
-3.12154e-08
8.40435e-06
-3.77828e-08
8.41112e-06
2.6991e-08
8.4094e-06
2.76517e-08
8.41129e-06
3.01957e-08
8.40721e-06
2.42877e-08
8.40858e-06
1.43417e-08
8.40885e-06
2.84879e-08
8.41139e-06
2.55567e-08
3.7105e-08
8.413e-06
8.70875e-06
-6.09192e-07