/*--------------------------------*- C++ -*----------------------------------*\
| =========                 |                                                 |
| \\      /  F ield         | OpenFOAM: The Open Source CFD Toolbox           |
|  \\    /   O peration     | Version:  v2012                                 |
|   \\  /    A nd           | Website:  www.openfoam.com                      |
|    \\/     M anipulation  |                                                 |
\*---------------------------------------------------------------------------*/
FoamFile
{
    version     2.0;
    format      ascii;
    class       volScalarField;
    location    "4.2";
    object      p;
}
// * * * * * * * * * * * * * * * * * * * * * * * * * * * * * * * * * * * * * //

dimensions      [0 2 -2 0 0 0 0];


internalField   nonuniform List<scalar> 
7000
(
2.07917e-11
0.000656636
-0.000714455
0.00288728
-0.00428951
0.000566456
0.00338717
0.00304232
0.00330905
0.00404447
0.00389058
0.00517222
0.00625976
0.00799361
0.0096036
0.0123238
0.0144096
0.0182085
0.0213577
0.0276191
3.52498e-07
0.000652167
-0.000703547
0.00286079
-0.00427076
0.000580491
0.00335783
0.00304994
0.00329859
0.00404471
0.00388976
0.00517159
0.00626872
0.00798443
0.00960988
0.0123022
0.0144203
0.0181609
0.0213823
0.0273539
5.35622e-07
0.000646466
-0.000692774
0.00282676
-0.00424753
0.000592714
0.0033203
0.00306578
0.00328092
0.00404936
0.00388755
0.00517312
0.00627296
0.00797251
0.00961147
0.0122735
0.0144256
0.0180942
0.0213947
0.0269084
5.39743e-07
0.000640361
-0.000685074
0.00278936
-0.00422145
0.000600367
0.00328353
0.00307864
0.0032591
0.00405416
0.00388294
0.00517403
0.0062748
0.00795776
0.00961143
0.0122393
0.0144267
0.0180184
0.0213706
0.0264427
4.33729e-07
0.000633641
-0.000679327
0.00275015
-0.00418786
0.000603741
0.00324572
0.00308448
0.00323285
0.00405596
0.00387713
0.00517301
0.00627836
0.0079391
0.00961336
0.0121974
0.0144284
0.0179301
0.0213146
0.0259962
2.24581e-07
0.000626318
-0.000674753
0.00271116
-0.00414339
0.000600732
0.00320467
0.00308448
0.00320278
0.00405542
0.00387222
0.00516977
0.00628487
0.00791659
0.00961754
0.0121483
0.0144311
0.0178285
0.021233
0.0255703
-7.1676e-08
0.00061848
-0.000670882
0.00267361
-0.0040873
0.000590655
0.00316115
0.00308129
0.00317059
0.00405396
0.00386949
0.0051642
0.00629455
0.00789017
0.00962367
0.0120926
0.0144323
0.0177153
0.021127
0.0251576
-4.26567e-07
0.000610171
-0.000667279
0.00263749
-0.00402081
0.000575393
0.00311726
0.00307709
0.00313747
0.00405193
0.00386946
0.00515621
0.00630732
0.00785956
0.00963163
0.0120306
0.0144295
0.0175929
0.0209958
0.024752
-8.16895e-07
0.000601401
-0.000663607
0.00260211
-0.003946
0.000557577
0.00307437
0.00307299
0.00310384
0.00404908
0.00387238
0.00514553
0.00632288
0.00782442
0.00964102
0.0119626
0.0144204
0.0174633
0.0208381
0.0243492
-1.23033e-06
0.000592162
-0.000659645
0.00256664
-0.00386491
0.00053903
0.0030327
0.00306931
0.00306977
0.00404488
0.00387822
0.00513177
0.00634083
0.00778445
0.00965106
0.0118893
0.0144029
0.0173274
0.0206534
0.0239464
-1.66383e-06
0.00058243
-0.000655252
0.00253043
-0.0037791
0.000520507
0.0029919
0.00306595
0.00303532
0.00403872
0.00388678
0.00511454
0.00636078
0.00773949
0.00966062
0.0118116
0.0143747
0.0171859
0.0204426
0.0235409
-2.11965e-06
0.000572179
-0.000650338
0.00249308
-0.00368962
0.000502072
0.00295147
0.00306259
0.00300063
0.00402998
0.00389785
0.00509349
0.00638225
0.00768968
0.00966832
0.011731
0.0143333
0.0170388
0.0202069
0.0231301
-2.6012e-06
0.000561379
-0.000644833
0.00245435
-0.00359709
0.00048349
0.00291099
0.00305887
0.00296598
0.0040181
0.00391126
0.00506838
0.00640471
0.00763552
0.00967253
0.0116487
0.0142768
0.0168859
0.0199483
0.0227119
-3.1103e-06
0.000550003
-0.000638668
0.00241409
-0.00350183
0.000464505
0.00287016
0.00305445
0.00293174
0.0040025
0.0039269
0.00503922
0.00642745
0.00757781
0.00967134
0.0115661
0.0142037
0.0167262
0.0196688
0.0222848
-3.64646e-06
0.000538021
-0.00063176
0.00237214
-0.00340396
0.000444977
0.00282876
0.00304901
0.00289831
0.00398276
0.00394469
0.00500612
0.00644958
0.00751772
0.00966274
0.0114843
0.014113
0.0165585
0.0193706
0.0218478
-4.20745e-06
0.00052541
-0.000624012
0.00232835
-0.00330355
0.000424925
0.00278668
0.00304226
0.00286604
0.00395858
0.00396457
0.00496935
0.00646993
0.00745666
0.00964481
0.0114036
0.0140047
0.0163812
0.0190554
0.0214005
-4.79059e-06
0.000512148
-0.000615321
0.00228254
-0.00320067
0.000404472
0.00274388
0.00303388
0.00283523
0.00392975
0.00398637
0.00492943
0.0064871
0.00739609
0.00961608
0.0113239
0.013879
0.0161929
0.0187253
0.0209427
-5.39451e-06
0.000498212
-0.000605596
0.00223459
-0.00309543
0.000383761
0.00270036
0.00302354
0.00280609
0.00389611
0.00400978
0.00488729
0.00649947
0.00733724
0.00957551
0.0112446
0.0137361
0.0159919
0.0183821
0.0204749
-6.02035e-06
0.000483578
-0.000594766
0.00218439
-0.00298796
0.000362858
0.00265622
0.00301094
0.00277873
0.00385775
0.00403426
0.0048441
0.00650549
0.00728086
0.00952242
0.0111648
0.0135769
0.0157759
0.0180273
0.0199982
-6.67149e-06
0.000468215
-0.000582786
0.0021319
-0.00287844
0.000341719
0.00261153
0.00299577
0.0027532
0.00381494
0.00405892
0.00480116
0.00650414
0.0072273
0.00945608
0.0110833
0.0134032
0.0155433
0.0176612
0.0195136
-7.35252e-06
0.000452089
-0.000569635
0.00207716
-0.00276704
0.00032022
0.00256638
0.00297778
0.00272945
0.00376795
0.00408263
0.00475978
0.00649446
0.007177
0.00937599
0.0109973
0.0132172
0.0152944
0.0172842
0.0190217
-8.06828e-06
0.000435164
-0.000555302
0.00202021
-0.0026539
0.000298217
0.00252084
0.00295676
0.00270724
0.00371736
0.00410429
0.00472094
0.00647533
0.00712989
0.00928351
0.010903
0.0130182
0.0150302
0.0168985
0.0185235
-8.82158e-06
0.000417398
-0.000539772
0.00196112
-0.00253916
0.000275599
0.00247492
0.00293262
0.00268625
0.00366412
0.00412254
0.00468558
0.00644591
0.00708379
0.00918113
0.0108006
0.0128046
0.0147485
0.0165058
0.0180217
-9.61093e-06
0.000398753
-0.000523024
0.00189996
-0.00242295
0.000252326
0.00242856
0.00290542
0.00266591
0.00360936
0.00413592
0.00465397
0.00640713
0.00703593
0.00906809
0.0106907
0.0125792
0.0144476
0.0161049
0.0175179
-1.04327e-05
0.000379197
-0.000505042
0.00183679
-0.00230545
0.000228429
0.00238164
0.00287543
0.00264539
0.00355404
0.00414362
0.00462535
0.00636043
0.00698599
0.00894305
0.0105704
0.0123442
0.0141291
0.0156958
0.0170129
-1.12845e-05
0.000358698
-0.000485804
0.00177168
-0.00218689
0.000204079
0.00233385
0.00284314
0.0026239
0.00349882
0.00414486
0.00459963
0.00630485
0.0069321
0.0088078
0.010439
0.0120996
0.013793
0.0152788
0.0165081
-1.2156e-05
0.00033722
-0.0004653
0.00170474
-0.00206761
0.000179588
0.00228479
0.00280909
0.00260044
0.00344466
0.00413883
0.0045762
0.00624181
0.00687097
0.00866023
0.0102959
0.0118489
0.0134419
0.0148525
0.016002
-1.30252e-05
0.000314735
-0.000443549
0.00163608
-0.00194792
0.000155255
0.00223393
0.00277405
0.00257429
0.00339143
0.00412689
0.00455098
0.00617491
0.00680416
0.00850011
0.0101346
0.0115933
0.0130789
0.0144258
0.0154968
-1.3883e-05
0.000291219
-0.000420558
0.0015658
-0.00182832
0.00013161
0.0021806
0.00273838
0.00254554
0.00333855
0.00410861
0.00452514
0.00610118
0.00672936
0.00833148
0.00995649
0.0113368
0.0127047
0.0139434
0.0149963
-1.47249e-05
0.000266659
-0.000396425
0.00149417
-0.00170948
0.000109408
0.00212411
0.00270294
0.00251274
0.00328788
0.00408177
0.00450216
0.00602162
0.00664682
0.00814659
0.00976414
0.011067
0.0123315
0.0134795
0.014481
-1.548e-05
0.000241025
-0.000371237
0.00142138
-0.00159195
8.92073e-05
0.00206365
0.0026682
0.00247624
0.00323685
0.00405321
0.00446519
0.005938
0.00656322
0.00794619
0.00954588
0.0107884
0.0119495
0.0131341
0.0139769
-1.61961e-05
0.00021432
-0.000345117
0.00134776
-0.00147664
7.19981e-05
0.00199872
0.00263401
0.00243704
0.00318349
0.00402379
0.0044208
0.00584507
0.00647397
0.00773981
0.00930789
0.0105084
0.0115498
0.012466
0.0134819
-1.6887e-05
0.000186555
-0.000318275
0.0012738
-0.00136445
5.80422e-05
0.00192967
0.00260029
0.00239417
0.00312972
0.00398979
0.00437278
0.00574876
0.00637371
0.00752382
0.00904954
0.0101898
0.0111611
0.012248
0.0129844
-1.73095e-05
0.000157602
-0.000290712
0.0011997
-0.00125577
4.74069e-05
0.00185618
0.00256611
0.00235015
0.0030696
0.00396281
0.00429102
0.00565768
0.00627066
0.00730447
0.00877222
0.00989445
0.0107164
0.0116116
0.0125074
-1.77459e-05
0.000127688
-0.000263109
0.00112644
-0.00115189
4.21646e-05
0.00177661
0.00253258
0.00230373
0.00300486
0.00393423
0.00422462
0.00552734
0.00617606
0.00707442
0.00844935
0.00956619
0.0103254
0.0111215
0.0120105
-1.82004e-05
9.68442e-05
-0.000235725
0.00105468
-0.00105383
4.31612e-05
0.00169189
0.00249808
0.00225647
0.00293663
0.00389774
0.00418374
0.00536949
0.00605724
0.00683101
0.0081145
0.00916855
0.0100598
0.0107971
0.0114796
-1.81592e-05
6.46655e-05
-0.000207884
0.000983775
-0.000960953
4.60481e-05
0.00160437
0.00246018
0.00221414
0.00285487
0.00387002
0.0040675
0.00523091
0.00592784
0.00661717
0.00777489
0.00880322
0.00954555
0.0101571
0.0110079
-1.82976e-05
3.19275e-05
-0.000181499
0.000916177
-0.000875047
5.54803e-05
0.00151108
0.00242003
0.00217335
0.00276801
0.00383339
0.00399735
0.00504827
0.00577954
0.00637732
0.00742034
0.00842405
0.00906684
0.00969653
0.0105252
-1.85711e-05
-1.19077e-06
-0.00015713
0.000852495
-0.000796949
7.31559e-05
0.00141303
0.00237511
0.00213621
0.00267579
0.00378152
0.00406998
0.00484014
0.00557594
0.00611196
0.00706409
0.00799832
0.00875615
0.00941109
0.0100129
-1.80759e-05
-3.55988e-05
-0.000133217
0.000790642
-0.000724464
8.84531e-05
0.00131833
0.00232149
0.00210917
0.00256667
0.00372795
0.00378736
0.00465135
0.00541153
0.00589689
0.00671676
0.00756209
0.00819954
0.00876861
0.00956676
-1.81513e-05
-6.96758e-05
-0.000112997
0.000734485
-0.00065959
0.00010975
0.00122019
0.00226067
0.0020854
0.00245984
0.00365618
0.00375971
0.00442791
0.00515142
0.00565332
0.00636141
0.00712676
0.00775557
0.00832521
0.00912109
-1.8411e-05
-0.000103419
-9.6783e-05
0.000683805
-0.000602966
0.000138701
0.00111962
0.00219189
0.00206137
0.00235875
0.00356237
0.00367073
0.00414491
0.00491895
0.005366
0.00600073
0.00666052
0.00739784
0.00810322
0.00864781
-1.77385e-05
-0.000138134
-8.21604e-05
0.000635084
-0.000551183
0.000160548
0.00103073
0.00210833
0.00204364
0.00224758
0.00346022
0.00359579
0.00397361
0.00463521
0.00511184
0.00567466
0.00619973
0.00679318
0.00738788
0.00823416
-1.83144e-05
-0.000171122
-7.3552e-05
0.000593401
-0.000505003
0.000181837
0.000947552
0.00201208
0.00202383
0.0021371
0.00333463
0.00352615
0.00373488
0.00432977
0.00481554
0.00520167
0.00570972
0.00621339
0.00687649
0.00791046
-1.86739e-05
-0.000203447
-7.00674e-05
0.000556499
-0.000465851
0.000205744
0.000866317
0.00190679
0.00199823
0.00202704
0.00318963
0.00344079
0.00351214
0.00402745
0.00445017
0.00482801
0.00522931
0.00569221
0.00644548
0.00752402
-1.87903e-05
-0.000235477
-7.02841e-05
0.00052251
-0.000430447
0.000223775
0.000789703
0.00179534
0.00196518
0.00191379
0.00302724
0.00333579
0.00334512
0.00370553
0.00411208
0.00447007
0.00478693
0.00519576
0.00593406
0.00708353
-2.0387e-05
-0.000265195
-7.7143e-05
0.000493724
-0.000396412
0.000234768
0.000719907
0.00167668
0.00191796
0.00180487
0.00284438
0.00322391
0.00303876
0.00337639
0.00376942
0.00409666
0.00434594
0.00470583
0.00543636
0.0066488
-2.14647e-05
-0.000294008
-8.89238e-05
0.000466625
-0.000364536
0.000241075
0.000653277
0.00154801
0.00186241
0.00169581
0.00265299
0.00308972
0.00285139
0.0030548
0.00340299
0.00371449
0.00393099
0.00423218
0.00493137
0.006214
-2.37374e-05
-0.000320891
-0.000105644
0.000440176
-0.000332233
0.000241253
0.000587007
0.00141452
0.00179545
0.00158883
0.0024477
0.00293911
0.00266687
0.00273109
0.00302105
0.00332593
0.0035162
0.00377178
0.00445663
0.00578592
-2.67887e-05
-0.00034568
-0.000127797
0.000414252
-0.000299846
0.000235679
0.000522593
0.00127637
0.00171267
0.00148424
0.00223456
0.00276997
0.00247772
0.00241381
0.00263364
0.00292091
0.00310174
0.00333338
0.0040089
0.00536385
-2.99429e-05
-0.000369043
-0.000153274
0.000385714
-0.000269144
0.000226566
0.00045871
0.00113155
0.00161687
0.00137937
0.00201976
0.00257729
0.00228445
0.00210914
0.00223737
0.00250267
0.00269642
0.00291694
0.0035617
0.00494078
-3.45215e-05
-0.000390182
-0.000182356
0.000354073
-0.000240637
0.000213355
0.000395179
0.000984246
0.00150734
0.0012748
0.00179703
0.00236749
0.00208667
0.00180581
0.0018436
0.0020768
0.00228308
0.0025091
0.00314005
0.00453034
-3.94804e-05
-0.000409543
-0.000214252
0.000318797
-0.000216887
0.000197022
0.000333479
0.00083482
0.00138405
0.00116438
0.00157372
0.00213905
0.00187633
0.00151537
0.00145378
0.00163978
0.00186378
0.00211187
0.00273723
0.00413223
-4.5456e-05
-0.000426883
-0.000248629
0.000278615
-0.000197896
0.000177146
0.000272055
0.000684597
0.00124613
0.00104898
0.00135043
0.00189548
0.00165656
0.00122815
0.0010688
0.00120131
0.00143444
0.00171337
0.00235623
0.00375079
-5.24044e-05
-0.000442128
-0.000285762
0.000233733
-0.000185339
0.000152638
0.000212009
0.000535336
0.00109467
0.000926973
0.00112738
0.0016376
0.0014201
0.00094206
0.000697292
0.000761457
0.000994192
0.00131748
0.00198953
0.00338657
-6.03832e-05
-0.000455195
-0.000324266
0.000183726
-0.000180277
0.000123662
0.0001524
0.000386429
0.000931219
0.000796251
0.000904504
0.00136691
0.0011694
0.000659502
0.000336608
0.000325282
0.000552092
0.000915811
0.00162907
0.0030318
-6.96275e-05
-0.0004659
-0.000364006
0.000128621
-0.000183516
8.83069e-05
9.16226e-05
0.000239003
0.000757913
0.000657295
0.000682212
0.00108795
0.000905891
0.000369983
-1.50207e-05
-9.99168e-05
0.000104545
0.00050134
0.00126363
0.00268989
-8.05362e-05
-0.000474028
-0.000404603
6.82633e-05
-0.000196046
4.56207e-05
2.93215e-05
9.39037e-05
0.000577068
0.000509059
0.000460108
0.000800806
0.000626928
7.41711e-05
-0.000357097
-0.000514694
-0.000342721
8.10832e-05
0.000896645
0.00235372
-9.30928e-05
-0.000479729
-0.000444955
2.006e-06
-0.00021735
-6.03539e-06
-3.8668e-05
-4.84355e-05
0.00039167
0.000353595
0.00023763
0.000507019
0.000337965
-0.00022994
-0.000696065
-0.0009134
-0.000781298
-0.000348003
0.000512392
0.00201277
-0.000106892
-0.000483611
-0.00048377
-7.09594e-05
-0.000246069
-6.68625e-05
-0.000121743
-0.000188539
0.000204904
0.000191875
1.5785e-05
0.000208194
3.92444e-05
-0.000543053
-0.00103403
-0.00129826
-0.00121496
-0.000783709
0.000117866
0.00167066
-0.000122942
-0.000485114
-0.000520716
-0.000148795
-0.000282824
-0.000141738
-0.000215208
-0.00032641
1.69617e-05
2.34573e-05
-0.00020595
-9.47351e-05
-0.00026754
-0.000862841
-0.00137611
-0.00167578
-0.00163605
-0.00121273
-0.000284158
0.00131953
-0.000140636
-0.00048575
-0.000555425
-0.000232032
-0.000335403
-0.000221899
-0.000310478
-0.000464029
-0.000175599
-0.000152976
-0.000427013
-0.000401186
-0.000581409
-0.00118763
-0.00172516
-0.00204628
-0.00204129
-0.00163598
-0.000694117
0.00096072
-0.000159651
-0.000487911
-0.000588644
-0.000320645
-0.000401323
-0.000304745
-0.000407043
-0.000604858
-0.000376162
-0.000338933
-0.00064748
-0.000709683
-0.000901534
-0.00151459
-0.00207941
-0.00241528
-0.00243748
-0.00205135
-0.0010996
0.000601352
-0.000180452
-0.000491465
-0.000622236
-0.00041234
-0.000475987
-0.000391858
-0.000507219
-0.000749828
-0.000585094
-0.000536079
-0.000867376
-0.0010179
-0.00122792
-0.00184186
-0.00243699
-0.00278784
-0.00282611
-0.00245154
-0.00149407
0.000241167
-0.000203166
-0.000496617
-0.000656371
-0.000506056
-0.00055847
-0.000484655
-0.000611806
-0.000897991
-0.000802383
-0.000746494
-0.00108748
-0.00132372
-0.00156032
-0.00216878
-0.00279392
-0.00316374
-0.00321015
-0.00284007
-0.00187875
-0.000116046
-0.000227778
-0.000504384
-0.000691187
-0.000601073
-0.000648538
-0.000584198
-0.000721213
-0.0010482
-0.00102674
-0.000971411
-0.00130983
-0.00162518
-0.00189812
-0.00249661
-0.00314656
-0.00354184
-0.00359497
-0.00322131
-0.00225096
-0.000464731
-0.000254481
-0.000515866
-0.000726661
-0.000696781
-0.000746281
-0.000691543
-0.000836171
-0.00119906
-0.00125568
-0.00121183
-0.00153758
-0.00192112
-0.00223962
-0.00282669
-0.00349332
-0.00391865
-0.00398094
-0.00359805
-0.00261293
-0.000805912
-0.000283342
-0.000530889
-0.000762852
-0.000792764
-0.000851705
-0.000807334
-0.000957077
-0.00135018
-0.00148727
-0.00146748
-0.00177374
-0.002211
-0.00258176
-0.00316119
-0.00383512
-0.00428853
-0.00436567
-0.00397512
-0.00297122
-0.00114163
-0.00031442
-0.00054972
-0.000800023
-0.000888693
-0.000964347
-0.000931953
-0.0010849
-0.00150207
-0.00171889
-0.00173639
-0.00202168
-0.00249621
-0.0029219
-0.00350052
-0.00417318
-0.00464934
-0.00474679
-0.00435341
-0.00332907
-0.00147406
-0.000347729
-0.000572652
-0.000838541
-0.000985935
-0.00108357
-0.0010657
-0.00122084
-0.00165544
-0.00194813
-0.00201606
-0.00228388
-0.00277947
-0.00325765
-0.00384256
-0.00451037
-0.00500257
-0.00512122
-0.00473039
-0.00368826
-0.0018065
-0.000383294
-0.000599947
-0.000878765
-0.00108056
-0.00120871
-0.00120873
-0.00136557
-0.00181146
-0.00217368
-0.00230292
-0.00256121
-0.00306413
-0.00358804
-0.00418549
-0.00484813
-0.00534964
-0.0054874
-0.00510402
-0.00404879
-0.00213995
-0.000421082
-0.000631722
-0.000921422
-0.00117436
-0.00133876
-0.00136075
-0.00151987
-0.00197176
-0.00239507
-0.00259309
-0.00285273
-0.0033535
-0.00391379
-0.00452694
-0.00518617
-0.00569291
-0.00584586
-0.0054721
-0.00440797
-0.00247406
-0.000461055
-0.000668115
-0.000967497
-0.00126735
-0.00147264
-0.00152128
-0.00168421
-0.00213801
-0.00261247
-0.00288281
-0.00315641
-0.0036506
-0.0042365
-0.00486546
-0.00552385
-0.00603334
-0.00619735
-0.00583331
-0.00476396
-0.00280837
-0.000503217
-0.00070919
-0.00101755
-0.00135967
-0.00160919
-0.00168985
-0.00185882
-0.00231121
-0.00282665
-0.00316938
-0.00346963
-0.00395671
-0.00455829
-0.00520112
-0.00585963
-0.00637127
-0.00654396
-0.00618852
-0.00511571
-0.00314129
-0.000547552
-0.000754965
-0.00107202
-0.00145166
-0.00174757
-0.00186543
-0.0020434
-0.00249262
-0.00303935
-0.00345088
-0.00378833
-0.00427155
-0.00488176
-0.00553494
-0.00619336
-0.0067072
-0.00688689
-0.00653792
-0.0054622
-0.00347195
-0.000594026
-0.000805323
-0.00113149
-0.00154388
-0.00188701
-0.00204681
-0.00223734
-0.00268352
-0.00325235
-0.00372555
-0.00410897
-0.00459444
-0.00520888
-0.00586839
-0.00652543
-0.00704029
-0.00722562
-0.00688204
-0.00580437
-0.00380094
-0.000642686
-0.000860056
-0.00119628
-0.00163714
-0.00202686
-0.00223281
-0.00243996
-0.00288411
-0.00346768
-0.00399354
-0.00442886
-0.00492349
-0.00553982
-0.00620253
-0.00685641
-0.00737058
-0.00756063
-0.0072224
-0.00614332
-0.00412818
-0.00069357
-0.000918889
-0.00126664
-0.00173211
-0.00216664
-0.00242232
-0.00265024
-0.00309415
-0.00368759
-0.00425574
-0.00474514
-0.00525643
-0.00587442
-0.00653819
-0.00718737
-0.00769912
-0.00789283
-0.00755977
-0.0064796
-0.00445396
-0.000746807
-0.000981458
-0.00134252
-0.00182966
-0.00230611
-0.00261398
-0.00286714
-0.00331294
-0.00391391
-0.00451357
-0.00505572
-0.00559167
-0.00621232
-0.00687583
-0.00751879
-0.00802645
-0.00822205
-0.00789399
-0.00681389
-0.00477952
-0.000802465
-0.00104752
-0.00142371
-0.00193046
-0.00244539
-0.00280643
-0.00308935
-0.00353936
-0.00414776
-0.0047698
-0.00535923
-0.00592688
-0.00655307
-0.00721601
-0.00785144
-0.00835299
-0.00854818
-0.00822477
-0.00714639
-0.00510556
-0.000860563
-0.00111668
-0.00151001
-0.00203495
-0.00258446
-0.00299876
-0.0033159
-0.00377201
-0.00438917
-0.00502723
-0.00565524
-0.00625937
-0.00689554
-0.00755905
-0.00818665
-0.00868037
-0.00887269
-0.0085527
-0.00747687
-0.00543177
-0.000921149
-0.00118876
-0.00160084
-0.00214338
-0.00272385
-0.00318987
-0.00354568
-0.0040098
-0.00463673
-0.00528867
-0.00594499
-0.00658666
-0.00723749
-0.00790444
-0.0085255
-0.0090105
-0.00919795
-0.00887921
-0.0078061
-0.00575881
-0.00098424
-0.00126341
-0.00169565
-0.00225575
-0.00286403
-0.00337901
-0.00377723
-0.0042521
-0.00488857
-0.00555557
-0.0062309
-0.00690687
-0.007577
-0.00825085
-0.00886846
-0.0093448
-0.00952585
-0.00920581
-0.00813488
-0.00608709
-0.0010498
-0.00134032
-0.00179371
-0.00237192
-0.00300543
-0.00356554
-0.00400872
-0.00449842
-0.00514308
-0.00582784
-0.00651635
-0.00722058
-0.00791278
-0.00859625
-0.0092145
-0.00968401
-0.00985847
-0.00953534
-0.00846537
-0.00641761
-0.00111781
-0.00141918
-0.00189413
-0.00249122
-0.00314843
-0.00374965
-0.00423831
-0.00474796
-0.00539844
-0.00610315
-0.00680501
-0.00753028
-0.00824423
-0.00893891
-0.00956134
-0.0100271
-0.0101966
-0.00986996
-0.00880012
-0.00675285
-0.00118826
-0.00149967
-0.00199608
-0.00261284
-0.00329274
-0.00393146
-0.00446466
-0.00499978
-0.00565429
-0.00637704
-0.00709601
-0.00783831
-0.00857308
-0.00928044
-0.00990968
-0.0103746
-0.0105411
-0.0102109
-0.0091399
-0.00709244
-0.00126093
-0.00158131
-0.00209874
-0.00273589
-0.00343825
-0.00411165
-0.00468664
-0.0052525
-0.00591253
-0.00664753
-0.00738403
-0.00814196
-0.00889772
-0.00961924
-0.0102583
-0.0107274
-0.0108947
-0.010563
-0.00949017
-0.00744134
-0.00133546
-0.00166393
-0.00220168
-0.00285905
-0.00358336
-0.00429001
-0.00490397
-0.00550346
-0.00617454
-0.00691797
-0.00767054
-0.00844141
-0.00921618
-0.00995271
-0.0106028
-0.01108
-0.0112536
-0.0109254
-0.00985322
-0.00780317
-0.00141167
-0.00174636
-0.00230298
-0.00298106
-0.00372724
-0.00446683
-0.00511692
-0.00574906
-0.00643531
-0.0071869
-0.00795516
-0.0087386
-0.00953027
-0.0102822
-0.0109445
-0.0114319
-0.0116142
-0.0112934
-0.0102269
-0.00818119
-0.00149001
-0.00182949
-0.00240258
-0.00309914
-0.0038667
-0.00464053
-0.00532652
-0.00598866
-0.0066932
-0.00745213
-0.00823408
-0.00903116
-0.00983808
-0.010607
-0.0112846
-0.0117842
-0.0119747
-0.0116626
-0.0106059
-0.00857154
-0.00156848
-0.00191047
-0.00250136
-0.00321852
-0.00400626
-0.0048112
-0.00553385
-0.00622309
-0.00694776
-0.00771533
-0.00850813
-0.00931982
-0.0101409
-0.0109287
-0.0116254
-0.0121402
-0.0123408
-0.0120376
-0.0109906
-0.00896632
-0.00165193
-0.0019788
-0.00257286
-0.00332605
-0.00415129
-0.00498148
-0.00573738
-0.00645187
-0.0071938
-0.00797045
-0.00877367
-0.00959976
-0.0104377
-0.011251
-0.0119757
-0.0125134
-0.0127296
-0.0124353
-0.0113927
-0.00936934
-0.00176093
-0.00207216
-0.00263103
-0.00340163
-0.00428432
-0.00514728
-0.00593285
-0.00667079
-0.00741599
-0.0082004
-0.00901631
-0.00985611
-0.0107152
-0.0115586
-0.0123193
-0.0128995
-0.0131578
-0.0128995
-0.0118868
-0.0098906
-0.00178429
-0.00211872
-0.00274669
-0.00354572
-0.00441518
-0.00530914
-0.00614501
-0.00689092
-0.00761333
-0.00838302
-0.00919116
-0.0100239
-0.0108852
-0.0117304
-0.0124992
-0.0131184
-0.0134534
-0.0133049
-0.0124179
-0.0105556
-0.00191003
-0.00219993
-0.002836
-0.00356395
-0.0044327
-0.00542959
-0.00639411
-0.00719218
-0.00794448
-0.00870318
-0.00952581
-0.0103613
-0.0112163
-0.0120285
-0.0127239
-0.0132039
-0.0133951
-0.0131426
-0.0121966
-0.0103412
-0.00186428
-0.0022961
-0.0029187
-0.00372818
-0.00464997
-0.00555826
-0.00637804
-0.00710162
-0.00783586
-0.00862289
-0.00948484
-0.010392
-0.0113362
-0.0123343
-0.013361
-0.0142931
-0.0149523
-0.0151388
-0.0143216
-0.0127407
-0.00168471
-0.00244563
-0.00315972
-0.00401459
-0.0048638
-0.00584395
-0.00678486
-0.00756269
-0.00828646
-0.00912586
-0.00998925
-0.0108069
-0.0113717
-0.0115627
-0.0113398
-0.0107937
-0.0100964
-0.00951793
-0.00969107
-0.0104938
-0.00176945
-0.00245408
-0.00322088
-0.00399072
-0.00471853
-0.00545574
-0.00622378
-0.00702361
-0.00785769
-0.0087949
-0.00987428
-0.0110353
-0.0122711
-0.0135586
-0.0148394
-0.0160089
-0.0169003
-0.0172912
-0.0169258
-0.015522
-0.00163651
-0.00254238
-0.00332309
-0.00412724
-0.00488489
-0.00580794
-0.00674263
-0.00779209
-0.00877154
-0.00950235
-0.0102226
-0.011079
-0.0118888
-0.0124604
-0.012653
-0.0124759
-0.0120655
-0.0117211
-0.0118239
-0.0127323
-0.00167557
-0.00259024
-0.00336176
-0.00407598
-0.00464144
-0.005242
-0.00588543
-0.00666496
-0.00758566
-0.00873002
-0.0101609
-0.0119044
-0.0138592
-0.0158654
-0.0177178
-0.0192519
-0.0202975
-0.0206663
-0.0201329
-0.0185026
0.0372401
0.0104566
-0.000233655
-0.00207743
-0.00303025
-0.00455229
-0.00621847
-0.00750925
-0.00832071
-0.00912052
-0.0101542
-0.0111955
-0.0121212
-0.013033
-0.0139936
-0.0149839
-0.0160258
-0.0170656
-0.0180507
-0.0190446
-0.0200878
-0.0211236
-0.022154
-0.0232427
-0.0243692
-0.0255469
-0.0267325
-0.0279666
-0.0292876
-0.0306789
-0.0320775
-0.0334686
-0.0348643
-0.0363881
-0.038057
-0.0397098
-0.041449
-0.0432189
-0.0451
-0.0470475
-0.0491326
-0.0512938
-0.0534516
-0.0557483
-0.0580632
-0.0605424
-0.0630935
-0.0656706
-0.0684087
-0.0712239
0.0362878
0.0105027
-0.000192945
-0.00205889
-0.00301971
-0.00454573
-0.00621398
-0.00750595
-0.00831805
-0.00911816
-0.0101521
-0.0111937
-0.0121197
-0.0130316
-0.0139924
-0.0149828
-0.0160249
-0.0170649
-0.01805
-0.019044
-0.0200873
-0.0211231
-0.0221536
-0.0232423
-0.0243689
-0.0255466
-0.0267322
-0.0279663
-0.0292873
-0.0306787
-0.0320772
-0.0334684
-0.0348641
-0.0363879
-0.0380568
-0.0397096
-0.0414488
-0.0432188
-0.0450998
-0.0470473
-0.0491325
-0.0512937
-0.0534515
-0.0557482
-0.0580632
-0.0605423
-0.0630934
-0.0656705
-0.0684086
-0.0712239
0.0354937
0.0106046
-0.00012776
-0.00203772
-0.00300821
-0.0045386
-0.00620948
-0.00750284
-0.00831557
-0.00911601
-0.0101502
-0.0111921
-0.0121183
-0.0130304
-0.0139914
-0.0149819
-0.0160241
-0.0170643
-0.0180495
-0.0190435
-0.0200868
-0.0211227
-0.0221532
-0.0232419
-0.0243685
-0.0255463
-0.0267319
-0.027966
-0.0292871
-0.0306784
-0.032077
-0.0334681
-0.0348639
-0.0363877
-0.0380566
-0.0397094
-0.0414487
-0.0432186
-0.0450997
-0.0470472
-0.0491324
-0.0512936
-0.0534514
-0.0557481
-0.0580631
-0.0605422
-0.0630933
-0.0656705
-0.0684086
-0.0712239
0.0347766
0.0107359
-3.54246e-05
-0.00200957
-0.0029931
-0.00452891
-0.00620354
-0.00749897
-0.00831272
-0.00911373
-0.0101484
-0.0111905
-0.0121168
-0.0130291
-0.0139902
-0.0149809
-0.0160233
-0.0170636
-0.0180489
-0.019043
-0.0200864
-0.0211223
-0.0221528
-0.0232416
-0.0243682
-0.025546
-0.0267317
-0.0279657
-0.0292868
-0.0306782
-0.0320768
-0.0334679
-0.0348637
-0.0363875
-0.0380564
-0.0397093
-0.0414485
-0.0432185
-0.0450996
-0.0470471
-0.0491322
-0.0512935
-0.0534513
-0.055748
-0.058063
-0.0605421
-0.0630933
-0.0656704
-0.0684086
-0.071224
0.0340572
0.0108741
7.578e-05
-0.00197497
-0.00297355
-0.00451531
-0.00619487
-0.00749341
-0.00830898
-0.00911106
-0.0101463
-0.0111887
-0.0121152
-0.0130277
-0.013989
-0.0149797
-0.0160223
-0.0170628
-0.0180482
-0.0190424
-0.0200859
-0.0211219
-0.0221524
-0.0232412
-0.0243679
-0.0255456
-0.0267314
-0.0279655
-0.0292866
-0.030678
-0.0320766
-0.0334677
-0.0348634
-0.0363873
-0.0380563
-0.0397091
-0.0414484
-0.0432183
-0.0450994
-0.047047
-0.0491321
-0.0512934
-0.0534512
-0.0557479
-0.0580629
-0.0605421
-0.0630932
-0.0656704
-0.0684086
-0.071224
0.0333211
0.0110118
0.000196724
-0.00193744
-0.00295103
-0.00449807
-0.00618307
-0.00748562
-0.00830404
-0.00910788
-0.0101439
-0.0111866
-0.0121133
-0.0130261
-0.0139875
-0.0149783
-0.016021
-0.0170618
-0.0180474
-0.0190417
-0.0200853
-0.0211214
-0.022152
-0.0232408
-0.0243675
-0.0255453
-0.0267311
-0.0279652
-0.0292863
-0.0306777
-0.0320764
-0.0334675
-0.0348632
-0.036387
-0.0380561
-0.0397089
-0.0414482
-0.0432182
-0.0450993
-0.0470468
-0.049132
-0.0512933
-0.0534511
-0.0557478
-0.0580628
-0.060542
-0.0630931
-0.0656703
-0.0684086
-0.0712241
0.0325709
0.0111468
0.000322886
-0.0018995
-0.00292738
-0.00447843
-0.00616861
-0.00747561
-0.00829783
-0.00910415
-0.010141
-0.0111839
-0.012111
-0.0130242
-0.0139858
-0.0149766
-0.0160195
-0.0170605
-0.0180463
-0.0190408
-0.0200846
-0.0211208
-0.0221515
-0.0232404
-0.0243671
-0.0255449
-0.0267307
-0.0279648
-0.029286
-0.0306775
-0.0320761
-0.0334673
-0.034863
-0.0363868
-0.0380559
-0.0397087
-0.041448
-0.043218
-0.0450991
-0.0470467
-0.0491319
-0.0512932
-0.053451
-0.0557477
-0.0580627
-0.0605419
-0.0630931
-0.0656702
-0.0684086
-0.0712243
0.0318105
0.0112775
0.000453041
-0.001862
-0.00290372
-0.00445757
-0.00615238
-0.00746386
-0.00829053
-0.00909997
-0.0101378
-0.0111806
-0.0121082
-0.0130221
-0.0139839
-0.0149745
-0.0160175
-0.0170589
-0.018045
-0.0190396
-0.0200837
-0.0211202
-0.022151
-0.0232399
-0.0243667
-0.0255445
-0.0267303
-0.0279645
-0.0292857
-0.0306772
-0.0320759
-0.0334671
-0.0348627
-0.0363866
-0.0380557
-0.0397086
-0.0414478
-0.0432178
-0.045099
-0.0470465
-0.0491317
-0.051293
-0.0534509
-0.0557476
-0.0580626
-0.0605418
-0.063093
-0.0656701
-0.0684086
-0.0712244
0.031042
0.0114031
0.000587447
-0.00182496
-0.00288045
-0.0044361
-0.00613514
-0.00745093
-0.0082824
-0.00909548
-0.0101342
-0.0111767
-0.0121047
-0.0130196
-0.0139818
-0.0149722
-0.0160153
-0.017057
-0.0180434
-0.0190382
-0.0200826
-0.0211194
-0.0221503
-0.0232394
-0.0243662
-0.0255441
-0.0267299
-0.027964
-0.0292853
-0.030677
-0.0320757
-0.0334669
-0.0348625
-0.0363863
-0.0380555
-0.0397084
-0.0414476
-0.0432176
-0.0450988
-0.0470463
-0.0491316
-0.0512929
-0.0534508
-0.0557475
-0.0580625
-0.0605417
-0.0630929
-0.06567
-0.0684086
-0.0712246
0.030267
0.0115225
0.00072677
-0.0017881
-0.00285778
-0.00441426
-0.00611728
-0.00743726
-0.00827368
-0.0090908
-0.0101305
-0.0111723
-0.0121005
-0.0130166
-0.0139795
-0.0149698
-0.0160128
-0.0170547
-0.0180415
-0.0190366
-0.0200813
-0.0211184
-0.0221496
-0.0232388
-0.0243657
-0.0255436
-0.0267294
-0.0279635
-0.0292849
-0.0306767
-0.0320755
-0.0334667
-0.0348622
-0.036386
-0.0380553
-0.0397082
-0.0414474
-0.0432174
-0.0450986
-0.0470461
-0.0491314
-0.0512928
-0.0534507
-0.0557473
-0.0580624
-0.0605415
-0.0630928
-0.0656699
-0.0684086
-0.0712248
0.0294871
0.0116351
0.000871555
-0.00175114
-0.00283586
-0.00439218
-0.00609896
-0.0074231
-0.00826452
-0.009086
-0.0101269
-0.0111678
-0.0120959
-0.0130131
-0.013977
-0.0149672
-0.0160101
-0.0170523
-0.0180393
-0.0190347
-0.0200797
-0.0211172
-0.0221487
-0.0232381
-0.0243651
-0.025543
-0.0267288
-0.0279629
-0.0292843
-0.0306763
-0.0320753
-0.0334665
-0.0348619
-0.0363857
-0.038055
-0.039708
-0.0414472
-0.0432172
-0.0450983
-0.0470459
-0.0491312
-0.0512926
-0.0534505
-0.0557472
-0.0580623
-0.0605414
-0.0630926
-0.0656698
-0.0684085
-0.0712251
0.0287039
0.0117401
0.00102213
-0.00171383
-0.00281484
-0.00436998