/*--------------------------------*- C++ -*----------------------------------*\
| =========                 |                                                 |
| \\      /  F ield         | OpenFOAM: The Open Source CFD Toolbox           |
|  \\    /   O peration     | Version:  v2012                                 |
|   \\  /    A nd           | Website:  www.openfoam.com                      |
|    \\/     M anipulation  |                                                 |
\*---------------------------------------------------------------------------*/
FoamFile
{
    version     2.0;
    format      ascii;
    class       surfaceScalarField;
    location    "4.2";
    object      phi;
}
// * * * * * * * * * * * * * * * * * * * * * * * * * * * * * * * * * * * * * //

dimensions      [0 3 -1 0 0 0 0];
oriented        oriented;


internalField   nonuniform List<scalar> 
13830
(
9.37415e-07
1.73444e-07
9.15058e-07
-2.18016e-07
9.70964e-07
2.91065e-07
8.52462e-07
-8.07939e-07
9.56838e-07
-7.40537e-07
9.71044e-07
6.21128e-07
9.05853e-07
3.04246e-07
9.47675e-07
9.64168e-07
9.16075e-07
2.87873e-07
9.29989e-07
5.9281e-07
9.27248e-07
1.16743e-07
9.31524e-07
-5.07982e-08
9.42501e-07
-4.98568e-08
9.27903e-07
-3.51842e-07
9.37518e-07
-1.79613e-07
9.16992e-07
-3.56067e-07
9.25175e-07
-1.95871e-07
9.02902e-07
-3.22679e-07
9.09166e-07
-1.59958e-07
-2.47961e-07
8.78889e-07
9.72508e-07
1.73468e-07
9.50353e-07
-1.95861e-07
1.00517e-06
2.36249e-07
8.873e-07
-6.9007e-07
9.97808e-07
-8.51045e-07
1.01288e-06
6.06057e-07
9.44197e-07
3.72928e-07
9.90699e-07
9.17667e-07
9.55243e-07
3.23329e-07
9.71929e-07
5.76125e-07
9.64828e-07
1.23843e-07
9.7408e-07
-6.00498e-08
9.75631e-07
-5.14081e-08
9.69741e-07
-3.45951e-07
9.67167e-07
-1.77039e-07
9.59192e-07
-3.48092e-07
9.53124e-07
-1.89803e-07
9.45795e-07
-3.1535e-07
9.36441e-07
-1.50604e-07
-2.37093e-07
9.25573e-07
1.00873e-06
1.74193e-07
9.88089e-07
-1.75221e-07
1.03842e-06
1.85918e-07
9.31445e-07
-5.83093e-07
1.03738e-06
-9.56976e-07
1.06466e-06
5.7877e-07
9.86971e-07
4.50619e-07
1.03232e-06
8.72316e-07
9.97556e-07
3.58094e-07
1.01219e-06
5.6149e-07
1.00459e-06
1.31448e-07
1.01444e-06
-6.99054e-08
1.01244e-06
-4.94114e-08
1.0097e-06
-3.43209e-07
1.00266e-06
-1.69998e-07
9.99277e-07
-3.44708e-07
9.88925e-07
-1.79452e-07
9.86177e-07
-3.12602e-07
9.74172e-07
-1.38599e-07
-2.29985e-07
9.67063e-07
1.04641e-06
1.7556e-07
1.02821e-06
-1.57019e-07
1.07141e-06
1.42712e-07
9.83648e-07
-4.95329e-07
1.07639e-06
-1.04971e-06
1.11711e-06
5.38046e-07
1.03402e-06
5.33711e-07
1.06724e-06
8.39098e-07
1.04021e-06
3.85126e-07
1.04921e-06
5.52483e-07
1.04548e-06
1.35184e-07
1.05349e-06
-7.79233e-08
1.05154e-06
-4.74609e-08
1.04896e-06
-3.40626e-07
1.04072e-06
-1.61754e-07
1.03815e-06
-3.42138e-07
1.0267e-06
-1.6801e-07
1.02448e-06
-3.10382e-07
1.01251e-06
-1.26629e-07
-2.22929e-07
1.00546e-06
1.08583e-06
1.77282e-07
1.07059e-06
-1.41775e-07
1.10473e-06
1.08568e-07
1.04076e-06
-4.31351e-07
1.1132e-06
-1.12216e-06
1.16242e-06
4.8883e-07
1.08417e-06
6.11957e-07
1.09893e-06
8.24341e-07
1.08202e-06
4.0204e-07
1.08715e-06
5.4735e-07
1.08754e-06
1.3479e-07
1.09465e-06
-8.5029e-08
1.09315e-06
-4.59574e-08
1.09009e-06
-3.37568e-07
1.08135e-06
-1.53017e-07
1.07838e-06
-3.39168e-07
1.06674e-06
-1.56364e-07
1.06358e-06
-3.07227e-07
1.05226e-06
-1.15306e-07
-2.1485e-07
1.04418e-06
1.12721e-06
1.78916e-07
1.11492e-06
-1.29483e-07
1.13945e-06
8.40299e-08
1.09869e-06
-3.90588e-07
1.14778e-06
-1.17125e-06
1.19796e-06
4.38648e-07
1.13519e-06
6.74729e-07
1.13337e-06
8.26156e-07
1.12397e-06
4.11441e-07
1.12874e-06
5.42582e-07
1.13154e-06
1.31996e-07
1.13896e-06
-9.2453e-08
1.13742e-06
-4.4413e-08
1.13383e-06
-3.33979e-07
1.12462e-06
-1.43815e-07
1.12094e-06
-3.35481e-07
1.10924e-06
-1.44672e-07
1.10474e-06
-3.02721e-07
1.09407e-06
-1.04642e-07
-2.05661e-07
1.08488e-06
1.17061e-06
1.80004e-07
1.16084e-06
-1.19708e-07
1.17665e-06
6.82136e-08
1.15473e-06
-3.68667e-07
1.18174e-06
-1.19826e-06
1.2265e-06
3.93887e-07
1.18451e-06
7.16712e-07
1.17337e-06
8.37303e-07
1.16766e-06
4.17147e-07
1.17428e-06
5.35964e-07
1.17769e-06
1.28582e-07
1.18578e-06
-1.00544e-07
1.18385e-06
-4.24745e-08
1.17973e-06
-3.29864e-07
1.1701e-06
-1.34181e-07
1.1657e-06
-3.3109e-07
1.15407e-06
-1.33038e-07
1.14819e-06
-2.96837e-07
1.13816e-06
-9.4618e-08
-1.95549e-07
1.12805e-06
1.21595e-06
1.80233e-07
1.20812e-06
-1.11874e-07
1.21695e-06
5.93784e-08
1.20815e-06
-3.59866e-07
1.21727e-06
-1.20737e-06
1.25303e-06
3.58122e-07
1.23073e-06
7.39011e-07
1.21814e-06
8.49893e-07
1.21389e-06
4.214e-07
1.2228e-06
5.27049e-07
1.22562e-06
1.25762e-07
1.23404e-06
-1.08965e-07
1.23166e-06
-4.00907e-08
1.22706e-06
-3.25269e-07
1.21719e-06
-1.24307e-07
1.21222e-06
-3.26117e-07
1.2009e-06
-1.21718e-07
1.19372e-06
-2.89656e-07
1.18442e-06
-8.53182e-08
-1.8473e-07
1.1736e-06
1.26305e-06
1.79532e-07
1.25671e-06
-1.05531e-07
1.2604e-06
5.56868e-08
1.25961e-06
-3.59073e-07
1.25595e-06
-1.20371e-06
1.2819e-06
3.32178e-07
1.27429e-06
7.46619e-07
1.26562e-06
8.58557e-07
1.26243e-06
4.24592e-07
1.2732e-06
5.16278e-07
1.27476e-06
1.24209e-07
1.28296e-06
-1.17169e-07
1.28025e-06
-3.73827e-08
1.27532e-06
-3.20331e-07
1.2655e-06
-1.14488e-07
1.26009e-06
-3.20713e-07
1.24944e-06
-1.11069e-07
1.24106e-06
-2.81276e-07
1.23262e-06
-7.68795e-08
-1.73417e-07
1.22131e-06
1.31175e-06
1.78058e-07
1.3067e-06
-1.00477e-07
1.30666e-06
5.5724e-08
1.31027e-06
-3.62685e-07
1.29839e-06
-1.19182e-06
1.31547e-06
3.15089e-07
1.31693e-06
7.45159e-07
1.31436e-06
8.61132e-07
1.31264e-06
4.26315e-07
1.32474e-06
5.04175e-07
1.32472e-06
1.24227e-07
1.33226e-06
-1.24705e-07
1.32938e-06
-3.45047e-08
1.32432e-06
-3.15268e-07
1.31487e-06
-1.05045e-07
1.30916e-06
-3.15001e-07
1.29954e-06
-1.01445e-07
1.29009e-06
-2.71824e-07
1.28261e-06
-6.94033e-08
-1.61829e-07
1.27102e-06
1.36198e-06
1.76096e-07
1.35823e-06
-9.67193e-08
1.35532e-06
5.86323e-08
1.36127e-06
-3.68638e-07
1.34446e-06
-1.17501e-06
1.35439e-06
3.05161e-07
1.36066e-06
7.38886e-07
1.36408e-06
8.57711e-07
1.36405e-06
4.26352e-07
1.37711e-06
4.91112e-07
1.37545e-06
1.25887e-07
1.38204e-06
-1.31299e-07
1.37913e-06
-3.15892e-08
1.37417e-06
-3.10309e-07
1.3654e-06
-9.62753e-08
1.35944e-06
-3.09039e-07
1.35111e-06
-9.31225e-08
1.34074e-06
-2.61451e-07
1.33427e-06
-6.29275e-08
-1.50173e-07
1.32261e-06
1.4138e-06
1.73946e-07
1.41145e-06
-9.43634e-08
1.40613e-06
6.39504e-08
1.41347e-06
-3.75977e-07
1.39379e-06
-1.15534e-06
1.3983e-06
3.00648e-07
1.40698e-06
7.3021e-07
1.41534e-06
8.4935e-07
1.41666e-06
4.2503e-07
1.43038e-06
4.77394e-07
1.42713e-06
1.2914e-07
1.43265e-06
-1.36817e-07
1.42981e-06
-2.87523e-08
1.42513e-06
-3.05626e-07
1.41729e-06
-8.84368e-08
1.41103e-06
-3.02784e-07
1.40419e-06
-8.62813e-08
1.39304e-06
-2.50297e-07
1.38754e-06
-5.74314e-08
-1.3862e-07
1.37599e-06
1.46735e-06
1.7184e-07
1.46647e-06
-9.34811e-08
1.45908e-06
7.13366e-08
1.4674e-06
-3.84298e-07
1.44593e-06
-1.13386e-06
1.44665e-06
2.99932e-07
1.45672e-06
7.20135e-07
1.46885e-06
8.37219e-07
1.47078e-06
4.23096e-07
1.48482e-06
4.63361e-07
1.4801e-06
1.33855e-07
1.48447e-06
-1.41188e-07
1.48182e-06
-2.61004e-08
1.4775e-06
-3.01307e-07
1.47079e-06
-8.17278e-08
1.46411e-06
-2.96096e-07
1.45883e-06
-8.10095e-08
1.44703e-06
-2.38492e-07
1.44244e-06
-5.28412e-08
-1.27291e-07
1.43111e-06
1.5228e-06
1.6991e-07
1.52334e-06
-9.40178e-08
1.51434e-06
8.03376e-08
1.52335e-06
-3.93311e-07
1.50047e-06
-1.11098e-06
1.49894e-06
3.01463e-07
1.51015e-06
7.08927e-07
1.5251e-06
8.22266e-07
1.52677e-06
4.21423e-07
1.54073e-06
4.49398e-07
1.53476e-06
1.39828e-07
1.53794e-06
-1.44369e-07
1.53556e-06
-2.37171e-08
1.53159e-06
-2.97336e-07
1.52615e-06
-7.62849e-08
1.51883e-06
-2.88781e-07
1.51512e-06
-7.73015e-08
1.50279e-06
-2.26159e-07
1.49899e-06
-4.90455e-08
-1.16259e-07
1.48796e-06
1.58033e-06
1.68188e-07
1.58208e-06
-9.57618e-08
1.57211e-06
9.03065e-08
1.58138e-06
-4.02587e-07
1.55708e-06
-1.08668e-06
1.55484e-06
3.03712e-07
1.56712e-06
6.96648e-07
1.58423e-06
8.05153e-07
1.5849e-06
4.20749e-07
1.59843e-06
4.35875e-07
1.59148e-06
1.46771e-07
1.59345e-06
-1.46339e-07
1.59139e-06
-2.16492e-08
1.58762e-06
-2.93572e-07
1.58354e-06
-7.21988e-08
1.5754e-06
-2.80642e-07
1.57317e-06
-7.50718e-08
1.56043e-06
-2.13424e-07
1.5573e-06
-4.59126e-08
-1.05565e-07
1.54661e-06
1.64009e-06
1.66641e-07
1.64272e-06
-9.83954e-08
1.63254e-06
1.00488e-07
1.64146e-06
-4.11507e-07
1.61561e-06
-1.06082e-06
1.61407e-06
3.0525e-07
1.62725e-06
6.8346e-07
1.64612e-06
7.86288e-07
1.64534e-06
4.21531e-07
1.65814e-06
4.23076e-07
1.65058e-06
1.54329e-07
1.65135e-06
-1.4711e-07
1.64962e-06
-1.99196e-08
1.64578e-06
-2.89731e-07
1.64311e-06
-6.95337e-08
1.634e-06
-2.71531e-07
1.63309e-06
-7.41589e-08
1.62009e-06
-2.0043e-07
1.61748e-06
-4.32999e-08
-9.52445e-08
1.60716e-06
1.70217e-06
1.65215e-07
1.70539e-06
-1.01606e-07
1.69566e-06
1.10209e-07
1.70351e-06
-4.19354e-07
1.67606e-06
-1.03337e-06
1.67639e-06
3.04923e-07
1.69014e-06
6.6971e-07
1.71054e-06
7.65889e-07
1.70816e-06
4.23907e-07
1.72006e-06
4.11171e-07
1.71228e-06
1.62112e-07
1.71188e-06
-1.46712e-07
1.71053e-06
-1.85684e-08
1.70619e-06
-2.85386e-07
1.70498e-06
-6.83266e-08
1.69484e-06
-2.61386e-07
1.69501e-06
-7.43315e-08
1.68193e-06
-1.87347e-07
1.67968e-06
-4.10561e-08
-8.53406e-08
1.66978e-06
1.76665e-06
1.6388e-07
1.77025e-06
-1.05208e-07
1.76141e-06
1.19058e-07
1.76753e-06
-4.25478e-07
1.73865e-06
-1.0045e-06
1.74158e-06
3.01995e-07
1.75544e-06
6.55849e-07
1.77727e-06
7.44058e-07
1.77343e-06
4.27749e-07
1.7844e-06
4.00207e-07
1.77679e-06
1.69719e-07
1.77524e-06
-1.45157e-07
1.77435e-06
-1.76831e-08
1.769e-06
-2.80039e-07
1.76924e-06
-6.85584e-08
1.7581e-06
-2.50248e-07
1.75906e-06
-7.52925e-08
1.74608e-06
-1.74366e-07
1.74405e-06
-3.90244e-08
-7.59104e-08
1.73462e-06
1.83356e-06
1.62651e-07
1.83755e-06
-1.09195e-07
1.82966e-06
1.26945e-07
1.83362e-06
-4.29431e-07
1.80369e-06
-9.74571e-07
1.80948e-06
2.96204e-07
1.82304e-06
6.42288e-07
1.84623e-06
7.20868e-07
1.84124e-06
4.3274e-07
1.85131e-06
3.90145e-07
1.84427e-06
1.76751e-07
1.8415e-06
-1.42385e-07
1.84122e-06
-1.7401e-08
1.83442e-06
-2.73236e-07
1.83597e-06
-7.01099e-08
1.82398e-06
-2.38257e-07
1.82537e-06
-7.66885e-08
1.81269e-06
-1.61683e-07
1.81071e-06
-3.70492e-08
-6.70113e-08
1.80181e-06
1.90297e-06
1.61584e-07
1.90748e-06
-1.13711e-07
1.90039e-06
1.34034e-07
1.902e-06
-4.31039e-07
1.87147e-06
-9.44042e-07
1.87998e-06
2.87695e-07
1.89298e-06
6.29292e-07
1.9174e-06
6.96441e-07
1.9117e-06
4.38448e-07
1.92094e-06
3.80906e-07
1.91487e-06
1.82812e-07
1.91073e-06
-1.38245e-07
1.9112e-06
-1.78669e-08
1.90264e-06
-2.64678e-07
1.90527e-06
-7.27344e-08
1.89262e-06
-2.25609e-07
1.89409e-06
-7.81616e-08
1.88187e-06
-1.49461e-07
1.87981e-06
-3.49922e-08
-5.86848e-08
1.87149e-06
1.97494e-06
1.60747e-07
1.98018e-06
-1.18952e-07
1.97363e-06
1.40583e-07
1.97296e-06
-4.30363e-07
1.9422e-06
-9.13287e-07
1.95302e-06
2.76881e-07
1.96536e-06
6.16944e-07
1.99081e-06
6.70999e-07
1.9849e-06
4.44359e-07
1.99339e-06
3.72407e-07
1.98868e-06
1.87527e-07
1.98299e-06
-1.32552e-07
1.98427e-06
-1.91522e-08
1.9739e-06
-2.54302e-07
1.97722e-06
-7.60603e-08
1.96414e-06
-2.12527e-07
1.96536e-06
-7.93844e-08
1.95371e-06
-1.37809e-07
1.95147e-06
-3.27486e-08
-5.09424e-08
1.94372e-06
2.04961e-06
1.60188e-07
2.05571e-06
-1.25058e-07
2.0495e-06
1.468e-07
2.04676e-06
-4.27627e-07
2.01601e-06
-8.82534e-07
2.0286e-06
2.64286e-07
2.04035e-06
6.052e-07
2.06645e-06
6.44891e-07
2.06092e-06
4.49892e-07
2.06873e-06
3.64601e-07
2.06568e-06
1.90572e-07
2.05831e-06
-1.25176e-07
2.06037e-06
-2.12156e-08
2.04833e-06
-2.42261e-07
2.05194e-06
-7.96706e-08
2.03862e-06
-1.99205e-07
2.03933e-06
-8.00935e-08
2.0283e-06
-1.2678e-07
2.02581e-06
-3.02567e-08
-4.37586e-08
2.01862e-06
2.1271e-06
1.59923e-07
2.1341e-06
-1.32048e-07
2.12813e-06
1.5277e-07
2.12363e-06
-4.23133e-07
2.09294e-06
-8.51846e-07
2.10679e-06
2.5044e-07
2.11805e-06
5.93941e-07
2.14434e-06
6.18603e-07
2.13982e-06
4.54407e-07
2.14694e-06
3.57483e-07
2.14577e-06
1.91743e-07
2.13674e-06
-1.16147e-07
2.13942e-06
-2.38962e-08
2.12602e-06
-2.28864e-07
2.12952e-06
-8.31664e-08
2.11612e-06
-1.85811e-07
2.11612e-06
-8.00928e-08
2.10572e-06
-1.16372e-07
2.10296e-06
-2.75049e-08
-3.7072e-08
2.09628e-06
2.20757e-06
1.59934e-07
2.21534e-06
-1.39818e-07
2.20966e-06
1.58449e-07
2.20375e-06
-4.17223e-07
2.17308e-06
-8.21168e-07
2.18767e-06
2.35843e-07
2.1986e-06
5.83014e-07
2.22446e-06
5.9274e-07
2.22162e-06
4.57253e-07
2.22802e-06
3.51079e-07
2.22876e-06
1.91007e-07
2.21831e-06
-1.05704e-07
2.22137e-06
-2.69501e-08
2.207e-06
-2.14497e-07
2.21004e-06
-8.62089e-08
2.19673e-06
-1.72495e-07
2.19589e-06
-7.9252e-08
2.18605e-06
-1.06535e-07
2.18309e-06
-2.45455e-08
-3.07984e-08
2.17682e-06
2.29115e-06
1.60175e-07
2.29949e-06
-1.48154e-07
2.29421e-06
1.63723e-07
2.28726e-06
-4.10273e-07
2.25649e-06
-7.90393e-07
2.27137e-06
2.20964e-07
2.28216e-06
5.72221e-07
2.30691e-06
5.6799e-07
2.30633e-06
4.57834e-07
2.31201e-06
3.45403e-07
2.3145e-06
1.88516e-07
2.30304e-06
-9.42434e-08
2.30619e-06
-3.01037e-08
2.29127e-06
-1.99574e-07
2.29362e-06
-8.85562e-08
2.2805e-06
-1.5938e-07
2.27872e-06
-7.74748e-08
2.26935e-06
-9.71594e-08
2.26634e-06
-2.15381e-08
-2.48533e-08
2.2604e-06
2.37798e-06
1.60583e-07
2.3866e-06
-1.56774e-07
2.38186e-06
1.6846e-07
2.37427e-06
-4.02685e-07
2.3433e-06
-7.59424e-07
2.358e-06
2.06265e-07
2.36893e-06
5.61297e-07
2.39186e-06
5.45059e-07
2.39398e-06
4.55712e-07
2.39899e-06
3.40389e-07
2.40295e-06
1.84563e-07
2.39095e-06
-8.2243e-08
2.3939e-06
-3.30592e-08
2.37883e-06
-1.84504e-07
2.38031e-06
-9.00381e-08
2.36755e-06
-1.46619e-07
2.36468e-06
-7.45999e-08
2.35553e-06
-8.8014e-08
2.35285e-06
-1.88603e-08
-1.9158e-08
2.34716e-06
2.46818e-06
1.61078e-07
2.47677e-06
-1.65359e-07
2.47266e-06
1.72565e-07
2.46485e-06
-3.94875e-07
2.43366e-06
-7.28229e-07
2.44772e-06
1.92205e-07
2.4591e-06
5.49911e-07
2.47959e-06
5.24576e-07
2.4846e-06
4.50694e-07
2.48912e-06
3.35876e-07
2.49413e-06
1.79549e-07
2.4821e-06
-7.02088e-08
2.48458e-06
-3.55448e-08
2.46971e-06
-1.69633e-07
2.47021e-06
-9.05341e-08
2.45798e-06
-1.3439e-07
2.45345e-06
-7.00749e-08
2.44441e-06
-7.89726e-08
2.44279e-06
-1.72412e-08
-1.36268e-08
2.43726e-06
2.56191e-06
1.61565e-07
2.57013e-06
-1.73579e-07
2.5667e-06
1.76e-07
2.55906e-06
-3.87235e-07
2.5277e-06
-6.96868e-07
2.54066e-06
1.79239e-07
2.55286e-06
5.37717e-07
2.57051e-06
5.06922e-07
2.57831e-06
4.42893e-07
2.58252e-06
3.31665e-07
2.5882e-06
1.73876e-07
2.57656e-06
-5.85748e-08
2.57838e-06
-3.73671e-08
2.56393e-06
-1.55175e-07
2.56349e-06
-9.01001e-08
2.55176e-06
-1.22654e-07
2.55086e-06
-6.91843e-08
2.5441e-06
-7.22111e-08
2.53632e-06
-9.45922e-09
-8.18944e-09
2.53088e-06
2.65931e-06
1.61939e-07
2.66686e-06
-1.8113e-07
2.66406e-06
1.78792e-07
2.65692e-06
-3.80086e-07
2.62556e-06
-6.65513e-07
2.637e-06
1.67799e-07
2.65036e-06
5.24358e-07
2.66505e-06
4.9223e-07
2.67527e-06
4.32669e-07
2.67939e-06
3.27547e-07
2.6853e-06
1.6797e-07
2.67453e-06
-4.78029e-08
2.67546e-06
-3.83024e-08
2.66154e-06
-1.41252e-07
2.66071e-06
-8.92735e-08
2.64764e-06
-1.09582e-07
2.64167e-06
-6.321e-08
2.63365e-06
-6.41912e-08
2.63304e-06
-8.84989e-09
-3.32978e-09
2.62818e-06
2.7605e-06
1.62093e-07
2.76713e-06
-1.87763e-07
2.7649e-06
1.81023e-07
2.75844e-06
-3.73629e-07
2.72736e-06
-6.34428e-07
2.73691e-06
1.58246e-07
2.75174e-06
5.09526e-07
2.76359e-06
4.80387e-07
2.77567e-06
4.20587e-07
2.78004e-06
3.23174e-07
2.78557e-06
1.62447e-07
2.77631e-06
-3.85514e-08
2.77589e-06
-3.78751e-08
2.763e-06
-1.28367e-07
2.76135e-06
-8.76237e-08
2.74797e-06
-9.61961e-08
2.74052e-06
-5.57647e-08
2.73243e-06
-5.61001e-08
2.73398e-06
-1.04045e-08
1.51413e-09
2.72914e-06
2.86562e-06
1.61933e-07
2.87117e-06
-1.93309e-07
2.8694e-06
1.82793e-07
2.86367e-06
-3.67899e-07
2.8332e-06
-6.03965e-07
2.84062e-06
1.50829e-07
2.85712e-06
4.93023e-07
2.8664e-06
4.71107e-07
2.87975e-06
4.07236e-07
2.88466e-06
3.18272e-07
2.88939e-06
1.57717e-07
2.88202e-06
-3.11853e-08
2.87992e-06
-3.57772e-08
2.86828e-06
-1.16725e-07
2.86663e-06
-8.59713e-08
2.86142e-06
-9.09903e-08
2.85896e-06
-5.33047e-08
2.85142e-06
-4.85577e-08
2.8396e-06
1.41317e-09
7.21847e-09
2.8339e-06
2.97479e-06
1.61389e-07
2.97917e-06
-1.97689e-07
2.97777e-06
1.84188e-07
2.97263e-06
-3.6276e-07
2.94318e-06
-5.74513e-07
2.94836e-06
1.45649e-07
2.9666e-06
4.74781e-07
2.97372e-06
4.63994e-07
2.9878e-06
3.93153e-07
2.9934e-06
3.12675e-07
2.99713e-06
1.5398e-07
2.99162e-06
-2.5671e-08
2.98824e-06
-3.23965e-08
2.97807e-06
-1.06553e-07
2.97322e-06
-8.11299e-08
2.96103e-06
-7.87988e-08
2.95035e-06
-4.26259e-08
2.94331e-06
-4.15091e-08
2.94707e-06
-2.35417e-09
1.1255e-08
2.94304e-06
3.08811e-06
1.60434e-07
3.09134e-06
-2.00915e-07
3.09029e-06
1.85243e-07
3.08544e-06
-3.57909e-07
3.05738e-06
-5.46455e-07
3.06034e-06
1.42687e-07
3.08027e-06
4.54854e-07
3.08569e-06
4.58569e-07
3.10003e-06
3.78814e-07
3.10648e-06
3.06224e-07
3.10918e-06
1.51279e-07
3.10495e-06
-2.14384e-08
3.10136e-06
-2.88027e-08
3.09113e-06
-9.63271e-08
3.08939e-06
-7.93867e-08
3.08806e-06
-7.74717e-08
3.08509e-06
-3.9657e-08
3.07548e-06
-3.18947e-08
3.0616e-06
1.15221e-08
1.69704e-08
3.05589e-06
3.20572e-06
1.59077e-07
3.20786e-06
-2.0306e-07
3.20722e-06
1.85883e-07
3.20219e-06
-3.52877e-07
3.17592e-06
-5.20189e-07
3.17671e-06
1.41903e-07
3.19825e-06
4.33312e-07
3.20241e-06
4.54407e-07
3.2167e-06
3.64529e-07
3.22392e-06
2.98998e-07
3.22615e-06
1.49047e-07
3.22135e-06
-1.66377e-08
3.22072e-06
-2.81723e-08
3.20836e-06
-8.39609e-08
3.207e-06
-7.80257e-08
3.18866e-06
-5.91315e-08
3.18038e-06
-3.13779e-08
3.17293e-06
-2.44428e-08
3.17616e-06
8.28225e-09
1.90755e-08
3.17406e-06
3.32772e-06
1.5737e-07
3.32893e-06
-2.04268e-07
3.3288e-06
1.86015e-07
3.32311e-06
-3.47192e-07
3.29885e-06
-4.95926e-07
3.29772e-06
1.43028e-07
3.3205e-06
4.1054e-07
3.3242e-06
4.507e-07
3.3376e-06
3.51132e-07
3.34653e-06
2.90069e-07
3.34732e-06
1.48258e-07
3.34323e-06
-1.25543e-08
3.34261e-06
-2.75458e-08
3.32432e-06
-6.56776e-08
3.31696e-06
-7.06647e-08
3.30845e-06
-5.06146e-08
3.30062e-06
-2.35462e-08
3.29347e-06
-1.73019e-08
3.29775e-06
4.01073e-09
2.09387e-08
3.29588e-06
3.45426e-06
1.55389e-07
3.45468e-06
-2.04686e-07
3.45525e-06
1.85451e-07
3.44841e-06
-3.40355e-07
3.42624e-06
-4.73755e-07
3.42354e-06
1.45727e-07
3.44712e-06
3.86962e-07
3.45112e-06
4.46694e-07
3.46297e-06
3.39288e-07
3.47454e-06
2.78496e-07
3.47264e-06
1.50156e-07
3.4706e-06
-1.05133e-08
3.46557e-06
-2.25178e-08
3.46355e-06
-6.36552e-08
3.45944e-06
-6.65582e-08
3.45943e-06
-5.06033e-08
3.45637e-06
-2.04868e-08
3.44616e-06
-7.09295e-09
3.42775e-06
2.2421e-08
2.71767e-08
3.42151e-06
3.58553e-06
1.53204e-07
3.58522e-06
-2.04378e-07
3.58684e-06
1.8383e-07
3.5782e-06
-3.31708e-07
3.55838e-06
-4.5394e-07
3.55415e-06
1.49954e-07
3.5785e-06
3.62613e-07
3.58272e-06
4.42477e-07
3.59391e-06
3.28102e-07
3.6055e-06
2.66903e-07
3.6059e-06
1.49753e-07
3.59964e-06
-4.24993e-09
3.60097e-06
-2.38451e-08
3.58316e-06
-4.58495e-08
3.57359e-06
-5.69871e-08
3.56239e-06
-3.94051e-08
3.55682e-06
-1.49195e-08
3.55054e-06
-8.07824e-10
3.55476e-06
1.82019e-08
2.79129e-08
3.55402e-06
3.72169e-06
1.50898e-07
3.72078e-06
-2.03466e-07
3.72361e-06
1.80996e-07
3.71294e-06
-3.21032e-07
3.69521e-06
-4.3621e-07
3.69003e-06
1.55135e-07
3.71433e-06
3.38307e-07
3.72002e-06
4.36792e-07
3.72913e-06
3.18994e-07
3.74264e-06
2.53385e-07
3.74287e-06
1.49528e-07
3.73554e-06
3.07888e-09
3.73875e-06
-2.70571e-08
3.7179e-06
-2.49935e-08
3.70857e-06
-4.76618e-08
3.69742e-06
-2.82526e-08
3.69159e-06
-9.09632e-09
3.68578e-06
5.00543e-09
3.69112e-06
1.28598e-08
2.87657e-08
3.69027e-06
3.86296e-06
1.4853e-07
3.86152e-06
-2.02024e-07
3.86571e-06
1.76801e-07
3.85296e-06
-3.08281e-07
3.8369e-06
-4.20145e-07
3.8314e-06
1.60632e-07
3.85472e-06
3.14987e-07
3.86342e-06
4.28092e-07
3.8685e-06
3.13908e-07
3.88605e-06
2.35835e-07
3.88109e-06
1.54489e-07
3.87853e-06
5.64028e-09
3.87132e-06
-1.98436e-08
3.87903e-06
-3.27068e-08
3.87411e-06
-4.2742e-08
3.87471e-06
-2.88452e-08
3.87047e-06
-4.85703e-09
3.86165e-06
1.38198e-08
3.8383e-06
3.62081e-08
3.68497e-08
3.83022e-06
4.00959e-06
1.46093e-07
4.00748e-06
-1.99912e-07
4.01343e-06
1.70851e-07
3.99822e-06
-2.93074e-07
3.98411e-06
-4.06034e-07
3.97792e-06
1.66818e-07
4.00093e-06
2.91983e-07
4.01019e-06
4.18828e-07
4.01671e-06
3.07392e-07
4.02947e-06
2.23074e-07
4.03427e-06
1.49682e-07
4.02665e-06
1.32677e-08
4.02991e-06
-2.31098e-08
4.00584e-06
-8.6355e-09
3.99459e-06
-3.14902e-08
3.98334e-06
-1.75958e-08
3.97857e-06
-8.54278e-11
3.97412e-06
1.82644e-08
3.97946e-06
3.08705e-08
3.76799e-08
3.97863e-06
4.16176e-06
1.43615e-07
4.15907e-06
-1.97218e-07
4.16658e-06
1.63337e-07
4.1494e-06
-2.75893e-07
4.13646e-06
-3.93089e-07
4.13059e-06
1.72684e-07
4.15177e-06
2.708e-07
4.16399e-06
4.06612e-07
4.16858e-06
3.02802e-07
4.18066e-06
2.10988e-07
4.18766e-06
1.42681e-07
4.16724e-06
3.36901e-08
4.16459e-06
-2.0453e-08
4.15611e-06
-1.60018e-10
4.1467e-06
-2.20776e-08
4.13483e-06
-5.72747e-09
4.12991e-06
4.83322e-09
4.12563e-06
2.25452e-08
4.13201e-06
2.44864e-08
3.86589e-08
4.13104e-06
4.31972e-06
1.41079e-07
4.31645e-06
-1.93948e-07
4.32539e-06
1.54398e-07
4.30669e-06
-2.57193e-07
4.29414e-06
-3.80533e-07
4.28978e-06
1.77042e-07
4.3064e-06
2.54174e-07
4.32585e-06
3.87166e-07
4.32278e-06
3.05873e-07
4.34141e-06
1.92361e-07
4.33708e-06
1.47008e-07
4.34236e-06
2.841e-08
4.34158e-06
-1.96709e-08
4.34414e-06
-2.7264e-09
4.33855e-06
-1.64807e-08
4.3402e-06
-7.37778e-09
4.33444e-06
1.05885e-08
4.32665e-06
3.03349e-08
4.29771e-06
5.3423e-08
4.94593e-08
4.28691e-06
4.48376e-06
1.38406e-07
4.47964e-06
-1.89832e-07
4.4903e-06
1.43743e-07
4.46978e-06
-2.36678e-07
4.45826e-06
-3.69014e-07
4.4542e-06
1.81105e-07
4.46986e-06
2.38512e-07
4.48847e-06
3.68564e-07
4.48867e-06
3.05673e-07
4.50097e-06
1.80058e-07
4.50118e-06
1.46799e-07
4.48773e-06
4.18529e-08
4.48275e-06
-1.46877e-08
4.47684e-06
3.18343e-09
4.46738e-06
-7.02145e-09
4.45769e-06
2.3157e-09
4.44991e-06
1.8364e-08
4.44911e-06
3.11424e-08
4.45451e-06
4.80231e-08
5.08186e-08
4.45315e-06
4.654e-06
1.35614e-07
4.64923e-06
-1.85061e-07
4.66106e-06
1.31915e-07
4.63957e-06
-2.15192e-07
4.62814e-06
-3.5758e-07
4.62531e-06
1.83931e-07
4.63926e-06
2.24563e-07
4.65692e-06
3.50908e-07
4.66099e-06
3.01603e-07
4.66585e-06
1.75189e-07
4.67234e-06
1.40313e-07
4.65685e-06
5.73474e-08
4.65214e-06
-9.98176e-09
4.64503e-06
1.02946e-08
4.63796e-06
4.39962e-11
4.62812e-06
1.21553e-08
4.62511e-06
2.13816e-08
4.62012e-06
3.61322e-08
4.62364e-06
4.4498e-08
5.05009e-08
4.62396e-06
4.83076e-06
1.32644e-07
4.82528e-06
-1.79581e-07
4.83808e-06
1.1911e-07
4.81621e-06
-1.93322e-07
4.80392e-06
-3.45285e-07
4.80374e-06
1.84111e-07
4.8136e-06
2.14706e-07
4.83368e-06
3.30824e-07
4.83601e-06
2.99271e-07
4.84137e-06
1.69827e-07
4.84429e-06
1.37395e-07
4.83332e-06
6.83208e-08
4.82647e-06
-3.13155e-09
4.82114e-06
1.56222e-08
4.81365e-06
7.53912e-09
4.80804e-06
1.77555e-08
4.80631e-06
2.31136e-08
4.80615e-06
3.62979e-08
4.80159e-06
4.90561e-08
5.16587e-08
4.80043e-06
5.01428e-06
1.29437e-07
5.00796e-06
-1.73264e-07
5.0217e-06
1.05369e-07
4.99968e-06
-1.71296e-07
4.98642e-06
-3.32032e-07
4.98874e-06
1.8179e-07
4.99569e-06
2.07761e-07
5.0161e-06
3.10409e-07
5.01815e-06
2.97222e-07
5.02258e-06
1.65394e-07
5.02611e-06
1.33874e-07
5.01602e-06
7.84095e-08
5.00842e-06
4.46718e-09
5.00358e-06
2.04654e-08
4.9973e-06
1.38155e-08
4.99073e-06
2.43274e-08
4.98347e-06
3.03698e-08
4.9804e-06
3.93691e-08
4.98372e-06
4.57375e-08
5.10977e-08
4.98428e-06
5.20473e-06
1.26019e-07
5.19783e-06
-1.66364e-07
5.21193e-06
9.12687e-08
5.19061e-06
-1.49979e-07
5.17532e-06
-3.1674e-07
5.18093e-06
1.76186e-07
5.1848e-06
2.03884e-07
5.20547e-06
2.89746e-07
5.20707e-06
2.95624e-07
5.21072e-06
1.61735e-07
5.2142e-06
1.30398e-07
5.20618e-06
8.64315e-08
5.19715e-06
1.34978e-08
5.1931e-06
2.45095e-08
5.18698e-06
1.994e-08
5.18195e-06
2.93541e-08
5.17972e-06
3.26017e-08
5.1791e-06
3.99919e-08
5.17513e-06
4.97073e-08
5.1568e-08
5.17466e-06
5.40246e-06
1.22337e-07
5.39491e-06
-1.58812e-07
5.40927e-06
7.69066e-08
5.38907e-06
-1.29779e-07
5.37156e-06
-2.99229e-07
5.37934e-06
1.68403e-07
5.38192e-06
2.01307e-07
5.40099e-06
2.70677e-07
5.4039e-06
2.9271e-07
5.40572e-06
1.5992e-07
5.40989e-06
1.26227e-07
5.40308e-06
9.32422e-08
5.39378e-06
2.27974e-08
5.38967e-06
2.86192e-08
5.38442e-06
2.51916e-08
5.37902e-06
3.47535e-08
5.37307e-06
3.85503e-08
5.37e-06
4.30584e-08
5.3719e-06
4.78103e-08
5.07963e-08
5.37267e-06
5.60767e-06
1.18405e-07
5.59962e-06
-1.50764e-07
5.61392e-06
6.261e-08
5.59559e-06
-1.11453e-07
5.57557e-06
-2.7921e-07
5.58455e-06
1.59428e-07
5.58642e-06
1.99431e-07
5.60394e-06
2.5316e-07
5.60826e-06
2.88391e-07
5.60878e-06
1.59398e-07
5.6129e-06
1.22107e-07
5.60726e-06
9.88889e-08
5.59823e-06
3.18261e-08
5.59368e-06
3.31647e-08
5.58899e-06
2.98867e-08
5.58423e-06
3.95105e-08
5.57991e-06
4.28744e-08
5.57745e-06
4.5518e-08
5.57735e-06
4.7911e-08
5.01687e-08
5.57797e-06
5.82066e-06
1.14226e-07
5.81227e-06
-1.42378e-07
5.82616e-06
4.8717e-08
5.81063e-06
-9.59134e-08
5.78794e-06
-2.56522e-07
5.79709e-06
1.50281e-07
5.79824e-06
1.98276e-07
5.81505e-06
2.36353e-07
5.82023e-06
2.83204e-07
5.8201e-06
1.59534e-07
5.82347e-06
1.18729e-07
5.81954e-06
1.02824e-07
5.81029e-06
4.10746e-08
5.80577e-06
3.76814e-08
5.80104e-06
3.46234e-08
5.79804e-06
4.2511e-08
5.79525e-06
4.56653e-08
5.79446e-06
4.63059e-08
5.79107e-06
5.12958e-08
5.02873e-08
5.79096e-06
6.04175e-06
1.09773e-07
6.03298e-06
-1.33601e-07
6.04649e-06
3.52039e-08
6.03307e-06
-8.24929e-08
6.00939e-06
-2.32847e-07
6.0167e-06
1.42973e-07
6.01851e-06
1.96466e-07
6.03366e-06
2.21208e-07
6.04051e-06
2.7635e-07
6.03944e-06
1.60603e-07
6.04245e-06
1.15717e-07
6.03942e-06
1.05856e-07
6.03082e-06
4.96812e-08
6.02584e-06
4.26565e-08
6.02184e-06
3.86279e-08
6.01856e-06
4.57916e-08
6.01334e-06
5.08795e-08
6.01022e-06
4.94318e-08
6.01168e-06
4.98264e-08
4.96759e-08
6.0123e-06
6.2712e-06
1.05071e-07
6.26218e-06
-1.24578e-07
6.27509e-06
2.22957e-08
6.26343e-06
-7.08389e-08
6.23943e-06
-2.08846e-07
6.24539e-06
1.37018e-07
6.24701e-06
1.94846e-07
6.26084e-06
2.07375e-07
6.26896e-06
2.68227e-07
6.26752e-06
1.62044e-07
6.26977e-06
1.1347e-07
6.26765e-06
1.07978e-07
6.25972e-06
5.76102e-08
6.25467e-06
4.77001e-08
6.25038e-06
4.29256e-08
6.24791e-06
4.8255e-08
6.24635e-06
5.24426e-08
6.24498e-06
5.08055e-08
6.24184e-06
5.29651e-08
4.96211e-08
6.24189e-06
6.50937e-06
1.00109e-07
6.50005e-06
-1.15264e-07
6.51238e-06
9.96522e-09
6.50211e-06
-6.05661e-08
6.47856e-06
-1.85301e-07
6.4832e-06
1.32384e-07
6.4845e-06
1.93545e-07
6.49686e-06
1.9501e-07
6.50601e-06
2.59076e-07
6.50436e-06
1.63697e-07
6.5059e-06
1.11932e-07
6.50468e-06
1.09199e-07
6.49734e-06
6.49453e-08
6.49222e-06
5.28229e-08
6.48812e-06
4.70251e-08
6.48587e-06
5.05059e-08
6.48187e-06
5.6443e-08
6.47899e-06
5.36812e-08
6.47978e-06
5.21763e-08
4.92382e-08
6.48017e-06
6.75655e-06
9.49019e-08
6.74689e-06
-1.05608e-07
6.75871e-06
-1.85659e-09
6.74962e-06
-5.14772e-08
6.72697e-06
-1.62651e-07
6.73048e-06
1.28882e-07
6.73148e-06
1.92541e-07
6.74212e-06
1.84366e-07
6.75189e-06
2.4931e-07
6.75036e-06
1.65225e-07
6.75119e-06
1.11103e-07
6.75052e-06
1.09872e-07
6.74399e-06
7.14719e-08
6.73904e-06
5.77788e-08
6.73466e-06
5.13981e-08
6.73277e-06
5.23997e-08
6.73162e-06
5.75946e-08
6.73093e-06
5.43657e-08
6.72778e-06
5.53324e-08
4.94964e-08
6.72752e-06
7.01308e-06
8.94699e-08
7.00302e-06
-9.55489e-08
7.01439e-06
-1.32238e-08
7.00648e-06
-4.35667e-08
6.98504e-06
-1.4121e-07
6.9875e-06
1.26423e-07
6.98821e-06
1.91831e-07
6.99701e-06
1.75567e-07
7.007e-06
2.39313e-07
7.00579e-06
1.66439e-07
7.00594e-06
1.10956e-07
7.00594e-06
1.09871e-07
7.00005e-06
7.73607e-08
6.99533e-06
6.25018e-08
6.99095e-06
5.57749e-08
6.98915e-06
5.42e-08
6.98649e-06
6.02491e-08
6.98386e-06
5.70003e-08
6.98434e-06
5.48532e-08
4.97218e-08
6.98411e-06
7.27932e-06
8.38408e-08
7.26881e-06
-8.50355e-08
7.2798e-06
-2.42164e-08
7.27311e-06
-3.68738e-08
7.25337e-06
-1.21474e-07
7.25469e-06
1.25102e-07
7.25512e-06
1.91403e-07
7.26198e-06
1.6871e-07
7.27175e-06
2.29539e-07
7.27104e-06
1.67152e-07
7.27066e-06
1.11329e-07
7.27088e-06
1.09659e-07
7.26572e-06
8.25153e-08
7.26141e-06
6.68188e-08
7.25695e-06
6.02285e-08
7.25516e-06
5.59956e-08
7.25426e-06
6.11466e-08
7.25412e-06
5.7139e-08
7.25142e-06
5.75575e-08
5.04857e-08
7.25065e-06
7.55561e-06
7.80647e-08
7.5448e-06
-7.42287e-08
7.5552e-06
-3.46126e-08
7.54993e-06
-3.16101e-08
7.53115e-06
-1.02694e-07
7.53235e-06
1.2391e-07
7.53254e-06
1.91211e-07
7.53731e-06
1.63936e-07
7.54656e-06
2.20291e-07
7.54639e-06
1.67316e-07
7.54555e-06
1.12178e-07
7.54605e-06
1.09153e-07
7.54156e-06
8.7004e-08
7.53775e-06
7.06313e-08
7.53334e-06
6.46372e-08
7.53131e-06
5.80256e-08
7.52973e-06
6.27293e-08
7.5277e-06
5.91676e-08
7.52813e-06
5.71315e-08
5.13364e-08
7.52728e-06
7.84231e-06
7.22142e-08
7.83145e-06
-6.33732e-08
7.84085e-06
-4.40084e-08
7.83742e-06
-2.81819e-08
7.81889e-06
-8.41637e-08
7.82087e-06
1.21931e-07
7.82081e-06
1.91265e-07
7.82337e-06
1.61381e-07
7.83199e-06
2.11664e-07
7.83233e-06
1.66983e-07
7.83113e-06
1.13374e-07
7.83175e-06
1.08529e-07
7.8278e-06
9.09598e-08
7.82444e-06
7.39936e-08
7.82028e-06
6.87887e-08
7.81813e-06
6.01753e-08
7.81742e-06
6.34434e-08
7.81732e-06
5.92664e-08
7.81555e-06
5.89043e-08
5.23976e-08
7.81449e-06
8.1398e-06
6.63702e-08
8.12913e-06
-5.26977e-08
8.13714e-06
-5.20232e-08
8.1355e-06
-2.65424e-08
8.11871e-06
-6.73696e-08
8.12617e-06
1.14475e-07
8.11994e-06
1.97495e-07
8.12041e-06
1.60911e-07
8.12845e-06
2.03623e-07
8.12921e-06
1.66216e-07
8.12767e-06
1.14921e-07
8.12844e-06
1.07762e-07
8.12494e-06
9.44568e-08
8.12206e-06
7.68687e-08
8.11841e-06
7.24415e-08
8.1158e-06
6.27858e-08
8.11478e-06
6.44614e-08
8.11338e-06
6.06638e-08
8.1138e-06
5.849e-08
5.33999e-08
8.1128e-06
8.44854e-06
6.05954e-08
8.43813e-06
-4.22892e-08
8.44457e-06
-5.84647e-08
8.4442e-06
-2.61759e-08
8.43001e-06
-5.31823e-08
8.42944e-06
1.15053e-07
8.42846e-06
1.98469e-07
8.42908e-06
1.60292e-07
8.43647e-06
1.96237e-07
8.43752e-06
1.6516e-07
8.43568e-06
1.16765e-07
8.43648e-06
1.06957e-07
8.43341e-06
9.75288e-08
8.43083e-06
7.94498e-08
8.42773e-06
7.55398e-08
8.42501e-06
6.55051e-08
8.4243e-06
6.51718e-08
8.42362e-06
6.13507e-08
8.42326e-06
5.88419e-08
5.42707e-08
8.42239e-06
8.76887e-06
5.50089e-08
8.7593e-06