/*--------------------------------*- C++ -*----------------------------------*\
| =========                 |                                                 |
| \\      /  F ield         | OpenFOAM: The Open Source CFD Toolbox           |
|  \\    /   O peration     | Version:  v2012                                 |
|   \\  /    A nd           | Website:  www.openfoam.com                      |
|    \\/     M anipulation  |                                                 |
\*---------------------------------------------------------------------------*/
FoamFile
{
    version     2.0;
    format      ascii;
    class       volVectorField;
    location    "4.2";
    object      U;
}
// * * * * * * * * * * * * * * * * * * * * * * * * * * * * * * * * * * * * * //

dimensions      [0 1 -1 0 0 0 0];


internalField   nonuniform List<vector> 
7000
(
(0.964373 0.00139127 0)
(1.03272 -0.00210439 0)
(0.925577 0.00337466 0)
(1.13889 -0.0102465 0)
(0.698836 -0.00855714 0)
(1.31724 0.00937214 0)
(0.78332 0.00428925 0)
(1.12882 0.0183102 0)
(0.908441 0.00561087 0)
(1.03973 0.0141989 0)
(0.948114 0.00306512 0)
(1.02916 -0.00145343 0)
(0.960573 -0.00144259 0)
(1.04797 -0.0139033 0)
(0.93663 -0.00755873 0)
(1.05994 -0.0180764 0)
(0.902364 -0.0106922 0)
(1.06646 -0.0208653 0)
(0.864312 -0.0113292 0)
(1.07004 -0.0203219 0)
(0.966855 0.00138243 0)
(1.02954 -0.0018738 0)
(0.929815 0.00270835 0)
(1.12899 -0.00862462 0)
(0.714293 -0.0102628 0)
(1.30669 0.00891917 0)
(0.806065 0.0054187 0)
(1.11576 0.0177087 0)
(0.933176 0.00636838 0)
(1.02596 0.0139879 0)
(0.974348 0.00323026 0)
(1.00952 -0.00160837 0)
(0.992792 -0.00177917 0)
(1.0139 -0.013428 0)
(0.98016 -0.00784643 0)
(1.00944 -0.017318 0)
(0.962132 -0.0106825 0)
(0.998854 -0.0201972 0)
(0.942694 -0.0105665 0)
(0.985929 -0.0204079 0)
(0.971688 0.00138577 0)
(1.02395 -0.00166383 0)
(0.937837 0.00211528 0)
(1.11286 -0.00725333 0)
(0.747819 -0.0118274 0)
(1.28043 0.00865046 0)
(0.854094 0.00680906 0)
(1.08618 0.0167389 0)
(0.966837 0.00722159 0)
(1.00755 0.013549 0)
(0.996764 0.00343459 0)
(0.995723 -0.00196223 0)
(1.01111 -0.00177258 0)
(0.997408 -0.0132847 0)
(1.0005 -0.00763793 0)
(0.98922 -0.0169921 0)
(0.986846 -0.010352 0)
(0.976064 -0.0196226 0)
(0.972035 -0.0102867 0)
(0.96329 -0.0190413 0)
(0.978218 0.0013956 0)
(1.01706 -0.00148971 0)
(0.948608 0.00163939 0)
(1.09188 -0.0061344 0)
(0.796414 -0.0131342 0)
(1.23701 0.008248 0)
(0.914067 0.00819552 0)
(1.05032 0.0158852 0)
(0.99084 0.0078715 0)
(0.99502 0.0132003 0)
(1.00511 0.00358962 0)
(0.993529 -0.00225862 0)
(1.01379 -0.00167299 0)
(0.996397 -0.0132111 0)
(1.00292 -0.00723696 0)
(0.987107 -0.0169078 0)
(0.990391 -0.00965741 0)
(0.973134 -0.0195172 0)
(0.977057 -0.00950159 0)
(0.960468 -0.0181361 0)
(0.985477 0.00140847 0)
(1.0101 -0.00133957 0)
(0.960555 0.00124649 0)
(1.06868 -0.00526649 0)
(0.850948 -0.0141803 0)
(1.18198 0.00756987 0)
(0.967685 0.00953145 0)
(1.02177 0.0153961 0)
(1.00074 0.0083051 0)
(0.990451 0.0130397 0)
(1.00563 0.00363416 0)
(0.997458 -0.00247864 0)
(1.01208 -0.00160442 0)
(1.00099 -0.0130969 0)
(1.00099 -0.00685479 0)
(0.990762 -0.0167812 0)
(0.98866 -0.00896639 0)
(0.976203 -0.0194054 0)
(0.975582 -0.00861438 0)
(0.963292 -0.0174241 0)
(0.992455 0.00142257 0)
(1.00418 -0.0012158 0)
(0.971941 0.00094948 0)
(1.04666 -0.00466897 0)
(0.900963 -0.0149367 0)
(1.12512 0.00677578 0)
(1.00354 0.0106994 0)
(1.00654 0.0153034 0)
(1.00195 0.00856756 0)
(0.991051 0.0129512 0)
(1.00536 0.00358081 0)
(1.00249 -0.002691 0)
(1.01197 -0.00154685 0)
(1.00586 -0.0129647 0)
(1.00053 -0.00646494 0)
(0.994809 -0.0166075 0)
(0.987953 -0.00831659 0)
(0.979789 -0.0191827 0)
(0.974644 -0.00778661 0)
(0.96658 -0.0167342 0)
(0.998368 0.00143427 0)
(0.999915 -0.00111739 0)
(0.981482 0.000749442 0)
(1.02856 -0.00431871 0)
(0.939801 -0.0154038 0)
(1.07551 0.00604207 0)
(1.02004 0.0115677 0)
(1.00203 0.0154795 0)
(1.0009 0.00872308 0)
(0.993855 0.0128301 0)
(1.00691 0.00349441 0)
(1.00655 -0.002923 0)
(1.01391 -0.00148237 0)
(1.00949 -0.0128166 0)
(1.00188 -0.0060483 0)
(0.997944 -0.0164069 0)
(0.98902 -0.00767451 0)
(0.982708 -0.0188483 0)
(0.975483 -0.00704091 0)
(0.969362 -0.0159823 0)
(1.00282 0.00144001 0)
(0.997365 -0.00103918 0)
(0.988711 0.000630657 0)
(1.01548 -0.00415537 0)
(0.96602 -0.0156178 0)
(1.03806 0.00544723 0)
(1.02197 0.0120906 0)
(1.00236 0.0157455 0)
(1.00077 0.00883067 0)
(0.997181 0.0126486 0)
(1.00978 0.00341069 0)
(1.00928 -0.00317474 0)
(1.0163 -0.00140521 0)
(1.01191 -0.012649 0)
(1.0037 -0.00561518 0)
(1.00025 -0.0161818 0)
(0.990874 -0.0070345 0)
(0.985145 -0.0184234 0)
(0.977379 -0.00636771 0)
(0.971893 -0.0151571 0)
(1.00582 0.00143808 0)
(0.996113 -0.000976027 0)
(0.993888 0.000572776 0)
(1.00687 -0.00411152 0)
(0.981798 -0.0156396 0)
(1.01308 0.00500516 0)
(1.01597 0.01232 0)
(1.00307 0.0159656 0)
(1.00177 0.00891427 0)
(1.00027 0.012413 0)
(1.01267 0.00335126 0)
(1.01087 -0.00343083 0)
(1.01779 -0.00131595 0)
(1.01337 -0.0124657 0)
(1.00499 -0.00517897 0)
(1.00191 -0.0159311 0)
(0.992664 -0.00641933 0)
(0.987303 -0.0179231 0)
(0.979562 -0.00575558 0)
(0.974378 -0.0142738 0)
(1.00761 0.00142894 0)
(0.995599 -0.000924912 0)
(0.997613 0.000558145 0)
(1.00135 -0.00413487 0)
(0.990602 -0.0155315 0)
(0.997956 0.00470298 0)
(1.00747 0.0123521 0)
(1.0025 0.0160743 0)
(1.00302 0.00896914 0)
(1.00276 0.0121375 0)
(1.01476 0.00333007 0)
(1.01153 -0.00367364 0)
(1.0179 -0.0012188 0)
(1.014 -0.0122746 0)
(1.00545 -0.00475245 0)
(1.003 -0.0156592 0)
(0.994073 -0.00585592 0)
(0.989166 -0.0173528 0)
(0.981665 -0.00520273 0)
(0.976775 -0.013356 0)
(1.00852 0.00141458 0)
(0.995392 -0.000885137 0)
(1.00046 0.000575314 0)
(0.997569 -0.00419368 0)
(0.99554 -0.0153421 0)
(0.989328 0.00451636 0)
(0.99964 0.0122747 0)
(1.00091 0.016061 0)
(1.00392 0.00898659 0)
(1.00449 0.0118337 0)
(1.0158 0.00335233 0)
(1.01142 -0.00389138 0)
(1.0168 -0.00111759 0)
(1.01389 -0.0120845 0)
(1.00522 -0.00434998 0)
(1.00352 -0.0153713 0)
(0.995109 -0.00536274 0)
(0.99064 -0.0167185 0)
(0.983581 -0.0047149 0)
(0.978955 -0.0124265 0)
(1.0088 0.00139757 0)
(0.995295 -0.000857494 0)
(1.00276 0.000618309 0)
(0.994712 -0.00427233 0)
(0.998636 -0.0151045 0)
(0.984482 0.00441855 0)
(0.993726 0.0121437 0)
(0.999195 0.0159432 0)
(1.00444 0.00896871 0)
(1.00547 0.0115108 0)
(1.01597 0.00341578 0)
(1.01073 -0.00407857 0)
(1.01488 -0.00101595 0)
(1.01318 -0.011903 0)
(1.0046 -0.00398454 0)
(1.00352 -0.015068 0)
(0.995866 -0.00495199 0)
(0.99168 -0.0160294 0)
(0.985274 -0.00429518 0)
(0.980822 -0.011502 0)
(1.0086 0.00138018 0)
(0.995305 -0.00084304 0)
(1.00461 0.000683937 0)
(0.992549 -0.00436436 0)
(1.00081 -0.0148384 0)
(0.981722 0.00438559 0)
(0.989889 0.0119857 0)
(0.998051 0.0157447 0)
(1.00487 0.00892925 0)
(1.00586 0.0111757 0)
(1.01553 0.00352384 0)
(1.00968 -0.00423185 0)
(1.01253 -0.000918323 0)
(1.01206 -0.0117333 0)
(1.00382 -0.00366645 0)
(1.0031 -0.0147443 0)
(0.996412 -0.00463038 0)
(0.99232 -0.0152963 0)
(0.98671 -0.00394009 0)
(0.982353 -0.0105924 0)
(1.00801 0.00136391 0)
(0.995512 -0.00084199 0)
(1.00592 0.00076881 0)
(0.991227 -0.00446635 0)
(1.0022 -0.0145525 0)
(0.980182 0.00439592 0)
(0.987828 0.0118088 0)
(0.997739 0.0154862 0)
(1.00545 0.0088871 0)
(1.00586 0.0108377 0)
(1.01476 0.00367267 0)
(1.00853 -0.00434994 0)
(1.01009 -0.000829067 0)
(1.01073 -0.0115751 0)
(1.00307 -0.00340438 0)
(1.0024 -0.0143907 0)
(0.996778 -0.00439709 0)
(0.992652 -0.0145299 0)
(0.987855 -0.0036428 0)
(0.98358 -0.00970381 0)
(1.00709 0.00134936 0)
(0.995991 -0.000853077 0)
(1.00658 0.000867229 0)
(0.990961 -0.00457398 0)
(1.00264 -0.0142484 0)
(0.97949 0.00442805 0)
(0.987086 0.0116141 0)
(0.998152 0.015183 0)
(1.00626 0.00885992 0)
(1.00563 0.0105069 0)
(1.01383 0.00385051 0)
(1.00747 -0.00443164 0)
(1.0078 -0.000750845 0)
(1.00933 -0.0114247 0)
(1.00243 -0.00320456 0)
(1.00154 -0.0139981 0)
(0.996973 -0.00424596 0)
(0.992782 -0.0137402 0)
(0.988697 -0.00339545 0)
(0.984571 -0.00883955 0)
(1.00594 0.00133645 0)
(0.996742 -0.000873704 0)
(1.0066 0.000971719 0)
(0.991781 -0.00468064 0)
(1.00194 -0.0139245 0)
(0.9795 0.00446032 0)
(0.987179 0.011403 0)
(0.99899 0.0148446 0)
(1.00726 0.00886088 0)
(1.0053 0.0101911 0)
(1.0129 0.00404716 0)
(1.00664 -0.00447664 0)
(1.00585 -0.000685134 0)
(1.00796 -0.0112737 0)
(1.00192 -0.00306985 0)
(1.00065 -0.0135605 0)
(0.996997 -0.00416818 0)
(0.992816 -0.012936 0)
(0.989258 -0.00318977 0)
(0.985398 -0.00800248 0)
(1.00467 0.00132472 0)
(0.997673 -0.000900748 0)
(1.00612 0.00107469 0)
(0.993434 -0.00477826 0)
(1.0002 -0.013579 0)
(0.980113 0.00447314 0)
(0.987685 0.0111793 0)
(0.999928 0.0144767 0)
(1.00832 0.00889641 0)
(1.00496 0.00989521 0)
(1.01205 0.00425744 0)
(1.0061 -0.00448518 0)
(1.00437 -0.000633588 0)
(1.00669 -0.0111079 0)
(1.00149 -0.00299977 0)
(0.999835 -0.013077 0)
(0.996858 -0.0041524 0)
(0.992831 -0.0121239 0)
(0.989585 -0.00301646 0)
(0.986115 -0.00719677 0)
(1.00342 0.00131375 0)
(0.99863 -0.000931692 0)
(1.00542 0.00117004 0)
(0.995456 -0.00485891 0)
(0.997755 -0.013213 0)
(0.981186 0.00445204 0)
(0.988315 0.0109497 0)
(1.00072 0.0140815 0)
(1.00933 0.00896595 0)
(1.00465 0.00962127 0)
(1.01136 0.00447287 0)
(1.00582 -0.00445595 0)
(1.0034 -0.000600369 0)
(1.00559 -0.0109104 0)
(1.00109 -0.00299067 0)
(0.9992 -0.01255 0)
(0.996584 -0.00418771 0)
(0.992873 -0.0113107 0)
(0.989745 -0.0028618 0)
(0.986744 -0.00642676 0)
(1.00231 0.00130343 0)
(0.999453 -0.000965656 0)
(1.0048 0.00125513 0)
(0.997362 -0.00491662 0)
(0.995099 -0.0128304 0)
(0.982519 0.00438871 0)
(0.988927 0.0107227 0)
(1.00127 0.0136593 0)
(1.01023 0.0090638 0)
(1.0044 0.00937064 0)
(1.01089 0.00466729 0)
(1.00577 -0.00438831 0)
(1.00292 -0.000592498 0)
(1.00473 -0.0106664 0)
(1.00068 -0.00303658 0)
(0.998781 -0.0119795 0)
(0.996222 -0.00426221 0)
(0.992953 -0.0105147 0)
(0.989809 -0.00271178 0)
(0.987285 -0.00569386 0)
(1.00144 0.00129413 0)
(1.00003 -0.00100352 0)
(1.00447 0.00133067 0)
(0.998824 -0.00494823 0)
(0.992691 -0.0124368 0)
(0.983899 0.00428221 0)
(0.989485 0.0105043 0)
(1.00154 0.0132118 0)
(1.01098 0.0091818 0)
(1.00425 0.00913836 0)
(1.01067 0.00484413 0)
(1.00593 -0.00427212 0)
(1.00285 -0.000608079 0)
(1.00417 -0.010365 0)
(1.00028 -0.00313414 0)
(0.998562 -0.0113627 0)
(0.995837 -0.00434753 0)
(0.993055 -0.00975726 0)
(0.989839 -0.00256561 0)
(0.98773 -0.00500162 0)
(1.00081 0.00128641 0)
(1.00034 -0.00104707 0)
(1.00448 0.00139925 0)
(0.999754 -0.00495308 0)
(0.990809 -0.0120385 0)
(0.985159 0.00413824 0)
(0.989999 0.0102957 0)
(1.00159 0.0127427 0)
(1.01152 0.00930939 0)
(1.00422 0.00892576 0)
(1.01065 0.00499533 0)
(1.00625 -0.00410928 0)
(1.00305 -0.00064356 0)
(1.00388 -0.00999244 0)
(0.999938 -0.0032826 0)
(0.998485 -0.0107214 0)
(0.995494 -0.00440157 0)
(0.993148 -0.00902858 0)
(0.989879 -0.00242596 0)
(0.988077 -0.00436111 0)
(1.00042 0.00128073 0)
(1.00041 -0.00109793 0)
(1.00475 0.00146358 0)
(1.00025 -0.0049328 0)
(0.98952 -0.0116392 0)
(0.986216 0.00396381 0)
(0.990479 0.0100983 0)
(1.00144 0.0122574 0)
(1.0118 0.00943489 0)
(1.00433 0.0087327 0)
(1.01078 0.00509769 0)
(1.00668 -0.00390341 0)
(1.00342 -0.000707962 0)
(1.00382 -0.00953776 0)
(0.999721 -0.00345172 0)
(0.998477 -0.0101031 0)
(0.995244 -0.00442684 0)
(0.993206 -0.00830264 0)
(0.98995 -0.00226682 0)
(0.988336 -0.00377365 0)
(1.00022 0.0012774 0)
(1.00032 -0.00115702 0)
(1.00514 0.00152547 0)
(1.00051 -0.00489079 0)
(0.988756 -0.01124 0)
(0.987054 0.00376638 0)
(0.990925 0.00991071 0)
(1.00112 0.0117639 0)
(1.01177 0.00954659 0)
(1.00454 0.00855482 0)
(1.01094 0.00514819 0)
(1.00714 -0.00363973 0)
(1.00386 -0.000806902 0)
(1.00388 -0.00903029 0)
(0.999653 -0.00358548 0)
(0.998475 -0.00949114 0)
(0.995119 -0.00446113 0)
(0.993227 -0.00761421 0)
(0.990058 -0.00206804 0)
(0.988527 -0.0032191 0)
(1.00015 0.00127649 0)
(1.00016 -0.00122414 0)
(1.00548 0.00158514 0)
(1.00069 -0.0048305 0)
(0.9884 -0.0108412 0)
(0.987702 0.00355463 0)
(0.991334 0.00973019 0)
(1.00066 0.0112721 0)
(1.01139 0.00962926 0)
(1.00484 0.00840044 0)
(1.01106 0.00513923 0)
(1.00756 -0.00332683 0)
(1.00431 -0.000911741 0)
(1.00398 -0.00851581 0)
(0.999735 -0.00369933 0)
(0.998437 -0.00883089 0)
(0.995115 -0.00445517 0)
(0.993224 -0.00699102 0)
(0.990207 -0.0018652 0)
(0.988679 -0.00269605 0)
(1.00015 0.00127771 0)
(0.999992 -0.00129739 0)
(1.00567 0.00164111 0)
(1.0009 -0.00475528 0)
(0.988351 -0.0104422 0)
(0.988199 0.00333465 0)
(0.991702 0.00955603 0)
(1.00009 0.0107948 0)
(1.01067 0.00966402 0)
(1.00516 0.00826834 0)
(1.01106 0.00508857 0)
(1.00787 -0.002995 0)
(1.00471 -0.00100485 0)
(1.00402 -0.00795572 0)
(0.99994 -0.00382465 0)
(0.998354 -0.00818052 0)
(0.995209 -0.00437902 0)
(0.993209 -0.00637293 0)
(0.990399 -0.00165018 0)
(0.988824 -0.00221309 0)
(1.00018 0.00128023 0)
(0.99986 -0.00137394 0)
(1.00564 0.00169219 0)
(1.00117 -0.00467096 0)
(0.988544 -0.0100402 0)
(0.988584 0.0031137 0)
(0.992036 0.00937836 0)
(0.999471 0.0103502 0)
(1.00965 0.00964505 0)
(1.00546 0.00814582 0)
(1.01089 0.00500071 0)
(1.00802 -0.00262789 0)
(1.00505 -0.00113256 0)
(1.00398 -0.00735312 0)
(1.00021 -0.0038823 0)
(0.998233 -0.00754387 0)
(0.995381 -0.00429473 0)
(0.993207 -0.00579723 0)
(0.990622 -0.00141027 0)
(0.988981 -0.00173845 0)
(1.00021 0.00128384 0)
(0.999796 -0.00145234 0)
(1.00537 0.0017378 0)
(1.0015 -0.00458134 0)
(0.988932 -0.00963904 0)
(0.98889 0.00290484 0)
(0.992347 0.0091921 0)
(0.99887 0.00994468 0)
(1.00844 0.00956234 0)
(1.00568 0.00805471 0)
(1.01055 0.00484993 0)
(1.008 -0.00223499 0)
(1.00528 -0.00123576 0)
(1.00384 -0.00682329 0)
(1.00051 -0.00391131 0)
(0.998079 -0.00686094 0)
(0.995586 -0.00412672 0)
(0.993237 -0.00527045 0)
(0.990883 -0.00123115 0)
(0.989169 -0.00130676 0)
(1.00023 0.00128866 0)
(0.999814 -0.00153017 0)
(1.00488 0.00177699 0)
(1.00183 -0.0044922 0)
(0.989474 -0.00923224 0)
(0.989147 0.00269873 0)
(0.992646 0.00900594 0)
(0.998344 0.00958814 0)
(1.00715 0.00941924 0)
(1.0058 0.00794444 0)
(1.01006 0.00474115 0)
(1.00785 -0.00194987 0)
(1.00538 -0.00122856 0)
(1.00363 -0.0063168 0)
(1.00079 -0.00391267 0)
(0.997928 -0.00632622 0)
(0.995795 -0.00381304 0)
(0.993296 -0.00480899 0)
(0.991174 -0.000932726 0)
(0.989409 -0.000850975 0)
(1.00023 0.00129184 0)
(0.999917 -0.00160102 0)
(1.0042 0.00180979 0)
(1.00213 -0.00441056 0)
(0.990124 -0.00881719 0)
(0.989378 0.00251406 0)
(0.992948 0.00879347 0)
(0.997936 0.00928714 0)
(1.00589 0.00924432 0)
(1.00582 0.00781532 0)
(1.00946 0.00460636 0)
(1.00759 -0.00157509 0)
(1.00538 -0.00134199 0)
(1.00337 -0.00573554 0)
(1.001 -0.0038509 0)
(0.997801 -0.00575718 0)
(0.995994 -0.00360283 0)
(0.993398 -0.00431675 0)
(0.991485 -0.000663634 0)
(0.989652 -0.000384985 0)
(1.00023 0.00129255 0)
(1.0001 -0.00166326 0)
(1.0034 0.00182936 0)
(1.00236 -0.00432314 0)
(0.99083 -0.00842769 0)
(0.989601 0.0023791 0)
(0.993264 0.00854444 0)
(0.997661 0.00906662 0)
(1.00476 0.00895529 0)
(1.00574 0.00780701 0)
(1.00881 0.00431549 0)
(1.00726 -0.0011232 0)
(1.00528 -0.00139861 0)
(1.0031 -0.00519808 0)
(1.00116 -0.00393514 0)
(0.99769 -0.00496782 0)
(0.996163 -0.00346086 0)
(0.993544 -0.00356256 0)
(0.991804 -0.000803655 0)
(0.989956 -0.000200367 0)
(1.0002 0.00129807 0)
(1.00034 -0.00172799 0)
(1.00254 0.00186077 0)
(1.0025 -0.00426878 0)
(0.991535 -0.00800437 0)
(0.989829 0.00222683 0)
(0.993603 0.00830348 0)
(0.997511 0.00886155 0)
(1.00381 0.00872023 0)
(1.00561 0.00760843 0)
(1.00815 0.00434577 0)
(1.00692 -0.00116101 0)
(1.0051 -0.00112734 0)
(1.00283 -0.00481204 0)
(1.00128 -0.00378422 0)
(0.997642 -0.00462685 0)
(0.996323 -0.00292099 0)
(0.993702 -0.00335098 0)
(0.992084 -7.21484e-05 0)
(0.990338 0.000464943 0)
(1.00017 0.00128891 0)
(1.00061 -0.00175888 0)
(1.00171 0.00186614 0)
(1.00255 -0.00418904 0)
(0.992192 -0.00763202 0)
(0.990067 0.00216612 0)
(0.993968 0.00797712 0)
(0.997475 0.00874801 0)
(1.00307 0.00838115 0)
(1.00546 0.00754233 0)
(1.00752 0.00412099 0)
(1.0066 -0.000776679 0)
(1.00491 -0.001261 0)
(1.00261 -0.0042597 0)
(1.00133 -0.00373031 0)
(0.997664 -0.004099 0)
(0.996414 -0.00271765 0)
(0.993968 -0.00265966 0)
(0.992499 -5.65445e-05 0)
(0.990596 0.000685121 0)
(1.00013 0.00128301 0)
(1.00089 -0.00179683 0)
(1.00096 0.00187441 0)
(1.00252 -0.00413522 0)
(0.992771 -0.00727698 0)
(0.990307 0.00211966 0)
(0.99436 0.00768266 0)
(0.997505 0.00858848 0)
(1.00257 0.00812014 0)
(1.00529 0.00736924 0)
(1.00699 0.00403578 0)
(1.00632 -0.000647923 0)
(1.00469 -0.00103368 0)
(1.00243 -0.00400945 0)
(1.00138 -0.00345618 0)
(0.997724 -0.00381777 0)
(0.996586 -0.00234377 0)
(0.994162 -0.00231273 0)
(0.992718 0.000144166 0)
(0.991047 0.00109901 0)
(1.00009 0.00128623 0)
(1.00113 -0.00184327 0)
(1.00032 0.00191041 0)
(1.00244 -0.00411998 0)
(0.993254 -0.00686195 0)
(0.990545 0.00202046 0)
(0.994765 0.00740018 0)
(0.99759 0.00846912 0)
(1.00223 0.007883 0)
(1.00516 0.00711119 0)
(1.0065 0.00419377 0)
(1.00611 -0.000865956 0)
(1.00451 -0.000686403 0)
(1.00232 -0.00362436 0)
(1.00139 -0.00326543 0)
(0.997854 -0.00352273 0)
(0.996682 -0.0017004 0)
(0.994479 -0.00214653 0)
(0.993208 0.000949496 0)
(0.991337 0.00177983 0)
(1.00005 0.00125362 0)
(1.00133 -0.00181683 0)
(0.999832 0.00187531 0)
(1.00233 -0.00397466 0)
(0.993647 -0.00661661 0)
(0.990775 0.00213617 0)
(0.995174 0.00689004 0)
(0.997687 0.00854693 0)
(1.00205 0.00738987 0)
(1.00505 0.00718218 0)
(1.00611 0.00379569 0)
(1.00593 -0.000178069 0)
(1.00438 -0.00124665 0)
(1.00221 -0.00255548 0)
(1.00144 -0.00357957 0)
(0.998044 -0.0025135 0)
(0.996825 -0.00172842 0)
(0.994733 -0.000858667 0)
(0.99352 8.60078e-05 0)
(0.9917 0.00120614 0)
(1 0.00124972 0)
(1.00146 -0.00184896 0)
(0.999478 0.00189117 0)
(1.00222 -0.00395847 0)
(0.993956 -0.00629425 0)
(0.991 0.00213575 0)
(0.995553 0.00656202 0)
(0.997804 0.00835611 0)
(1.00195 0.00728665 0)
(1.00496 0.00670815 0)
(1.0058 0.00402643 0)
(1.00576 -0.0003735 0)
(1.0043 -0.000841286 0)
(1.00217 -0.00248553 0)
(1.0015 -0.00290736 0)
(0.998283 -0.00262954 0)
(0.99706 -0.00125113 0)
(0.994967 -0.000713646 0)
(0.993755 0.000753123 0)
(0.992203 0.00192916 0)
(0.999973 0.00124441 0)
(1.00153 -0.00187091 0)
(0.999245 0.00191412 0)
(1.00212 -0.00393081 0)
(0.994197 -0.0059372 0)
(0.991227 0.00206168 0)
(0.995896 0.00632205 0)
(0.997908 0.00820587 0)
(1.0019 0.00709733 0)
(1.00492 0.00637808 0)
(1.00548 0.00419568 0)
(1.00567 -0.000501001 0)
(1.00423 -0.000472248 0)
(1.00216 -0.00230993 0)
(1.00154 -0.00248134 0)
(0.998515 -0.00243924 0)
(0.997274 -0.000744735 0)
(0.995302 -0.00053679 0)
(0.994227 0.00169726 0)
(0.992516 0.00267451 0)
(0.999955 0.0011994 0)
(1.00153 -0.00180715 0)
(0.999114 0.00183235 0)
(1.00202 -0.00367479 0)
(0.994407 -0.00582396 0)
(0.991443 0.0023375 0)
(0.996201 0.00563425 0)
(0.99799 0.00837623 0)
(1.00189 0.00665797 0)
(1.00488 0.00638182 0)
(1.00524 0.00377896 0)
(1.00553 0.00026453 0)
(1.00421 -0.00126576 0)
(1.00215 -0.00104562 0)
(1.00162 -0.0025993 0)
(0.998785 -0.00136424 0)
(0.997519 -0.000743493 0)
(0.995636 0.000332938 0)
(0.994582 0.000769968 0)
(0.992904 0.00175881 0)
(0.999939 0.00119665 0)
(1.0015 -0.00183363 0)
(0.999051 0.0018195 0)
(1.00195 -0.00362619 0)
(0.99459 -0.00556042 0)
(0.991662 0.00233202 0)
(0.99646 0.00537208 0)
(0.998078 0.00805639 0)
(1.00185 0.00666964 0)
(1.00484 0.00577688 0)
(1.00502 0.00413265 0)
(1.00536 0.000117316 0)
(1.00425 -0.000756398 0)
(1.0022 -0.00115198 0)
(1.00168 -0.00191878 0)
(0.999077 -0.00145254 0)
(0.997806 -0.000432306 0)
(0.995854 0.000535685 0)
(0.99478 0.00157971 0)
(0.99341 0.00257151 0)
(0.999937 0.00119444 0)
(1.00143 -0.00184938 0)
(0.999028 0.0018185 0)
(1.00188 -0.00354248 0)
(0.994755 -0.00527681 0)
(0.991911 0.00228079 0)
(0.996669 0.00518021 0)
(0.998141 0.00776363 0)
(1.0018 0.00667341 0)
(1.00483 0.00524397 0)
(1.00477 0.00432377 0)
(1.00524 2.66908e-05 0)
(1.00422 -0.000408277 0)
(1.00223 -0.00103472 0)
(1.00176 -0.00141496 0)
(0.9993 -0.00138664 0)
(0.998109 -4.01645e-05 0)
(0.99631 0.000775393 0)
(0.995285 0.00262892 0)
(0.993707 0.00360597 0)
(0.999944 0.00112864 0)
(1.00135 -0.00173493 0)
(0.999044 0.00165167 0)
(1.0018 -0.00314275 0)
(0.994935 -0.00526864 0)
(0.992148 0.00263531 0)
(0.996873 0.00444026 0)
(0.998198 0.00792255 0)
(1.00172 0.00625119 0)
(1.00477 0.00537409 0)
(1.00456 0.00364732 0)
(1.00504 0.000981506 0)
(1.00426 -0.00112593 0)
(1.00228 0.000184187 0)
(1.00179 -0.00136179 0)
(0.999543 -0.000355619 0)
(0.998405 0.000104626 0)
(0.99665 0.00167178 0)
(0.995642 0.00173373 0)
(0.994086 0.00247975 0)
(0.999938 0.00115093 0)
(1.00129 -0.00179037 0)
(0.999065 0.00163341 0)
(1.00172 -0.0031049 0)
(0.995114 -0.0050021 0)
(0.992405 0.0025674 0)
(0.997046 0.00432199 0)
(0.998265 0.00740152 0)
(1.00163 0.00642036 0)
(1.0047 0.0047923 0)
(1.00439 0.00390777 0)
(1.00483 0.000876705 0)
(1.00428 -0.000576828 0)
(1.00237 -0.000110682 0)
(1.00186 -0.000820755 0)
(0.999806 -0.000270439 0)
(0.998783 0.000400982 0)
(0.996934 0.00163583 0)
(0.99574 0.00254999 0)
(0.994501 0.00340036 0)
(0.999933 0.00112596 0)
(1.00124 -0.0017544 0)
(0.999085 0.00155351 0)
(1.00164 -0.00289202 0)
(0.99528 -0.00481178 0)
(0.992694 0.00254012 0)
(0.997199 0.00419942 0)
(0.998346 0.00690093 0)
(1.0015 0.00658428 0)
(1.00464 0.00423531 0)
(1.00416 0.00411285 0)
(1.00463 0.000891542 0)
(1.00425 -0.000456321 0)
(1.00241 -0.000190454 0)
(1.00191 -0.000375844 0)
(0.999979 -0.000250493 0)
(0.99901 0.000856278 0)
(0.99739 0.00163546 0)
(0.996332 0.00381388 0)
(0.994786 0.00457878 0)
(0.999939 0.00106436 0)
(1.00118 -0.00163058 0)
(0.999126 0.00134302 0)
(1.00152 -0.00247165 0)
(0.995469 -0.00479345 0)
(0.992974 0.00277325 0)
(0.997354 0.00374104 0)
(0.998427 0.00674655 0)
(1.00139 0.00634016 0)
(1.00453 0.00433889 0)
(1.00402 0.00368919 0)
(1.00433 0.0017038 0)
(1.00422 -0.000731828 0)
(1.00252 0.000427254 0)
(1.00195 -0.000261351 0)
(1.00021 0.000422593 0)
(0.999333 0.00108673 0)
(0.997855 0.0023576 0)
(0.996693 0.00351724 0)
(0.99496 0.00395684 0)
(0.999934 0.00110589 0)
(1.00115 -0.00170427 0)
(0.999162 0.00131752 0)
(1.0014 -0.00241308 0)
(0.995669 -0.00452918 0)
(0.993256 0.00271334 0)
(0.997506 0.00359645 0)
(0.998532 0.00637657 0)
(1.00126 0.0063481 0)
(1.00442 0.00402363 0)
(1.00388 0.00380291 0)
(1.00409 0.00175812 0)
(1.00417 -4.24383e-05 0)
(1.0026 0.000424417 0)
(1.00204 0.000173678 0)
(1.00042 0.000810314 0)
(0.999645 0.00121778 0)
(0.99823 0.00231382 0)
(0.996975 0.0032346 0)
(0.995236 0.0039492 0)
(0.999921 0.00102912 0)
(1.00113 -0.00156751 0)
(0.999193 0.00113281 0)
(1.00128 -0.00207033 0)
(0.995873 -0.00439822 0)
(0.993549 0.00266842 0)
(0.997653 0.00352524 0)
(0.998651 0.00596625 0)
(1.00113 0.00625306 0)
(1.00432 0.00399069 0)
(1.00375 0.00360399 0)
(1.00386 0.00231332 0)
(1.00409 -1.98145e-05 0)
(1.00267 0.000708193 0)
(1.00215 0.000520874 0)
(1.00058 0.0010272 0)
(0.999863 0.00148023 0)
(0.998592 0.00235528 0)
(0.997379 0.00331123 0)
(0.995564 0.00411714 0)
(0.999907 0.00101707 0)
(1.00112 -0.00152007 0)
(0.99923 0.000980516 0)
(1.00114 -0.00179566 0)
(0.99607 -0.00424782 0)
(0.993854 0.00264286 0)
(0.997794 0.00340138 0)
(0.998775 0.00556259 0)
(1.00104 0.00624914 0)
(1.00416 0.00390851 0)
(1.00368 0.00349669 0)
(1.0036 0.00254513 0)
(1.00399 0.000267015 0)
(1.00279 0.000923296 0)
(1.00221 0.000715971 0)
(1.00078 0.00131679 0)
(1.00014 0.001767 0)
(0.998938 0.00249609 0)
(0.997726 0.00337748 0)
(0.99588 0.00412158 0)
(0.999889 0.00101361 0)
(1.00112 -0.00150621 0)
(0.999264 0.000885 0)
(1.00101 -0.00164522 0)
(0.996278 -0.00397064 0)
(0.994156 0.00250602 0)
(0.997928 0.00334472 0)
(0.998929 0.00521843 0)
(1.00093 0.00623476 0)
(1.00404 0.00373854 0)
(1.00359 0.00351465 0)
(1.0034 0.00262027 0)
(1.0039 0.000740874 0)
(1.00284 0.000951331 0)
(1.00234 0.000999269 0)
(1.00096 0.00161306 0)
(1.00032 0.0019854 0)
(0.999252 0.00256156 0)
(0.99811 0.0034072 0)
(0.996192 0.00406954 0)
(0.999875 0.000930725 0)
(1.00111 -0.00134235 0)
(0.999303 0.000669739 0)
(1.00088 -0.00131814 0)
(0.996476 -0.00376613 0)
(0.994462 0.00238231 0)
(0.998068 0.00332187 0)
(0.999079 0.00489088 0)
(1.00085 0.00608128 0)
(1.00387 0.00384017 0)
(1.00355 0.00323618 0)
(1.0032 0.00305993 0)
(1.00376 0.000822896 0)
(1.00294 0.00122487 0)
(1.00247 0.00120939 0)
(1.00115 0.00182456 0)
(1.00055 0.00223394 0)
(0.999561 0.00280754 0)
(0.998435 0.00348957 0)
(0.996501 0.00405633 0)
(0.999859 0.000953218 0)
(1.00111 -0.00135536 0)
(0.999341 0.000582937 0)
(1.00075 -0.00119924 0)
(0.996674 -0.00347385 0)
(0.994771 0.00226039 0)
(0.998196 0.00327481 0)
(0.999236 0.00452105 0)
(1.00078 0.0060368 0)
(1.00371 0.00376379 0)
(1.00352 0.00327113 0)
(1.00303 0.00297503 0)
(1.00365 0.00132109 0)
(1.00301 0.00137145 0)
(1.0026 0.00138234 0)
(1.00136 0.00203636 0)
(1.00076 0.00249841 0)
(0.999837 0.00289088 0)
(0.99875 0.00349117 0)
(0.996804 0.00399395 0)
(0.999843 0.00088249 0)
(1.00112 -0.00122886 0)
(0.999381 0.00041543 0)
(1.00064 -0.00101445 0)
(0.996869 -0.00315456 0)
(0.995072 0.0021161 0)
(0.998323 0.0032508 0)
(0.999407 0.00425191 0)
(1.00073 0.00590651 0)
(1.00355 0.00382043 0)
(1.00347 0.00311299 0)
(1.00291 0.00319233 0)
(1.00354 0.00154396 0)
(1.00305 0.00152446 0)
(1.00275 0.0015974 0)
(1.0016 0.002174 0)
(1.00095 0.00268712 0)
(1.00007 0.00299792 0)
(0.999036 0.00355541 0)
(0.997103 0.00398811 0)
(0.999831 0.000858946 0)
(1.00111 -0.00115992 0)
(0.999424 0.00028831 0)
(1.00053 -0.000864237 0)
(0.997053 -0.00286835 0)
(0.995374 0.00205939 0)
(0.99845 0.00323388 0)
(0.99957 0.00397558 0)
(1.00071 0.00572571 0)
(1.00336 0.00382548 0)
(1.00347 0.00305222 0)
(1.0028 0.00325843 0)
(1.0034 0.00183123 0)
(1.00313 0.00177303 0)
(1.00289 0.00178395 0)
(1.00181 0.00231393 0)
(1.00116 0.00289385 0)
(1.00032 0.00317492 0)
(0.999325 0.00364918 0)
(0.997399 0.00397138 0)
(0.999817 0.000825634 0)
(1.00111 -0.00109255 0)
(0.999471 0.000168556 0)
(1.00044 -0.000763929 0)
(0.997241 -0.00253894 0)
(0.995669 0.00197338 0)
(0.998563 0.00319291 0)
(0.99974 0.00372963 0)
(1.0007 0.00554787 0)
(1.00321 0.00386333 0)
(1.00344 0.00304268 0)
(1.00273 0.00327079 0)
(1.00332 0.00214211 0)
(1.00314 0.00193223 0)
(1.00302 0.00192614 0)
(1.00207 0.00243042 0)
(1.00139 0.00302623 0)
(1.00053 0.0032765 0)
(0.999542 0.00370618 0)
(0.997656 0.00392758 0)
(0.999807 0.000770675 0)
(1.0011 -0.000983478 0)
(0.999517 2.84729e-05 0)
(1.00036 -0.0006334 0)
(0.997415 -0.0022471 0)
(0.995958 0.0019098 0)
(0.998684 0.00320177 0)
(0.999904 0.0035299 0)
(1.00072 0.00533555 0)
(1.00303 0.00392462 0)
(1.00343 0.00295876 0)
(1.00268 0.00333663 0)
(1.0032 0.00230517 0)
(1.00319 0.00212957 0)
(1.00315 0.00215576 0)
(1.0023 0.00252014 0)
(1.0016 0.0031602 0)
(1.00076 0.00342429 0)
(0.999782 0.00383651 0)
(0.997922 0.00395985 0)
(0.999793 0.000745176 0)
(1.0011 -0.000919876 0)
(0.99957 -7.29273e-05 0)
(1.00029 -0.000551946 0)
(0.997595 -0.0019587 0)
(0.996248 0.00188538 0)
(0.998791 0.00318377 0)
(1.00006 0.00332894 0)
(1.00076 0.00512544 0)
(1.00289 0.0039283 0)
(1.0034 0.00298442 0)
(1.00267 0.00330283 0)
(1.00314 0.0025823 0)
(1.00322 0.00236118 0)
(1.00326 0.00233175 0)
(1.00255 0.00261163 0)
(1.00186 0.00329843 0)
(1.00098 0.00351802 0)
(0.999955 0.00390374 0)
(0.998126 0.00394225 0)
(0.999784 0.000684598 0)
(1.00108 -0.000806289 0)
(0.999621 -0.000204407 0)
(1.00024 -0.000454614 0)
(0.997766 -0.00169419 0)
(0.996527 0.00184266 0)
(0.998901 0.00317022 0)
(1.00022 0.00319991 0)
(1.00083 0.00491764 0)
(1.00274 0.00397465 0)
(1.00339 0.00296648 0)
(1.00268 0.0033436 0)
(1.00307 0.00273381 0)
(1.00325 0.00249903 0)
(1.00336 0.00252356 0)
(1.00279 0.00269749 0)
(1.0021 0.0033468 0)
(1.00119 0.00356521 0)
(1.00015 0.00399154 0)
(0.998345 0.00400693 0)
(0.999772 0.000657136 0)
(1.00107 -0.00073082 0)
(0.999677 -0.000297236 0)
(1.0002 -0.000398587 0)
(0.99794 -0.00144932 0)
(0.996809 0.00183585 0)
(0.999008 0.00317668 0)
(1.00036 0.00308628 0)
(1.0009 0.00471581 0)
(1.00261 0.00396352 0)
(1.00337 0.003 0)
(1.0027 0.00328963 0)
(1.00304 0.00290256 0)
(1.00329 0.00267091 0)
(1.00345 0.00274546 0)
(1.00301 0.00279344 0)
(1.00236 0.00344884 0)
(1.00144 0.00367934 0)
(1.00034 0.00409915 0)
(0.99852 0.00408444 0)
(0.999764 0.000587887 0)
(1.00105 -0.000597165 0)
(0.999729 -0.000422564 0)
(1.00018 -0.000321805 0)
(0.99811 -0.00121888 0)
(0.997081 0.00181685 0)
(0.999116 0.00317963 0)
(1.0005 0.00301146 0)
(1.001 0.00451849 0)
(1.0025 0.00396779 0)
(1.00335 0.0030179 0)
(1.00274 0.00330042 0)
(1.00302 0.00304536 0)
(1.00333 0.00281127 0)
(1.00352 0.0029225 0)
(1.00321 0.00290533 0)
(1.00261 0.00349412 0)
(1.00168 0.00370048 0)
(1.00053 0.00411532 0)
(0.998686 0.00413624 0)
(0.999753 0.000560369 0)
(1.00102 -0.000532434 0)
(0.999784 -0.00048797 0)
(1.00016 -0.000318118 0)
(0.998282 -0.000977973 0)
(0.997358 0.00174591 0)
(0.999223 0.00321821 0)
(1.00062 0.00299994 0)
(1.0011 0.00436356 0)
(1.0024 0.00395417 0)
(1.00332 0.00305463 0)
(1.0028 0.00325916 0)
(1.00301 0.00316507 0)
(1.00339 0.00290792 0)
(1.00362 0.00310436 0)
(1.00339 0.00302693 0)
(1.00285 0.00352629 0)
(1.00193 0.00376146 0)
(1.00075 0.00417184 0)
(0.998859 0.00424385 0)
(0.999745 0.00050543 0)
(1.001 -0.000421929 0)
(0.999831 -0.000568997 0)
(1.00017 -0.000307707 0)
(0.998451 -0.000764119 0)
(0.997627 0.00164365 0)
(0.999349 0.00323972 0)
(1.00074 0.00301566 0)
(1.00121 0.00422607 0)
(1.00232 0.00394947 0)
(1.00329 0.00310934 0)
(1.00287 0.00325491 0)
(1.00302 0.00328385 0)
(1.00345 0.00302552 0)
(1.0037 0.00325342 0)
(1.00355 0.00316414 0)
(1.00309 0.00359249 0)
(1.00218 0.00383466 0)
(1.00097 0.00418726 0)
(0.999018 0.00430886 0)
(0.999737 0.000455998 0)
(1.00096 -0.000321901 0)
(0.999878 -0.000621332 0)
(1.00018 -0.000296577 0)
(0.998614 -0.000580736 0)
(0.9979 0.00164974 0)
(0.999486 0.0032515 0)
(1.00086 0.00300366 0)
(1.00132 0.00407859 0)
(1.00226 0.00391755 0)
(1.00326 0.00315907 0)
(1.00295 0.00321912 0)
(1.00305 0.0033738 0)
(1.00352 0.003107 0)
(1.0038 0.00336363 0)
(1.0037 0.00331669 0)
(1.00332 0.00364868 0)
(1.00241 0.00387192 0)
(1.0012 0.00417514 0)
(0.999189 0.00436077 0)
(0.999729 0.000418654 0)
(1.00093 -0.000249536 0)
(0.999918 -0.000623251 0)
(1.00021 -0.000317703 0)
(0.998787 -0.000346966 0)
(0.998164 0.00168967 0)
(0.999617 0.00320177 0)
(1.00096 0.00294452 0)
(1.00144 0.0039276 0)
(1.00221 0.0038882 0)
(1.00323 0.0032184 0)
(1.00304 0.00320072 0)