/*--------------------------------*- C++ -*----------------------------------*\
| =========                 |                                                 |
| \\      /  F ield         | OpenFOAM: The Open Source CFD Toolbox           |
|  \\    /   O peration     | Version:  v2012                                 |
|   \\  /    A nd           | Website:  www.openfoam.com                      |
|    \\/     M anipulation  |                                                 |
\*---------------------------------------------------------------------------*/
FoamFile
{
    version     2.0;
    format      ascii;
    class       volScalarField;
    location    "7.1";
    object      p;
}
// * * * * * * * * * * * * * * * * * * * * * * * * * * * * * * * * * * * * * //

dimensions      [0 2 -2 0 0 0 0];


internalField   nonuniform List<scalar> 
7000
(
4.2609e-11
0.00757445
0.00745189
0.00381025
-0.000452171
0.00323803
0.00207566
0.00646763
0.00798278
0.0117148
0.0134378
0.0170957
0.0200346
0.0238157
0.0255522
0.0281284
0.0303475
0.0340669
0.0379024
0.0448635
-4.22039e-07
0.0075819
0.00743726
0.00380334
-0.00044136
0.00324747
0.0020809
0.00645694
0.00799204
0.0117166
0.0134388
0.0171086
0.0200246
0.0238093
0.0255459
0.0281059
0.0303586
0.0340143
0.0379421
0.044563
-5.33641e-07
0.00759908
0.00741932
0.00380332
-0.00042472
0.00325342
0.00209377
0.00644075
0.00800716
0.0117206
0.0134416
0.0171264
0.0200068
0.0238045
0.0255322
0.0280808
0.0303616
0.0339443
0.0379661
0.04403
1.16664e-06
0.00762004
0.00739845
0.00380919
-0.000393384
0.00325817
0.00211996
0.00642234
0.00802025
0.0117299
0.0134446
0.0171452
0.0199856
0.0237937
0.0255129
0.0280462
0.0303582
0.0338652
0.0379443
0.0434726
6.29502e-06
0.00763811
0.00737151
0.00382062
-0.000347935
0.0032625
0.00216058
0.00640072
0.00803233
0.0117428
0.0134484
0.017161
0.0199628
0.0237737
0.0254917
0.0280009
0.0303536
0.0337717
0.0378884
0.0429432
1.65081e-05
0.00764935
0.00733782
0.00383669
-0.00028791
0.00326821
0.00221341
0.00637632
0.00804554
0.0117574
0.0134531
0.0171719
0.0199399
0.0237441
0.0254707
0.0279456
0.0303465
0.0336658
0.0378043
0.0424474
3.3236e-05
0.00765281
0.00729739
0.00385703
-0.000215898
0.00327571
0.0022747
0.00635026
0.00806017
0.0117719
0.0134589
0.0171777
0.0199173
0.0237051
0.0254501
0.02788
0.0303352
0.0335492
0.0376932
0.0419781
5.72569e-05
0.00764978
0.00725108
0.00388136
-0.000133548
0.0032846
0.00234069
0.00632284
0.0080756
0.0117851
0.0134655
0.0171777
0.0198948
0.0236563
0.0254288
0.0278044
0.0303171
0.0334234
0.0375548
0.0415269
8.83949e-05
0.00764255
0.00720036
0.00390968
-4.23951e-05
0.00329405
0.00240855
0.00629371
0.00809126
0.0117961
0.0134727
0.0171713
0.0198722
0.0235975
0.0254055
0.0277195
0.0302896
0.0332894
0.0373886
0.0410866
0.000125542
0.00763344
0.00714696
0.00394204
5.66402e-05
0.00330317
0.0024766
0.00626247
0.00810694
0.0118043
0.0134806
0.0171574
0.0198491
0.0235282
0.0253786
0.0276264
0.0302503
0.0331476
0.0371945
0.0406509
0.000167012
0.00762427
0.00709254
0.00397845
0.000162902
0.00331125
0.00254414
0.00622899
0.00812284
0.0118093
0.0134891
0.0171352
0.0198251
0.0234486
0.0253468
0.0275266
0.0301967
0.0329986
0.0369731
0.0402146
0.000211057
0.00761611
0.00703835
0.00401878
0.000275903
0.0033181
0.00261122
0.00619362
0.0081396
0.011811
0.0134986
0.0171042
0.0197994
0.0233586
0.0253083
0.0274215
0.0301273
0.0328419
0.0367248
0.0397735
0.000256311
0.00760925
0.00698498
0.00406267
0.000395037
0.00332416
0.00267871
0.00615737
0.00815822
0.0118094
0.0135098
0.0170637
0.0197716
0.023259
0.0252613
0.0273127
0.0300412
0.0326769
0.0364507
0.0393247
0.000302013
0.00760341
0.00693238
0.00410941
0.000519437
0.00333051
0.0027483
0.00612218
0.00818
0.0118051
0.0135235
0.0170137
0.0197411
0.0231503
0.0252036
0.0272012
0.0299379
0.0325022
0.0361522
0.0388665
0.000347989
0.00759801
0.00688003
0.00415808
0.000647972
0.00333855
0.00282188
0.0060905
0.00820664
0.0117986
0.0135404
0.0169544
0.0197072
0.0230337
0.0251336
0.0270874
0.0298173
0.0323164
0.0358308
0.0383981
0.000394469
0.00759246
0.00682739
0.00420766
0.000779445
0.00334957
0.00290104
0.00606486
0.00823988
0.0117909
0.0135612
0.0168865
0.0196688
0.022912
0.02505
0.0269708
0.0296795
0.0321179
0.0354882
0.0379186
0.000441834
0.0075863
0.00677406
0.0042572
0.000912933
0.00336429
0.00298655
0.00604697
0.00828097
0.0117822
0.0135862
0.0168106
0.0196247
0.0227885
0.0249522
0.0268505
0.0295253
0.0319044
0.0351257
0.0374274
0.000490427
0.00757932
0.00671989
0.0043059
0.00104799
0.00338282
0.00307823
0.00603727
0.00833029
0.0117729
0.0136148
0.0167282
0.0195738
0.0226644
0.0248399
0.026725
0.0293557
0.0316737
0.0347436
0.0369242
0.000540452
0.00757146
0.006665
0.00435317
0.00118458
0.00340483
0.00317522
0.00603496
0.0083874
0.0117627
0.0136462
0.016641
0.0195147
0.0225411
0.0247134
0.0265923
0.0291724
0.0314249
0.0343414
0.0364086
0.000591969
0.00756277
0.0066097
0.00439863
0.00132289
0.00342973
0.00327634
0.0060383
0.00845124
0.0117513
0.0136787
0.0165508
0.0194459
0.0224204
0.024574
0.0264494
0.0289758
0.0311587
0.0339202
0.0358797
0.000644945
0.00755328
0.00655438
0.00444204
0.0014632
0.00345688
0.00338046
0.00604527
0.0085205
0.0117384
0.0137108
0.01646
0.019366
0.0223028
0.0244236
0.0262938
0.0287649
0.0308756
0.0334821
0.0353375
0.00069931
0.00754305
0.00649948
0.00448326
0.00160578
0.00348576
0.00348665
0.00605408
0.0085939
0.0117241
0.0137403
0.0163703
0.0192742
0.0221875
0.0242643
0.0261242
0.0285396
0.0305752
0.033028
0.0347833
0.000754995
0.00753209
0.0064454
0.00452218
0.00175079
0.00351599
0.0035943
0.00606344
0.00867024
0.0117091
0.0137649
0.016283
0.0191706
0.0220729
0.0240973
0.0259386
0.0283007
0.0302587
0.0325576
0.0342181
0.000811956
0.00752037
0.00639253
0.00455872
0.00189832
0.00354731
0.003703
0.00607266
0.00874831
0.0116944
0.0137828
0.0161991
0.0190551
0.0219583
0.0239247
0.0257339
0.0280473
0.0299303
0.0320726
0.033641
0.000870177
0.00750781
0.0063412
0.00459278
0.00204834
0.00357962
0.00381244
0.00608164
0.00882699
0.0116812
0.0137923
0.0161194
0.0189284
0.0218425
0.02375
0.0255105
0.027773
0.0295913
0.0315797
0.0330531
0.000929663
0.00749433
0.00629175
0.00462426
0.00220072
0.00361294
0.00392234
0.00609068
0.00890508
0.0116712
0.0137921
0.0160433
0.0187916
0.0217247
0.0235732
0.0252736
0.0274758
0.0292339
0.0310824
0.0324606
0.000990443
0.00747979
0.00624447
0.00465308
0.00235531
0.00364736
0.00403236
0.00610061
0.00898107
0.0116654
0.0137817
0.0159697
0.0186459
0.0216121
0.0233919
0.0250233
0.0271626
0.0288579
0.0305749
0.0318648
0.00105257
0.00746405
0.00619969
0.00467919
0.00251194
0.00368295
0.00414211
0.00611219
0.00905402
0.0116643
0.0137605
0.0158983
0.0184931
0.0214674
0.0232081
0.0247562
0.0268303
0.0284736
0.0300611
0.0312622
0.00111611
0.00744694
0.00615766
0.00470254
0.00267035
0.00372013
0.00425098
0.00612639
0.0091228
0.0116684
0.0137286
0.015827
0.0183351
0.021271
0.0230194
0.0244774
0.0264765
0.0280783
0.029539
0.030657
0.00118112
0.0074283
0.00611865
0.00472314
0.00283011
0.00375947
0.0043581
0.00614457
0.00918604
0.0116784
0.0136862
0.0157548
0.0181707
0.0211232
0.0228217
0.0241832
0.026103
0.0276698
0.0290251
0.0300498
0.0012477
0.00740794
0.0060829
0.00474107
0.00299079
0.00380133
0.00446284
0.00616741
0.00924307
0.0116946
0.0136331
0.0156788
0.0180053
0.020927
0.0226168
0.0238822
0.0256966
0.0272396
0.0285351
0.0294487
0.00131585
0.0073857
0.00605058
0.00475641
0.00315196
0.00384658
0.00456412
0.00619568
0.00929333
0.011716
0.0135727
0.015593
0.0178425
0.0206996
0.0223989
0.0235833
0.0252775
0.0267772
0.0280113
0.0288594
0.00138569
0.00736131
0.00602206
0.00476909
0.00331333
0.00389558
0.00466165
0.00622906
0.00933698
0.0117396
0.0135094
0.015497
0.0176767
0.0204776
0.0221611
0.0232634
0.0248632
0.0263009
0.0274795
0.0282734
0.00145744
0.00733455
0.0059977
0.00477936
0.00347363
0.00394932
0.00475517
0.00626701
0.00937539
0.0117645
0.0134422
0.0153901
0.0175153
0.0202256
0.0219183
0.0229423
0.0244193
0.0258116
0.0268946
0.0276987
0.00153086
0.00730527
0.00597688
0.00478798
0.00363147
0.00400955
0.00484276
0.00631192
0.00940525
0.011793
0.013369
0.0152738
0.0173461
0.0199858
0.0216495
0.0226064
0.0239516
0.025296
0.0263697
0.0271355
0.00160608
0.00727335
0.00596021
0.0047946
0.00378733
0.00407494
0.00492543
0.00636195
0.00942049
0.0118218
0.0132954
0.0151474
0.0171632
0.0197329
0.0213493
0.0222466
0.0234904
0.0247797
0.0258995
0.0265707
0.00168373
0.00723834
0.00594834
0.0047996
0.00393962
0.00414628
0.00500393
0.00641294
0.00946594
0.0118414
0.0132251
0.0150065
0.0169867
0.0194697
0.0210602
0.0218761
0.023025
0.0242675
0.025257
0.0260054
0.00176312
0.00720016
0.0059395
0.00480503
0.00408606
0.00422568
0.0050759
0.00646783
0.00948354
0.011863
0.0131498
0.0148562
0.0167868
0.0191922
0.020731
0.0215056
0.0225443
0.0237386
0.0247254
0.0254476
0.0018443
0.0071588
0.00593439
0.00481013
0.00422849
0.0043104
0.00514377
0.0065239
0.00949425
0.0118868
0.01307
0.0146969
0.0166336
0.0188625
0.020361
0.0211239
0.0220666
0.0231977
0.0243145
0.0248976
0.00192842
0.00711369
0.00593505
0.00481546
0.00436516
0.00440059
0.00520969
0.00657669
0.00951403
0.0118843
0.0129967
0.0145236
0.0164529
0.0185975
0.0200314
0.0207188
0.0215964
0.0226434
0.0235654
0.0243431
0.00201422
0.00706535
0.00593622
0.00482379
0.00449386
0.00449788
0.00527087
0.00663081
0.00952583
0.0118886
0.0129181
0.0143429
0.0162258
0.0182661
0.0196585
0.0203074
0.0210955
0.0221003
0.0230226
0.0237896
0.00210184
0.0070137
0.00594014
0.00483384
0.00461756
0.00459856
0.0053299
0.00668399
0.00953046
0.0119133
0.0128305
0.0141323
0.0159261
0.0179521
0.0192446
0.0198898
0.020587
0.0215665
0.0227047
0.0232491
0.00219297
0.00695789
0.00595188
0.00484592
0.00473463
0.00470228
0.0053896
0.00673254
0.00953678
0.0118574
0.0127549
0.0139352
0.0156861
0.0176085
0.0188946
0.019452
0.0201105
0.0209403
0.0218094
0.0227083
0.00228548
0.00689947
0.00595741
0.00486356
0.00484268
0.00481153
0.00544511
0.00678227
0.00953387
0.0118545
0.0126713
0.0137117
0.01536
0.0172682
0.0185008
0.0190019
0.0196003
0.0203714
0.0212259
0.0221595
0.00238017
0.00683815
0.00596544
0.00488423
0.004947
0.00491975
0.00550084
0.00683085
0.00952099
0.0118392
0.012567
0.0134955
0.0150244
0.0168541
0.0180692
0.0185335
0.0190418
0.019887
0.0210256
0.0216247
0.00247848
0.00677308
0.00598238
0.00490746
0.00504841
0.00502317
0.00556311
0.00686985
0.00951123
0.0117943
0.0124853
0.0131984
0.0147454
0.0165511
0.0177039
0.0180229
0.0184532
0.019115
0.0199496
0.0211038
0.00257771
0.00670638
0.00598795
0.00493695
0.0051425
0.00512861
0.00562306
0.0069075
0.00949261
0.011741
0.0123944
0.0129815
0.0144381
0.0162086
0.0172887
0.0174939
0.0178196
0.0183838
0.0193945
0.0207333
0.00267969
0.00663805
0.00599552
0.0049696
0.00523334
0.00523417
0.00567806
0.00694468
0.00946327
0.0116783
0.012291
0.0127743
0.0141188
0.0158322
0.0168645
0.0169969
0.0171741
0.0177491
0.0188284
0.0202058
0.0027845
0.00656781
0.00600371
0.00500461
0.00532244
0.00533719
0.00573009
0.00697795
0.00942835
0.0115977
0.0121847
0.0125674
0.0137861
0.0154195
0.0164467
0.0165014
0.0165765
0.0171579
0.0182094
0.0196347
0.00289053
0.00649706
0.00597595
0.00504261
0.00540772
0.00543976
0.00577976
0.00700526
0.00938602
0.011505
0.0120754
0.0123579
0.0134365
0.0149952
0.0160157
0.0160335
0.0160258
0.0165324
0.0175669
0.0190912
0.0029989
0.00642657
0.00597282
0.00508145
0.00549063
0.00554121
0.0058269
0.00702428
0.00933621
0.0114022
0.0119589
0.0121412
0.0130891
0.0145576
0.0155748
0.0155973
0.0154819
0.0158994
0.0169427
0.018566
0.00310919
0.00635634
0.00597044
0.00512087
0.00557021
0.00564091
0.00587277
0.00703502
0.00927881
0.0112874
0.0118334
0.0119259
0.01274
0.0141107
0.0151209
0.0151594
0.0149549
0.0152926
0.0163523
0.0180345
0.00322102
0.00628705
0.00596708
0.00516005
0.00564535
0.00573912
0.00591825
0.00703657
0.00921282
0.0111608
0.0117003
0.0117102
0.0123897
0.0136563
0.0146519
0.0147244
0.0144573
0.0147144
0.0157321
0.0174926
0.00333435
0.00621922
0.00596222
0.00519873
0.00571602
0.00583526
0.00596272
0.00702892
0.00913737
0.0110228
0.0115582
0.0114977
0.0120372
0.0131996
0.0141697
0.0142826
0.0139834
0.0141547
0.0151482
0.016955
0.00344908
0.00615338
0.00595586
0.00523666
0.00578057
0.00592791
0.00600784
0.00701337
0.00905103
0.0108736
0.0114059
0.01129
0.0116871
0.0127375
0.0136737
0.0138353
0.0135314
0.0136285
0.0145614
0.0164168
0.00356498
0.00609026
0.00594749
0.00527347
0.00583774
0.00601603
0.00605494
0.00699133
0.00895274
0.0107124
0.0112414
0.011087
0.0113415
0.0122703
0.0131696
0.0133792
0.0130926
0.0131297
0.0140172
0.0158882
0.00368171
0.00603066
0.00593617
0.00530934
0.00588828
0.00609665
0.00610212
0.00696438
0.00884353
0.0105419
0.0110638
0.0108857
0.0110028
0.0117995
0.0126578
0.0129154
0.012666
0.0126629
0.0134882
0.01537
0.00379851
0.00597526
0.00592235
0.00534358
0.00593148
0.00616828
0.00614798
0.00693314
0.00872503
0.0103649
0.0108719
0.0106811
0.0106755
0.0113293
0.012139
0.0124401
0.0122422
0.0122216
0.0130031
0.0148687
0.00391558
0.00592412
0.00590793
0.00537619
0.00596603
0.00623032
0.00619193
0.00689829
0.00859668
0.0101806
0.0106665
0.0104698
0.0103656
0.0108641
0.0116117
0.0119558
0.0118227
0.0118073
0.0125392
0.0143842
0.00403314
0.00587721
0.00589259
0.00540759
0.00599197
0.00628219
0.00622951
0.00686083
0.00845847
0.00998875
0.0104519
0.0102496
0.0100697
0.0104111
0.0110778
0.0114585
0.0114008
0.0114094
0.0121163
0.0139243
0.00414947
0.00583615
0.00587661
0.0054361
0.00600972
0.00632166
0.00626203
0.00682278
0.00831184
0.00978908
0.0102302
0.0100167
0.00978204
0.00997748
0.0105435
0.0109482
0.0109754
0.0110263
0.0117172
0.0134882
0.0042644
0.00580171
0.00585886
0.00546098
0.00602027
0.00634814
0.0062877
0.00678512
0.00816003
0.00958053
0.0100032
0.00976758
0.00949755
0.00956497
0.0100164
0.0104262
0.0105365
0.0106491
0.0113445
0.0130744
0.00437787
0.00577267
0.00583971
0.00548293
0.00602311
0.00636248
0.00630689
0.0067492
0.00800478
0.00935991
0.009769
0.00950422
0.00920945
0.009174
0.00950471
0.00989567
0.0100843
0.0102745
0.0109872
0.012681
0.00448879
0.00574964
0.00582028
0.00549975
0.00601946
0.00636794
0.0063193
0.00671204
0.00784438
0.00912404
0.00952861
0.00923283
0.00891494
0.00880079
0.00901561
0.00936516
0.00961529
0.00989023
0.010639
0.012306
0.00459682
0.00573217
0.00579949
0.00551148
0.00601217
0.00636677
0.0063213
0.0066686
0.00768052
0.00887536
0.00928392
0.0089595
0.00861017
0.00843829
0.00855058
0.00884152
0.00913181
0.00948958
0.0102894
0.011944
0.00470148
0.0057195
0.0057783
0.00551938
0.00600165
0.00635781
0.00631087
0.00661697
0.00751662
0.0086166
0.00903193
0.00868562
0.00829608
0.00808025
0.0081072
0.00833301
0.00864073
0.00907033
0.00992879
0.0115882
0.0048024
0.0057116
0.00575732
0.00552307
0.00598645
0.00634064
0.00628904
0.00655699
0.00735394
0.00834909
0.00876881
0.00841283
0.00797718
0.00772229
0.0076814
0.00784352
0.0081482
0.00863344
0.00955097
0.0112311
0.00489934
0.00570794
0.00573677
0.00552227
0.00596576
0.00631634
0.00625813
0.006487
0.00719098
0.00807453
0.00849166
0.00814136
0.00765855
0.00736253
0.00726778
0.00737274
0.00766041
0.0081835
0.00915517
0.0108686
0.00499196
0.00570803
0.0057173
0.00551709
0.0059391
0.00628517
0.00621896
0.00640515
0.00702593
0.00779634
0.00819996
0.00786982
0.0073443
0.00700194
0.0068612
0.00691781
0.00718123
0.00772627
0.00874455
0.0104983
0.00507995
0.00571148
0.00569935
0.00550768
0.00590597
0.0062463
0.00617191
0.0063119
0.00685819
0.00751807
0.00789482
0.00759453
0.00703494
0.00664257
0.00645862
0.00647521
0.0067126
0.00726773
0.00832382
0.0101206
0.00516309
0.00571773
0.0056831
0.00549434
0.00586585
0.00619883
0.00611843
0.00620886
0.00668582
0.00724163
0.00757747
0.00731019
0.00673025
0.00628849
0.00605985
0.00604161
0.00625524
0.00681231
0.00789783
0.0097375
0.0052413
0.00572609
0.00566844
0.0054773
0.00581889
0.00614257
0.00605896
0.0060969
0.00650665
0.0069677
0.00725035
0.00701482
0.00643003
0.00594176
0.0056659
0.00561388
0.0058066
0.00636291
0.00747208
0.00935042
0.0053144
0.00573603
0.00565543
0.00545686
0.00576532
0.00607685
0.00599266
0.00597746
0.00631998
0.00669673
0.00691742
0.00670742
0.00613047
0.00560202
0.00527887
0.00519138
0.00536564
0.00592118
0.00704938
0.00896185
0.00538231
0.00574685
0.00564402
0.00543347
0.00570524
0.00600099
0.00591876
0.00585256
0.00612574
0.00642822
0.0065819
0.00638655
0.00582836
0.00526979
0.00490027
0.00477542
0.00493215
0.00548577
0.00662967
0.00857388
0.00544504
0.00575794
0.00563377
0.00540745
0.005639
0.00591499
0.00583661
0.00572322
0.00592422
0.00616103
0.00624684
0.00605353
0.00552102
0.00494294
0.00453099
0.00436795
0.00450445
0.00505546
0.00621425
0.00818783
0.00550257
0.0057686
0.00562433
0.00537938
0.00556711
0.00581885
0.00574516
0.00559012
0.00571626
0.00589374
0.00591519
0.005711
0.00520482
0.00461886
0.00417179
0.00397021
0.00408341
0.00463044
0.00580252
0.00780308
0.00555502
0.00577824
0.00561506
0.0053495
0.00549012
0.00571295
0.00564369
0.00545399
0.00550336
0.00562443
0.00558814
0.00536168
0.00487819
0.0042954
0.00382099
0.0035825
0.00367085
0.00421085
0.0053935
0.0074191
0.0056024
0.0057864
0.00560554
0.0053179
0.00540863
0.00559807
0.00553145
0.00531445
0.00528687
0.0053517
0.00526598
0.00500973
0.00454183
0.00396877
0.00347607
0.0032055
0.00326783
0.00379674
0.00498657
0.00703542
0.00564484
0.0057926
0.00559493
0.00528483
0.00532372
0.00547503
0.00540747
0.00517073
0.00506901
0.00507495
0.0049479
0.00465908
0.00419688
0.0036356
0.00313459
0.00283802
0.00287472
0.0033897
0.00458265
0.00665177
0.00568236
0.00579658
0.00558281
0.00525013
0.00523574
0.00534481
0.00527172
0.00502164
0.00485214
0.00479449
0.00463123
0.00431196
0.00384636
0.00329549
0.00279321
0.0024775
0.00249101
0.00299057
0.0041829
0.00626838
0.00571506
0.00579801
0.00556856
0.00521367
0.00514539
0.00520883
0.00512489
0.00486531
0.00463704
0.00451226
0.00431342
0.00396829
0.0034941
0.00294904
0.00244882
0.00212143
0.00211583
0.00259984
0.0037881
0.00588539
0.00574307
0.00579687
0.00555136
0.00517492
0.00505352
0.00506851
0.00496814
0.00470005
0.00442344
0.0042317
0.00399381
0.00362638
0.00314191
0.0025981
0.00210002
0.00176614
0.00174631
0.00221695
0.00339942
0.00550407
0.00576636
0.00579295
0.00553115
0.00513382
0.00496024
0.0049247
0.00480333
0.0045252
0.00420924
0.00395521
0.00367334
0.00328411
0.00278999
0.00224516
0.00174795
0.00141004
0.00138002
0.00183984
0.00301615
0.00512431
0.00578506
0.00578622
0.00550775
0.00509041
0.004866
0.00477824
0.0046317
0.00434087
0.00399191
0.00368395
0.00335584
0.00294151
0.00243709
0.00188993
0.00139285
0.00105226
0.00101446
0.00146615
0.00263693
0.00474585
0.00579892
0.0057765
0.00548087
0.00504459
0.00477217
0.00463105
0.00445474
0.00414757
0.00376729
0.00341402
0.00304343
0.00260162
0.00208551
0.00153426
0.00103523
0.000691905
0.000648004
0.00109212
0.002257
0.00436549
0.00580815
0.00576436
0.00545052
0.00499505
0.00467789
0.00448428
0.00427597
0.0039517
0.00353808
0.00314067
0.00273119
0.00226102
0.00173327
0.00117831
0.000676698
0.000329925
0.000280364
0.000717406
0.00187636
0.00398335
0.00581245
0.00574982
0.00541855
0.00494356
0.00458254
0.00433466
0.00409006
0.00375197
0.00331156
0.00287377
0.00242643
0.00192282
0.00137733
0.000816522
0.000313024
-3.67851e-05
-9.2135e-05
0.00033843
0.00149212
0.00359624
0.00581181
0.00573236
0.00538381
0.00489182
0.0044923
0.00418938
0.00389727
0.00353669
0.00307397
0.00260452
0.00213235
0.00160252
0.0010338
0.000457205
-5.60764e-05
-0.000411195
-0.000471058
-4.50097e-05
0.00110403
0.0032029
0.0058063
0.00571301
0.00534758
0.00483719
0.00440362
0.00405381
0.00371144
0.00332056
0.0028284
0.00231642
0.00182008
0.00127946
0.000700295
0.000110999
-0.00041941
-0.000790103
-0.000858824
-0.000439938
0.000701073
0.00279429
0.00579133
0.0056892
0.00531262
0.00478562
0.00431643
0.00391994
0.00352764
0.00311012
0.00260447
0.00204914
0.00151083
0.000944876
0.000352516
-0.000243156
-0.000777105
-0.00115965
-0.00124812
-0.000846736
0.00028295
0.00237138
0.00576064
0.00565265
0.00526587
0.00473328
0.00422438
0.00377532
0.00332206
0.00287109
0.00236963
0.00180907
0.00124762
0.000652704
2.14801e-05
-0.000611573
-0.00117153
-0.00156472
-0.00165853
-0.00126734
-0.000149833
0.00192592
0.00582719
0.00567564
0.00526665
0.0047125
0.00415229
0.00362011
0.00309684
0.00259985
0.00208828
0.00152956
0.000968411
0.000387228
-0.000239918
-0.000890327
-0.00149129
-0.00193203
-0.00206475
-0.00170511
-0.00061816
0.00142824
0.00565626
0.00555401
0.00524495
0.00473865
0.00417811
0.00354652
0.00290891
0.00236783
0.00184906
0.00126454
0.000645793
1.44111e-05
-0.000625229
-0.00124336
-0.00181276
-0.00223217
-0.00236837
-0.00201781
-0.000942701
0.00108658
0.00576848
0.00562909
0.00519346
0.00457762
0.0039139
0.00329117
0.00271747
0.00219627
0.00171905
0.00118549
0.000561736
-0.00011835
-0.00087267
-0.00166837
-0.00236617
-0.00288507
-0.00309559
-0.00282588
-0.00183245
0.000125267
0.00566367
0.00559229
0.00511014
0.00456002
0.00395183
0.00322186
0.00251047
0.00191666
0.0013293
0.000748471
0.00011169
-0.000461244
-0.000993948
-0.00147343
-0.00194999
-0.00233913
-0.00252084
-0.00228644
-0.00138715
0.000444776
0.00581445
0.0055582
0.00506628
0.00437134
0.00366762
0.00311861
0.00260181
0.00205532
0.00153056
0.000915339
0.000201118
-0.00068614
-0.00163088
-0.00258265
-0.00345689
-0.00417603
-0.00460988
-0.00456518
-0.00378182
-0.00203793
0.00599575
0.00542673
0.00485313
0.00416263
0.00350685
0.0027796
0.00211036
0.00155657
0.000975722
0.00031381
-0.000363189
-0.000891125
-0.00113952
-0.00108872
-0.00076985
-0.000233252
0.000413924
0.000932322
0.000966554
0.000175216
0.00595535
0.00545167
0.00482911
0.00418028
0.0036214
0.0030889
0.00259142
0.00203388
0.00142661
0.000699926
-0.00019467
-0.00128065
-0.0025191
-0.00380286
-0.00499493
-0.00598941
-0.00666949
-0.00686368
-0.0063226
-0.00480331
0.00611353
0.00540581
0.00474328
0.0040748
0.00351401
0.0028543
0.00211753
0.00125937
0.000483665
-9.70574e-05
-0.000683809
-0.00136604
-0.00193467
-0.00226096
-0.00228445
-0.00203834
-0.0016153
-0.00126299
-0.00132943
-0.00216068
0.0060979
0.00538431
0.00473256
0.00411993
0.00369194
0.00327093
0.00284115
0.00229345
0.00162314
0.000682751
-0.000580072
-0.00220823
-0.00409093
-0.00604329
-0.00783048
-0.00926434
-0.0101878
-0.0104187
-0.00974916
-0.00799984
0.0568261
0.0267656
0.0142368
0.0114015
0.0104505
0.00938673
0.008161
0.0068413
0.00553991
0.00440818
0.00345989
0.00261828
0.00178874
0.000911511
8.06386e-05
-0.000660938
-0.00144302
-0.00226771
-0.00302872
-0.00376793
-0.00457918
-0.0053917
-0.0062244
-0.00716349
-0.00813451
-0.00902859
-0.00993562
-0.0108344
-0.0117704
-0.0128415
-0.0139917
-0.0151134
-0.0162182
-0.0174108
-0.0186492
-0.0199493
-0.0212507
-0.0226279
-0.0240326
-0.0254963
-0.0270247
-0.0285568
-0.0302274
-0.0318544
-0.0337065
-0.0355188
-0.0375702
-0.0397397
-0.042114
-0.0450725
0.0555465
0.0268083
0.0142823
0.0114187
0.0104601
0.00939365
0.0081662
0.00684526
0.00554297
0.00441057
0.00346181
0.00261987
0.00179008
0.000912646
8.1591e-05
-0.000660098
-0.00144224
-0.00226699
-0.00302806
-0.00376732
-0.00457861
-0.00539117
-0.00622391
-0.00716302
-0.00813408
-0.0090282
-0.00993526
-0.0108341
-0.0117701
-0.0128412
-0.0139914
-0.0151132
-0.016218
-0.0174106
-0.018649
-0.0199491
-0.0212506
-0.0226278
-0.0240325
-0.0254961
-0.0270246
-0.0285567
-0.0302273
-0.0318543
-0.0337065
-0.0355187
-0.0375702
-0.0397396
-0.042114
-0.0450726
0.0545058
0.0268977
0.0143558
0.0114415
0.0104701
0.00940037
0.00817124
0.00684904
0.0055458
0.00441276
0.00346357
0.00262133
0.00179132
0.000913669
8.24363e-05
-0.00065935
-0.00144155
-0.00226637
-0.00302749
-0.00376677
-0.0045781
-0.00539071
-0.00622347
-0.00716261
-0.00813371
-0.00902786
-0.00993495
-0.0108338
-0.0117699
-0.0128409
-0.0139912
-0.015113
-0.0162178
-0.0174104
-0.0186488
-0.019949
-0.0212504
-0.0226277
-0.0240324
-0.025496
-0.0270245
-0.0285566
-0.0302272
-0.0318542
-0.0337064
-0.0355186
-0.0375701
-0.0397396
-0.042114
-0.0450727
0.0535722
0.0270038
0.0144643
0.0114777
0.0104833
0.00940811
0.00817706
0.00685345
0.00554909
0.00441528
0.00346556
0.00262294
0.00179266
0.000914772
8.33298e-05
-0.000658581
-0.00144087
-0.00226577
-0.00302694
-0.00376623
-0.0045776
-0.00539025
-0.00622302
-0.0071622
-0.00813336
-0.00902752
-0.00993464
-0.0108335
-0.0117696
-0.0128407
-0.013991
-0.0151128
-0.0162176
-0.0174102
-0.0186487
-0.0199488
-0.0212503
-0.0226276
-0.0240323
-0.0254959
-0.0270244
-0.0285565
-0.0302271
-0.0318541
-0.0337063
-0.0355186
-0.03757
-0.0397395
-0.042114
-0.0450729
0.0526473
0.0271126
0.0146025
0.0115285
0.010501
0.0094176
0.00818424
0.00685912
0.00555347
0.00441865
0.00346815
0.00262498
0.00179433
0.000916146
8.44271e-05
-0.000657693
-0.00144013
-0.00226513
-0.00302635
-0.00376567
-0.00457707
-0.00538976
-0.00622255
-0.00716178
-0.008133
-0.00902717
-0.00993431
-0.0108332
-0.0117693
-0.0128404
-0.0139908
-0.0151126
-0.0162174
-0.0174101
-0.0186485
-0.0199487
-0.0212502
-0.0226274
-0.0240322
-0.0254958
-0.0270243
-0.0285564
-0.030227
-0.031854
-0.0337062
-0.0355185
-0.0375699
-0.0397395
-0.042114
-0.0450731
0.0517146
0.0272219
0.014758
0.0115888
0.0105222
0.00942862
0.00819271
0.00686618
0.00555925
0.00442324
0.00347166
0.00262764
0.00179648
0.000917951
8.58698e-05
-0.000656599
-0.00143929
-0.00226445
-0.00302575
-0.00376508
-0.00457652
-0.00538924
-0.00622203
-0.00716133
-0.00813263
-0.0090268
-0.00993396
-0.0108329
-0.0117689
-0.0128401
-0.0139905
-0.0151124
-0.0162172
-0.0174099
-0.0186483
-0.0199485
-0.02125
-0.0226273
-0.024032
-0.0254957
-0.0270242
-0.0285563
-0.0302269
-0.0318539
-0.0337061
-0.0355184
-0.0375699
-0.0397394
-0.0421139
-0.0450734
0.0507774
0.0273293
0.0149222
0.011654
0.0105453
0.0094406
0.00820205
0.00687438
0.00556644
0.00442923
0.00347627
0.00263109
0.00179924
0.000920319
8.77996e-05
-0.000655186
-0.00143828
-0.00226368
-0.0030251
-0.00376449
-0.00457594
-0.00538867
-0.00622146
-0.00716083
-0.00813224
-0.00902641
-0.00993359
-0.0108325
-0.0117686
-0.0128398
-0.0139903
-0.0151121
-0.0162169
-0.0174096
-0.0186481
-0.0199484
-0.0212499
-0.0226272
-0.0240319
-0.0254956
-0.027024
-0.0285562
-0.0302268
-0.0318538
-0.033706
-0.0355183
-0.0375698
-0.0397393
-0.0421138
-0.0450738
0.0498389
0.0274319
0.0150915
0.0117216
0.0105693
0.00945314
0.00821188
0.00688328
0.00557474
0.00443651
0.003482
0.00263536
0.00180264
0.000923309
9.03095e-05
-0.000653349
-0.00143702
-0.00226277
-0.0030244
-0.0037639
-0.00457536
-0.00538805
-0.00622082
-0.00716027
-0.0081318
-0.009026
-0.0099332
-0.0108322
-0.0117682
-0.0128394
-0.01399
-0.0151119
-0.0162167
-0.0174094
-0.0186479
-0.0199482
-0.0212497
-0.022627
-0.0240318
-0.0254954
-0.0270239
-0.0285561
-0.0302267
-0.0318537
-0.0337059
-0.0355182
-0.0375696
-0.0397391
-0.0421137
-0.0450742
0.0489003
0.0275278
0.0152652
0.0117911
0.0105937
0.00946603
0.00822204
0.00689256
0.00558376
0.00444479
0.00348868
0.00264037
0.00180664
0.000926883
9.33969e-05
-0.000651033
-0.0014354
-0.00226162
-0.00302361
-0.00376331
-0.0045748
-0.00538742
-0.0062201
-0.00715959
-0.00813128
-0.00902555
-0.00993281
-0.0108318
-0.0117677
-0.012839
-0.0139896
-0.0151116
-0.0162163
-0.0174091
-0.0186477
-0.019948
-0.0212495
-0.0226268
-0.0240316
-0.0254953
-0.0270238
-0.028556
-0.0302266
-0.0318536
-0.0337058
-0.0355181
-0.0375695
-0.0397389
-0.0421135
-0.0450748
0.0479629
0.027616
0.0154433
0.0118623
0.0106183
0.0094792
0.00823255
0.00690213
0.00559319
0.00445373
0.00349607
0.00264597
0.00181112
0.000930927
9.69648e-05
-0.000648271
-0.00143339
-0.00226017
-0.00302266
-0.00376269
-0.00457426
-0.0053868
-0.00621932
-0.00715879
-0.00813063
-0.00902503
-0.00993241
-0.0108314
-0.0117673
-0.0128386
-0.0139893
-0.0151112
-0.016216
-0.0174088
-0.0186474
-0.0199477
-0.0212493
-0.0226266
-0.0240314
-0.0254951
-0.0270237
-0.0285559
-0.0302265
-0.0318535
-0.0337057
-0.0355179
-0.0375693
-0.0397387
-0.0421132
-0.0450753
0.0470278
0.0276952
0.0156255
0.0119348
0.0106428
0.00949258
0.00824346
0.00691199
0.00560289
0.00446305
0.00350392
0.002652
0.00181596
0.000935309
0.000100872
-0.000645164
-0.00143101
-0.00225838
-0.0030215
-0.00376201
-0.00457374
-0.00538623
-0.00621855
-0.00715786
-0.00812978
-0.00902438
-0.009932
-0.010831
-0.0117668
-0.0128381
-0.0139888
-0.0151108
-0.0162156
-0.0174084
-0.0186471
-0.0199474
-0.021249
-0.0226264
-0.0240312
-0.025495
-0.0270235
-0.0285557
-0.0302263
-0.0318533
-0.0337056
-0.0355178
-0.0375691
-0.0397383
-0.0421128
-0.045076
0.0460966
0.0277639
0.0158113
0.0120087
0.0106669
0.00950597
0.00825478
0.00692217
0.00561278
0.00447259
0.00351207
0.00265832
0.00182106
0.00093992
0.000104994
-0.000641837
-0.00142835
-0.00225626
-0.00302012
-0.00376124
-0.00457321
-0.00538572
-0.00621784
-0.00715688
-0.00812872
-0.00902352
-0.00993153
-0.0108307
-0.0117663
-0.0128376
-0.0139884
-0.0151104
-0.0162152
-0.017408
-0.0186467
-0.0199471
-0.0212487
-0.0226261
-0.024031
-0.0254948
-0.0270234
-0.0285556
-0.0302262
-0.0318532
-0.0337054
-0.0355176
-0.0375689
-0.0397379
-0.0421123
-0.0450767
0.0451702
0.0278209
0.0160007
0.0120838
0.0106901
0.009519
0.00826637
0.00693264
0.0056228
0.00448222
0.00352038
0.00266484
0.00182634
0.000944692
0.000109256
-0.000638383
-0.00142551
-0.00225388
-0.0030185
-0.00376034
-0.00457264
-0.00538528
-0.00621725
-0.00715591
-0.00812748
-0.00902239
-0.00993095
-0.0108304
-0.011766
-0.0128371
-0.0139878
-0.0151098
-0.0162147
-0.0174076
-0.0186462
-0.0199467
-0.0212483
-0.0226258
-0.0240308
-0.0254946
-0.0270232
-0.0285554
-0.030226
-0.031853
-0.0337052
-0.0355174
-0.0375686
-0.0397374
-0.0421116
-0.0450774
0.0442495
0.0278653
0.0161933
0.0121603
0.0107121
0.00953125
0.00827796
0.00694329
0.0056329
0.00449189
0.00352879
0.00267152
0.00183177
0.000949589
0.000113626
-0.00063485
-0.00142258
-0.00225132
-0.00301671
-0.00375934
-0.00457203
-0.00538488
-0.00621682
-0.00715505
-0.00812615
-0.00902097
-0.0099302
-0.0108302
-0.0117657
-0.0128367
-0.0139873
-0.0151092
-0.0162142
-0.0174071
-0.0186457
-0.0199462
-0.0212479
-0.0226255
-0.0240304
-0.0254943
-0.027023
-0.0285552
-0.0302259
-0.0318529
-0.0337051
-0.0355171
-0.0375683
-0.0397368
-0.0421108
-0.0450782
0.0433354
0.0278961
0.0163885
0.0122381
0.0107325
0.00954234
0.00828923
0.00695395