/*--------------------------------*- C++ -*----------------------------------*\
| =========                 |                                                 |
| \\      /  F ield         | OpenFOAM: The Open Source CFD Toolbox           |
|  \\    /   O peration     | Version:  v2012                                 |
|   \\  /    A nd           | Website:  www.openfoam.com                      |
|    \\/     M anipulation  |                                                 |
\*---------------------------------------------------------------------------*/
FoamFile
{
    version     2.0;
    format      ascii;
    class       volScalarField;
    location    "4.3";
    object      p;
}
// * * * * * * * * * * * * * * * * * * * * * * * * * * * * * * * * * * * * * //

dimensions      [0 2 -2 0 0 0 0];


internalField   nonuniform List<scalar> 
7000
(
5.25864e-10
0.00267559
0.00415681
0.00560853
0.00734236
0.00914377
0.00902557
0.0136083
0.0134371
0.0144097
0.0137427
0.0151069
0.015158
0.0169698
0.017105
0.0193966
0.0196372
0.022479
0.0242818
0.029551
7.44023e-06
0.00266735
0.00416146
0.00562311
0.00733972
0.00914191
0.00903155
0.0135819
0.0134408
0.01438
0.0137567
0.0151071
0.0151614
0.0169704
0.017116
0.0193882
0.0196534
0.0224594
0.0242943
0.0292288
1.63579e-05
0.00266277
0.00417262
0.00563572
0.00733755
0.00913714
0.00903684
0.0135423
0.0134456
0.014357
0.0137723
0.0151118
0.0151697
0.01697
0.017136
0.0193671
0.019682
0.0224153
0.0243024
0.0288233
2.66291e-05
0.00267883
0.00418572
0.00564753
0.00733977
0.00912788
0.00904073
0.0134981
0.0134466
0.0143465
0.0137849
0.0151229
0.0151797
0.0169676
0.0171613
0.0193358
0.0197169
0.0223541
0.0242968
0.0284108
4.0734e-05
0.00271453
0.00419684
0.00565865
0.00734817
0.00911466
0.00904593
0.0134493
0.013445
0.0143455
0.0137962
0.0151374
0.0151905
0.0169617
0.01719
0.0192981
0.0197543
0.0222826
0.0242748
0.0280167
5.98112e-05
0.00276331
0.0042031
0.00566982
0.00736345
0.00909953
0.00905348
0.0133962
0.0134433
0.0143508
0.0138083
0.0151519
0.0152031
0.0169512
0.0172216
0.0192564
0.0197926
0.0222058
0.024231
0.0276456
8.38638e-05
0.00282058
0.00420352
0.00568173
0.00738521
0.00908463
0.00906317
0.01334
0.0134429
0.0143589
0.0138221
0.0151639
0.0152186
0.0169356
0.0172563
0.0192121
0.0198309
0.0221265
0.0241778
0.0272952
0.000112292
0.0028838
0.00419881
0.00569483
0.00741239
0.00907161
0.00907471
0.0132819
0.0134438
0.0143667
0.013838
0.0151724
0.0152373
0.0169147
0.017294
0.0191656
0.0198682
0.0220463
0.0241119
0.0269622
0.000144186
0.00295137
0.00419079
0.00570916
0.00744386
0.00906135
0.00908799
0.0132229
0.0134459
0.0143725
0.0138559
0.0151765
0.0152595
0.0168887
0.0173339
0.0191176
0.0199026
0.0219661
0.0240334
0.026645
0.000178587
0.00302239
0.00418156
0.00572447
0.00747883
0.00905416
0.00910302
0.0131633
0.0134489
0.0143748
0.0138758
0.0151755
0.0152852
0.0168579
0.0173751
0.019069
0.0199318
0.0218867
0.0239417
0.0263426
0.000214748
0.00309642
0.00417285
0.00574037
0.00751687
0.00904995
0.00911997
0.0131038
0.0134527
0.0143727
0.0138973
0.015169
0.0153143
0.0168227
0.0174163
0.0190208
0.0199535
0.0218084
0.0238238
0.0260534
0.00025225
0.00317316
0.00416573
0.00575649
0.0075577
0.0090486
0.00913916
0.0130448
0.0134572
0.0143653
0.0139203
0.0151567
0.0153464
0.0167837
0.017456
0.0189741
0.019966
0.0217317
0.0237066
0.025775
0.000290974
0.00325226
0.0041606
0.00577252
0.00760114
0.00905006
0.00916088
0.0129869
0.0134627
0.0143517
0.0139446
0.0151383
0.0153813
0.0167421
0.0174926
0.01893
0.0199679
0.0216559
0.0235821
0.0255051
0.000330986
0.00333329
0.00415752
0.00578824
0.00764694
0.0090543
0.00918531
0.0129303
0.0134693
0.0143314
0.0139703
0.0151138
0.0154183
0.0166991
0.0175241
0.0188898
0.0199584
0.0215793
0.0234494
0.0252422
0.000372424
0.00341586
0.00415638
0.00580351
0.00769483
0.00906121
0.00921241
0.0128752
0.0134775
0.0143041
0.0139976
0.0150836
0.0154563
0.0166563
0.0175488
0.018854
0.0199372
0.0215002
0.023309
0.024985
0.000415427
0.00349965
0.00415715
0.00581823
0.00774452
0.00907052
0.00924193
0.0128213
0.0134876
0.0142701
0.0140264
0.0150483
0.015494
0.0166155
0.0175651
0.0188224
0.0199048
0.0214169
0.0231613
0.0247321
0.000460112
0.0035844
0.00415985
0.00583236
0.00779575
0.00908179
0.0092735
0.0127683
0.0134997
0.0142298
0.0140567
0.015009
0.0155298
0.0165787
0.017572
0.0187943
0.0198618
0.0213278
0.023007
0.0244823
0.000506586
0.00366994
0.00416457
0.00584589
0.00784828
0.00909453
0.00930669
0.0127154
0.013514
0.0141838
0.0140881
0.0149673
0.0155618
0.0165472
0.0175691
0.0187685
0.0198095
0.0212312
0.0228465
0.0242347
0.000554961
0.00375612
0.00417143
0.00585879
0.00790192
0.00910823
0.00934113
0.0126621
0.0135305
0.0141329
0.01412
0.0149248
0.0155882
0.0165218
0.0175563
0.0187435
0.0197493
0.0211255
0.02268
0.023989
0.000605353
0.00384281
0.00418056
0.00587105
0.00795652
0.00912245
0.00937652
0.0126078
0.013549
0.0140781
0.0141514
0.0148837
0.0156074
0.016503
0.017534
0.0187174
0.0196832
0.0210095
0.0225071
0.023745
0.000657887
0.0039299
0.00419212
0.00588268
0.00801197
0.00913684
0.00941264
0.0125522
0.0135694
0.0140204
0.0141808
0.0148458
0.0156183
0.0164906
0.017503
0.0186874
0.0196127
0.0208836
0.0223263
0.0235017
0.000712684
0.00401728
0.0042063
0.00589369
0.00806821
0.00915114
0.00944937
0.012495
0.0135912
0.013961
0.0142066
0.014813
0.01562
0.0164842
0.0174651
0.0186506
0.0195379
0.0207494
0.0221387
0.0232584
0.000769861
0.00410481
0.00422332
0.00590411
0.00812521
0.00916524
0.00948669
0.0124362
0.0136141
0.0139014
0.0142273
0.0147861
0.0156124
0.0164825
0.017422
0.0186049
0.0194587
0.020607
0.0219447
0.0230158
0.00082953
0.00419237
0.00424343
0.00591394
0.00818292
0.00917915
0.00952464
0.012376
0.0136374
0.013843
0.0142416
0.0147661
0.0155951
0.0164833
0.0173755
0.0185496
0.0193757
0.020456
0.0217429
0.0227747
0.000891806
0.00427979
0.00426685
0.00592326
0.00824131
0.00919302
0.00956327
0.0123147
0.0136604
0.0137872
0.0142482
0.0147538
0.0155688
0.0164844
0.017327
0.0184834
0.0192893
0.0202988
0.0215333
0.0225341
0.000956798
0.00436691
0.00429384
0.0059321
0.00830041
0.00920705
0.00960259
0.0122528
0.0136823
0.0137358
0.0142458
0.0147486
0.0155345
0.016484
0.0172791
0.0184038
0.0191966
0.0201394
0.0213189
0.0222929
0.00102461
0.00445356
0.00432467
0.00594054
0.00836013
0.00922162
0.00964237
0.0121917
0.0137018
0.0136896
0.0142343
0.0147499
0.0154937
0.0164783
0.0172343
0.0183125
0.0190915
0.0199784
0.0211052
0.0220516
0.00109537
0.00453955
0.00435957
0.0059487
0.0084203
0.0092372
0.00968236
0.0121317
0.0137184
0.0136491
0.0142131
0.0147569
0.0154498
0.0164638
0.0171897
0.0182143
0.0189754
0.0198101
0.0209007
0.0218131
0.00116919
0.00462471
0.00439878
0.00595667
0.00848085
0.00925394
0.0097227
0.0120733
0.0137311
0.0136159
0.0141823
0.0147676
0.0154045
0.0164409
0.0171418
0.0181099
0.0188601
0.0196371
0.020658
0.0215762
0.00124616
0.00470889
0.0044426
0.00596462
0.00854136
0.00927291
0.00976181
0.0120183
0.0137394
0.0135889
0.0141427
0.0147812
0.0153577
0.0164086
0.0170926
0.0179944
0.0187308
0.0194692
0.0204439
0.021337
0.00132646
0.00479189
0.00449112
0.0059729
0.00860141
0.00929449
0.00979953
0.0119665
0.0137428
0.0135687
0.0140936
0.014796
0.0153127
0.0163639
0.0170418
0.0178711
0.018585
0.0192986
0.0202807
0.021098
0.00141015
0.00487359
0.0045444
0.0059819
0.00866065
0.00931888
0.00983603
0.0119179
0.0137406
0.0135556
0.0140374
0.0148064
0.0152729
0.0163068
0.0169876
0.0177503
0.0184319
0.0191143
0.0200181
0.0208661
0.00149729
0.00495384
0.00460281
0.00599165
0.00871857
0.00934707
0.0098693
0.0118741
0.0137337
0.0135458
0.0139808
0.0148071
0.0152384
0.0162408
0.016929
0.0176205
0.0182495
0.0189116
0.0198843
0.0206547
0.00158832
0.00503231
0.0046662
0.00600265
0.00877475
0.00937852
0.0099007
0.0118334
0.013722
0.0135398
0.0139778
0.0147992
0.0152062
0.0161654
0.0168636
0.0175016
0.0180698
0.0186536
0.0195797
0.0204577
0.00168304
0.00510895
0.0047342
0.00601614
0.00882757
0.00941498
0.00992883
0.0117962
0.0137056
0.013539
0.0139124
0.0147926
0.0151768
0.0160821
0.0167777
0.0173556
0.0178925
0.018558
0.0193722
0.0202541
0.00178147
0.00518376
0.00480712
0.00603195
0.00887726
0.00945627
0.00995209
0.0117646
0.0136834
0.0135409
0.0138367
0.0147777
0.0151504
0.0159876
0.016671
0.0171988
0.0177041
0.0184377
0.0193074
0.0200499
0.0018844
0.00525609
0.00488474
0.00605053
0.00892367
0.0095004
0.00997627
0.0117322
0.0136607
0.0135366
0.0137943
0.0147478
0.015117
0.0158935
0.0165706
0.0170583
0.0175242
0.0180988
0.018925
0.0198663
0.00199125
0.0053262
0.00496613
0.00607369
0.00896469
0.00955033
0.00999675
0.0117018
0.0136358
0.0135376
0.0137282
0.01472
0.0150853
0.0157717
0.0164432
0.0169135
0.0173422
0.0178821
0.0186984
0.0196741
0.00210195
0.00539439
0.00505151
0.00610109
0.00900123
0.0096051
0.0100116
0.011675
0.0136065
0.0135445
0.013647
0.0146875
0.0150598
0.0156204
0.0162885
0.0167554
0.0171475
0.0177599
0.0186685
0.019469
0.00221766
0.0054598
0.00514053
0.00613326
0.00903359
0.00966093
0.010035
0.0116403
0.0135821
0.0135411
0.0135929
0.01463
0.0150273
0.0155224
0.0161437
0.0165999
0.0169707
0.0174042
0.0181986
0.019283
0.00233724
0.00552338
0.00523165
0.00617233
0.00905982
0.0097207
0.0100565
0.0116062
0.0135534
0.013549
0.0135232
0.0145686
0.0149928
0.0153872
0.0159678
0.0164313
0.0167876
0.0171756
0.0179485
0.0190866
0.00246101
0.0055853
0.00532498
0.00621771
0.00908158
0.0097833
0.0100694
0.0115752
0.0135178
0.0135694
0.0134434
0.0144723
0.0149436
0.0152539
0.0157692
0.0162404
0.0165353
0.0170772
0.0179546
0.0188748
0.0025901
0.00564477
0.00542001
0.00626922
0.00910066
0.00984283
0.0101078
0.0115326
0.0134837
0.0135818
0.0133806
0.0143815
0.0149074
0.0151374
0.0155828
0.0160349
0.0163619
0.0167278
0.0174505
0.0187038
0.00272255
0.00570345
0.00551547
0.00632836
0.00911569
0.00990172
0.0101447
0.0114892
0.0134424
0.0135941
0.0133203
0.0142713
0.0148638
0.0150315
0.0153794
0.0158009
0.0161051
0.0164249
0.0171928
0.0185765
0.00285954
0.00576164
0.00561093
0.00639456
0.00912881
0.00995894
0.0101396
0.0114487
0.0133893
0.0136114
0.0132574
0.014144
0.0148047
0.0149363
0.0151726
0.0155556
0.015844
0.016196
0.017016
0.0184162
0.00300127
0.00581889
0.00570643
0.00646709
0.00914154
0.0100123
0.0101865
0.011407
0.0133261
0.0136241
0.0131985
0.0140068
0.0147309
0.0148522
0.0149789
0.015305
0.0156232
0.0160052
0.0167877
0.0182448
0.00314635
0.00587637
0.00580157
0.00654555
0.00915521
0.0100619
0.0102327
0.011368
0.0132533
0.0136276
0.0131522
0.0138621
0.014637
0.0147764
0.0147994
0.0150495
0.0153817
0.0157925
0.016621
0.0180943
0.00329606
0.00593495
0.00589561
0.00662822
0.00917252
0.0101062
0.0102806
0.0113313
0.0131701
0.0136261
0.0131143
0.0137093
0.014526
0.0147048
0.0146372
0.0148266
0.0151484
0.015597
0.0164426
0.0179569
0.00344927
0.00599416
0.00599008
0.00671416
0.00919288
0.0101468
0.0103283
0.0112957
0.0130795
0.0136171
0.013084
0.0135575
0.0143982
0.0146264
0.0144909
0.0145844
0.0149004
0.0153899
0.0162866
0.017828
0.00360603
0.00605522
0.00608462
0.00680113
0.00921725
0.0101861
0.0103725
0.0112623
0.0129824
0.0135975
0.0130649
0.0134094
0.0142492
0.014538
0.0143647
0.0143586
0.0146464
0.0151722
0.0161394
0.017707
0.00376691
0.00611784
0.00617958
0.00688912
0.00924502
0.0102237
0.0104145
0.0112309
0.0128797
0.0135674
0.0130546
0.0132658
0.0140834
0.0144384
0.0142536
0.0141476
0.014396
0.0149575
0.0159658
0.0175896
0.00393093
0.00618213
0.00627627
0.00697761
0.00927305
0.0102609
0.0104557
0.0112016
0.0127731
0.0135253
0.0130507
0.0131311
0.0139039
0.0143236
0.0141504
0.0139604
0.0141543
0.0147305
0.0157942
0.0174687
0.00409846
0.0062494
0.00637386
0.00706504
0.00930124
0.0102992
0.0104968
0.0111675
0.0126616
0.0134703
0.0130527
0.0130085
0.0137133
0.0141911
0.0140513
0.0138006
0.0139291
0.0145022
0.0155945
0.0173411
0.00426919
0.00631886
0.00647322
0.0071531
0.00932794
0.0103364
0.0105379
0.0111428
0.0125483
0.0134025
0.0130551
0.0129001
0.0135149
0.0140392
0.0139515
0.0136632
0.0137159
0.0142663
0.0154021
0.0172121
0.00444293
0.00639173
0.00657433
0.0072404
0.00935169
0.0103729
0.0105809
0.0111216
0.0124335
0.0133202
0.0130652
0.0128097
0.0133137
0.0138699
0.0138451
0.0135411
0.0135251
0.0140469
0.0151986
0.0170737
0.00461966
0.006468
0.00667676
0.00732809
0.00937232
0.010407
0.0106251
0.011104
0.0123189
0.0132248
0.0130602
0.0127378
0.0131133
0.0136822
0.0137254
0.0134299
0.0133591
0.0138358
0.0150013
0.0169287
0.00479914
0.00654815
0.00678083
0.00741681
0.00938831
0.0104362
0.0106707
0.0110911
0.0122077
0.0131188
0.013044
0.0126824
0.0129213
0.0134772
0.0135914
0.0133261
0.0132161
0.0136468
0.0148023
0.0167816
0.00498089
0.00663309
0.00688609
0.00750655
0.0093992
0.0104595
0.0107186
0.0110818
0.0121006
0.0130037
0.0130139
0.0126436
0.0127442
0.0132589
0.0134425
0.0132233
0.0130914
0.0134754
0.0146198
0.0166355
0.00516486
0.00672223
0.00699415
0.00759739
0.00940599
0.0104732
0.0107647
0.0110802
0.0120011
0.012883
0.0129684
0.0126142
0.0125859
0.0130326
0.0132746
0.0131148
0.0129822
0.0133302
0.0144514
0.0164943
0.00535149
0.0068153
0.00710558
0.00768818
0.00941191
0.0104755
0.010796
0.0110897
0.0119163
0.0127613
0.012907
0.0125869
0.0124515
0.0128051
0.013087
0.0129972
0.0128839
0.0132069
0.0143054
0.0163621
0.00553957
0.00691307
0.00721944
0.00778196
0.00941475
0.0104635
0.0108217
0.0111096
0.0118435
0.0126407
0.0128302
0.012557
0.012343
0.0125848
0.0128814
0.0128661
0.0127911
0.013104
0.014181
0.0162402
0.00572973
0.00701431
0.00733569
0.00787945
0.0094107
0.010444
0.0108483
0.0111316
0.0117762
0.0125216
0.0127393
0.0125186
0.0122561
0.0123793
0.0126624
0.0127184
0.0126987
0.0130186
0.0140784
0.0161308
0.00592197
0.0071174
0.00745312
0.00797826
0.00940602
0.010422
0.0108701
0.0111537
0.0117143
0.0124049
0.0126388
0.0124681
0.0121855
0.0121963
0.0124403
0.0125537
0.0125993
0.0129447
0.0139956
0.0160352
0.0061152
0.00722519
0.00756903
0.00807791
0.00940674
0.0103971
0.0108837
0.0111756
0.0116581
0.0122913
0.0125324
0.0124021
0.0121238
0.012042
0.0122246
0.0123723
0.0124871
0.0128752
0.0139294
0.0159551
0.00630946
0.00733627
0.00768278
0.00817913
0.00941384
0.0103695
0.0108882
0.011196
0.0116078
0.0121802
0.0124225
0.0123225
0.0120647
0.0119132
0.0120221
0.0121816
0.0123608
0.0128029
0.0138742
0.0158886
0.00650435
0.00745038
0.00779498
0.00828129
0.009427
0.0103408
0.0108836
0.011213
0.0115635
0.0120718
0.0123117
0.0122319
0.0119998
0.0118024
0.0118402
0.0119918
0.0122204
0.0127202
0.0138209
0.0158304
0.00669931
0.00756758
0.00790616
0.00838344
0.00944615
0.0103128
0.01087
0.011225
0.0115251
0.0119677
0.0122008
0.0121324
0.011926
0.0117047
0.0116793
0.011809
0.0120703
0.0126243
0.0137622
0.015777
0.00689393
0.00768797
0.00801662
0.00848469
0.00947071
0.0102868
0.0108483
0.0112302
0.0114921
0.011868
0.0120905
0.0120273
0.0118431
0.0116136
0.0115361
0.0116381
0.0119167
0.0125154
0.0136927
0.0157234
0.00708784
0.00781148
0.00812656
0.00858446
0.00950003
0.010264
0.0108199
0.0112271
0.0114635
0.0117733
0.0119813
0.0119193
0.0117507
0.0115252
0.0114087
0.0114806
0.0117641
0.0123957
0.0136105
0.0156647
0.00728072
0.00793787
0.00823621
0.00868241
0.00953335
0.0102452
0.0107862
0.0112146
0.0114376
0.0116844
0.0118735
0.0118105
0.0116505
0.0114363
0.0112925
0.0113354
0.0116152
0.0122689
0.0135164
0.0155986
0.0074722
0.00806699
0.00834586
0.00877807
0.00956967
0.0102311
0.0107492
0.0111922
0.0114124
0.0116017
0.0117672
0.011703
0.0115443
0.0113438
0.0111842
0.0112011
0.0114717
0.0121394
0.0134144
0.0155262
0.00766196
0.00819854
0.00845564
0.00887127
0.00960825
0.0102216
0.0107107
0.0111602
0.0113859
0.0115251
0.0116628
0.011598
0.0114343
0.0112463
0.0110805
0.011076
0.0113352
0.0120106
0.0133078
0.0154481
0.00784972
0.00833224
0.00856558
0.00896182
0.00964833
0.0102166
0.0106724
0.0111195
0.0113555
0.0114543
0.0115605
0.0114957
0.0113231
0.011143
0.0109783
0.0109586
0.0112061
0.0118839
0.0131986
0.0153654
0.00803516
0.00846771
0.00867585
0.00904976
0.00968904
0.0102154
0.0106359
0.0110714
0.0113194
0.0113885
0.0114605
0.011396
0.0112131
0.0110344
0.0108751
0.0108468
0.0110836
0.0117608
0.0130891
0.0152795
0.00821804
0.0086045
0.00878643
0.00913508
0.00972972
0.0102176
0.0106023
0.0110177
0.0112763
0.0113265
0.0113629
0.0112979
0.0111067
0.0109227
0.0107689
0.0107374
0.010967
0.011642
0.0129804
0.0151914
0.00839806
0.00874219
0.00889741
0.00921787
0.00976959
0.0102224
0.0105722
0.0109604
0.0112256
0.0112663
0.0112679
0.0112002
0.0110044
0.0108101
0.010659
0.0106282
0.0108543
0.0115273
0.0128731
0.0151017
0.00857503
0.00888022
0.0090086
0.00929836
0.00980832
0.010229
0.0105457
0.0109018
0.0111671
0.0112061
0.0111762
0.0111016
0.0109054
0.0106992
0.0105466
0.0105176
0.0107436
0.0114157
0.0127667
0.0150101
0.00874865
0.00901818
0.00911995
0.00937664
0.00984535
0.0102367
0.0105226
0.0108435
0.0111013
0.011145
0.0110885
0.011002
0.0108081
0.0105912
0.0104333
0.010405
0.0106327
0.0113053
0.0126603
0.0149162
0.00891865
0.00915536
0.00923131
0.00945326
0.00988052
0.0102444
0.0105022
0.010787
0.01103
0.0110794
0.0110041
0.0109018
0.0107102
0.0104854
0.0103201
0.0102909
0.0105207
0.0111952
0.0125541
0.0148201
0.00908483
0.00929131
0.0093423
0.00952835
0.00991361
0.0102517
0.010484
0.010733
0.0109552
0.011007
0.0109209
0.0108015
0.0106104
0.0103809
0.0102073
0.0101753
0.0104068
0.0110844
0.0124471
0.0147212
0.00924692
0.00942548
0.0094526
0.00960225
0.00994445
0.0102578
0.0104675
0.0106814
0.0108789
0.0109286
0.0108364
0.0107016
0.0105086
0.0102766
0.0100943
0.0100578
0.0102899
0.010971
0.0123377
0.014619
0.00940481
0.00955735
0.00956139
0.00967525
0.00997349
0.0102622
0.0104519
0.0106316
0.0108025
0.0108452
0.0107483
0.0106013
0.0104047
0.0101712
0.00998072
0.00993805
0.0101691
0.0108534
0.0122247
0.0145125
0.00955813
0.00968646
0.00966832
0.00974743
0.0100009
0.0102638
0.010437
0.0105837
0.0107264
0.0107594
0.0106552
0.0104988
0.0102979
0.0100639
0.00986604
0.00981545
0.0100435
0.0107302
0.0121063
0.0144004
0.00970676
0.00981241
0.00977265
0.00981861
0.0100274
0.0102627
0.0104216
0.0105373
0.0106502
0.0106726
0.0105582
0.010392
0.0101866
0.00995308
0.00974966
0.00969003
0.00991278
0.0105998
0.0119805
0.0142812
0.00985018
0.00993489
0.00987425
0.00988851
0.010053
0.0102585
0.0104049
0.0104928
0.0105728
0.010585
0.0104598
0.010281
0.0100697
0.0098367
0.00962998
0.00956129
0.00977619
0.0104606
0.0118444
0.0141516
0.00998805
0.0100532
0.00997243
0.00995748
0.0100789
0.0102513
0.0103848
0.01045
0.0104937
0.0104954
0.0103624
0.0101683
0.00994803
0.00971339
0.00950555
0.00942849
0.00963373
0.0103122
0.0116964
0.0140093
0.01012
0.0101675
0.0100664
0.0100236
0.0101057
0.0102436
0.0103606
0.0104082
0.0104137
0.0104012
0.0102651
0.0100553
0.00982167
0.0095817
0.00937317
0.00928952
0.00948483
0.0101548
0.0115363
0.0138527
0.0102453
0.0102778
0.0101575
0.0100866
0.0101307
0.0102341
0.0103319
0.0103675
0.0103363
0.0103017
0.0101658
0.00994324
0.00969239
0.00944152
0.00923102
0.00914291
0.00932798
0.00998669
0.0113619
0.0136778
0.0103635
0.0103828
0.0102449
0.0101496
0.0101574
0.0102229
0.010294
0.0103224
0.010263
0.0101992
0.0100624
0.00983111
0.00956239
0.00929568
0.00907846
0.00898594
0.00916293
0.00981057
0.0111739
0.0134834
0.0104733
0.0104818
0.0103278
0.0102101
0.0101862
0.0102168
0.010253
0.0102706
0.0101924
0.0100961
0.00995262
0.00971576
0.00943091
0.00914486
0.00891357
0.00881274
0.00898077
0.00961746
0.0109701
0.0132714
0.0105749
0.0105754
0.0104055
0.0102647
0.0102043
0.0102054
0.0102119
0.0102142
0.0101213
0.00999622
0.00984073
0.00959971
0.00930025
0.00899364
0.00874225
0.0086274
0.00878372
0.00940823
0.0107477
0.0130379
0.0106671
0.0106741
0.0104977
0.0103298
0.0102212
0.0101759
0.0101488
0.0101508
0.0100725
0.00991524
0.00973654
0.00948614
0.00917103
0.00884323
0.00856759
0.00843431
0.0085761
0.0091872
0.0105128
0.0127896
0.0107134
0.0107417
0.0105957
0.0104001
0.0102413
0.0101677
0.0100966
0.0100442
0.00993315
0.00977823
0.0095865
0.00932955
0.00900395
0.00865261
0.00834323
0.0081784
0.0082963
0.00888347
0.0101835
0.0124368
0.0108526
0.0108352
0.0106331
0.0104237
0.0102311
0.0101333
0.0100898
0.0100511
0.00997464
0.00982227
0.00961732
0.00935161
0.00902699
0.00866002
0.00829272
0.00804175
0.00804492
0.00851096
0.00969186
0.0118243
0.0108417
0.0109025
0.0106546
0.0105237
0.0103697
0.0101109
0.00982927
0.00973699
0.00965894
0.00954764
0.0093279
0.00906912
0.00877739
0.00853172
0.00835368
0.00829782
0.00845622
0.0090049
0.0101865
0.0122682
0.0110362
0.0109319
0.0107489
0.0104648
0.0102358
0.0101292
0.0100922
0.0100452
0.00999067
0.00982971
0.00954056
0.00917378
0.00869325
0.0081014
0.00748664
0.00696623
0.00671073
0.00694267
0.007915
0.00985936
0.0113025
0.0108828
0.0105664
0.0103027
0.0101366
0.00992236
0.00969348
0.00961731
0.00953606
0.0093317
0.00908751
0.00890349
0.00896111
0.00930027
0.00996052
0.0108737
0.011873
0.0126733
0.0129248
0.0123
0.0113303
0.0109513
0.0106109
0.0104064
0.01033
0.0102965
0.010276
0.0102172
0.0100825
0.00980092
0.00934918
0.00871979
0.00792289
0.00704125
0.00618245
0.0054395
0.00494924
0.0049195
0.00562343
0.00730861
0.0115077
0.0109444
0.0105592
0.0103383
0.010279
0.0101281
0.00987538
0.00952395
0.00923377
0.00911245
0.0089767
0.0087076
0.00848741
0.0084633
0.00871301
0.00923237
0.00995166
0.010603
0.0107958
0.0101592
0.0115198
0.0109424
0.0105705
0.0104411
0.0105168
0.0106105
0.010685
0.0106398
0.0104356
0.00994197
0.00912952
0.0079606
0.00649759
0.00491014
0.00344228
0.00230502
0.0016519
0.00164683
0.00249956
0.00440259
0.0334342
0.0180444
0.0123127
0.0130637
0.0147496
0.0159512
0.0167635
0.0174355
0.0181581
0.018974
0.0199117
0.0209362
0.021909
0.0228669
0.0239364
0.0250327
0.0260744
0.0271372
0.0283031
0.0295154
0.0307444
0.032005
0.0332888
0.0346349
0.0360973
0.03765
0.039212
0.040829
0.0424932
0.0442088
0.0459442
0.0477806
0.0497068
0.051706
0.0537406
0.0558138
0.0580019
0.0602787
0.0626996
0.0651475
0.0676651
0.0702616
0.0729398
0.0757447
0.0785416
0.0814918
0.0844052
0.0874365
0.0902132
0.0929297
0.0329933
0.0180974
0.0123549
0.0130797
0.0147587
0.0159577
0.0167684
0.0174392
0.0181609
0.0189762
0.0199135
0.0209377
0.0219104
0.0228681
0.0239375
0.0250336
0.0260753
0.027138
0.0283038
0.0295161
0.030745
0.0320055
0.0332893
0.0346353
0.0360977
0.0376503
0.0392123
0.0408293
0.0424935
0.044209
0.0459444
0.0477809
0.049707
0.0517062
0.0537408
0.055814
0.0580021
0.0602789
0.0626997
0.0651476
0.0676652
0.0702617
0.0729399
0.0757448
0.0785417
0.0814918
0.0844053
0.0874366
0.0902132
0.0929296
0.0325305
0.0181837
0.0124238
0.0131012
0.0147684
0.0159642
0.0167732
0.0174429
0.0181637
0.0189782
0.0199151
0.0209391
0.0219116
0.0228691
0.0239384
0.0250345
0.0260761
0.0271387
0.0283045
0.0295167
0.0307455
0.032006
0.0332897
0.0346356
0.036098
0.0376506
0.0392126
0.0408296
0.0424937
0.0442092
0.0459446
0.047781
0.0497072
0.0517064
0.0537409
0.0558142
0.0580022
0.060279
0.0626998
0.0651477
0.0676653
0.0702618
0.07294
0.0757449
0.0785417
0.0814919
0.0844054
0.0874366
0.0902132
0.0929296
0.0320998
0.0183007
0.0125289
0.0131355
0.0147816
0.015972
0.0167788
0.0174472
0.0181671
0.0189808
0.019917
0.0209406
0.0219129
0.0228702
0.0239393
0.0250353
0.0260768
0.0271394
0.0283051
0.0295172
0.030746
0.0320064
0.0332901
0.034636
0.0360983
0.0376509
0.0392128
0.0408298
0.042494
0.0442095
0.0459448
0.0477812
0.0497074
0.0517065
0.0537411
0.0558143
0.0580023
0.0602791
0.0627
0.0651478
0.0676654
0.0702619
0.0729401
0.075745
0.0785418
0.081492
0.0844054
0.0874367
0.0902133
0.0929296
0.0316848
0.0184382
0.0126649
0.0131834
0.0147993
0.0159819
0.0167858
0.0174528
0.0181717
0.0189843
0.0199195
0.0209425
0.0219144
0.0228715
0.0239404
0.0250363
0.0260777
0.0271401
0.0283058
0.0295179
0.0307466
0.032007
0.0332906
0.0346364
0.0360987
0.0376512
0.0392131
0.0408301
0.0424942
0.0442097
0.045945
0.0477814
0.0497076
0.0517067
0.0537413
0.0558145
0.0580025
0.0602793
0.0627001
0.065148
0.0676655
0.070262
0.0729402
0.0757451
0.0785419
0.0814921
0.0844055
0.0874368
0.0902134
0.0929296
0.031268
0.0185848
0.0128188
0.0132403
0.0148208
0.015994
0.0167944
0.0174599
0.0181778
0.0189892
0.0199229
0.0209449
0.0219163
0.022873
0.0239417
0.0250373
0.0260785
0.027141
0.0283066
0.0295186
0.0307473
0.0320076
0.0332911
0.0346368
0.0360991
0.0376516
0.0392135
0.0408304
0.0424945
0.04421
0.0459453
0.0477816
0.0497078
0.0517069
0.0537414
0.0558146
0.0580026
0.0602794
0.0627002
0.0651481
0.0676657
0.0702621
0.0729403
0.0757452
0.078542
0.0814922
0.0844056
0.0874369
0.0902136
0.0929296
0.0308449
0.0187336
0.0129825
0.0133023
0.0148445
0.0160078
0.0168045
0.0174682
0.0181852
0.0189954
0.0199274
0.020948
0.0219187
0.022875
0.0239432
0.0250384
0.0260795
0.0271419
0.0283074
0.0295194
0.0307482
0.0320083
0.0332917
0.0346373
0.0360995
0.037652
0.0392138
0.0408307
0.0424948
0.0442102
0.0459455
0.0477818
0.049708
0.0517071
0.0537416
0.0558148
0.0580028
0.0602796
0.0627004
0.0651483
0.0676658
0.0702623
0.0729405
0.0757453
0.0785421
0.0814923
0.0844057
0.087437
0.0902139
0.0929296
0.0304181
0.018882
0.013153
0.0133674
0.0148693
0.0160229
0.0168158
0.0174775
0.0181936
0.0190027
0.019933
0.0209519
0.0219218
0.0228776
0.0239451
0.0250398
0.0260806
0.0271429
0.0283084
0.0295203
0.0307491
0.0320093
0.0332924
0.0346378
0.0361
0.0376524
0.0392142
0.0408311
0.0424952
0.0442105
0.0459458
0.0477821
0.0497082
0.0517073
0.0537418
0.055815
0.0580029
0.0602797
0.0627005
0.0651484
0.067666
0.0702624
0.0729406
0.0757454
0.0785422
0.0814924
0.0844058
0.0874372
0.0902142
0.0929297
0.0299913
0.0190292
0.0133294
0.0134349
0.0148948
0.0160388
0.016828
0.0174875
0.0182025
0.0190105
0.0199393
0.0209567
0.0219254
0.0228806
0.0239474
0.0250414
0.0260819
0.0271441
0.0283094
0.0295213
0.0307503
0.0320104
0.0332933
0.0346385
0.0361006
0.0376529
0.0392147
0.0408315
0.0424956
0.0442109
0.0459461
0.0477823
0.0497084
0.0517075
0.053742
0.0558151
0.0580031
0.0602799
0.0627007
0.0651486
0.0676661
0.0702625
0.0729407
0.0757456
0.0785424
0.0814925
0.084406
0.0874374
0.0902146
0.0929298
0.029567
0.0191747
0.0135115
0.0135048
0.0149207
0.0160554
0.016841
0.0174981
0.0182117
0.0190187
0.019946
0.020962
0.0219297
0.0228841
0.0239501
0.0250433
0.0260835
0.0271455
0.0283106
0.0295223
0.0307514
0.0320117
0.0332944
0.0346394
0.0361012
0.0376535
0.0392151
0.040832
0.042496
0.0442113
0.0459464
0.0477826
0.0497087
0.0517078
0.0537422
0.0558153
0.0580033
0.06028
0.0627009
0.0651487
0.0676663
0.0702627
0.0729409
0.0757457
0.0785425
0.0814927
0.0844061
0.0874376
0.0902151
0.09293
0.0291463
0.0193174
0.013699
0.0135771
0.0149468
0.0160725
0.0168546
0.0175091
0.0182211
0.0190271
0.0199531
0.0209678
0.0219345
0.0228881
0.0239532
0.0250454
0.0260853
0.0271472
0.0283119
0.0295234
0.0307527
0.032013
0.0332957
0.0346405
0.0361021
0.0376541
0.0392156
0.0408324
0.0424965
0.0442118
0.0459468
0.047783
0.049709
0.0517081
0.0537425
0.0558155
0.0580035
0.0602802
0.062701
0.0651489
0.0676664
0.0702628
0.072941
0.0757459
0.0785427
0.0814928
0.0844063
0.0874379
0.0902157
0.0929302
0.0287293
0.0194566
0.0138916
0.0136518
0.014973
0.0160898
0.0168689
0.0175205
0.0182307
0.0190356
0.0199603
0.0209739
0.0219397
0.0228924
0.0239564
0.0250478
0.0260873
0.0271492
0.0283135
0.0295245
0.0307539
0.0320144
0.0332971
0.0346418
0.0361031
0.0376548
0.0392162
0.0408329
0.042497
0.0442123
0.0459473
0.0477834
0.0497093
0.0517084
0.0537428
0.0558158
0.0580037
0.0602803
0.0627012
0.0651491
0.0676666
0.070263
0.0729412
0.0757461
0.0785429
0.081493
0.0844065
0.0874383
0.0902165
0.0929305
0.0283164
0.0195913
0.0140891
0.0137292
0.0149991
0.0161075
0.0168837
0.0175324
0.0182404
0.0190442
0.0199678
0.0209801
0.0219452
0.0228969
0.0239599
0.0250503
0.0260895
0.0271513
0.0283153
0.0295257
0.0307551
0.0320158
0.0332985
0.0346432
0.0361044
0.0376557
0.0392168
0.0408334
0.0424975
0.0442129
0.0459479
0.0477838
0.0497097
0.0517087
0.0537432
0.0558161
0.0580039
0.0602805
0.0627013
0.0651492
0.0676667
0.0702632
0.0729414
0.0757463
0.0785431
0.0814933
0.0844068
0.0874388
0.0902175
0.0929309
0.027908
0.0197209
0.014291
0.0138093
0.0150251
0.0161252
0.016899
0.0175446
0.0182504
0.0190531
0.0199755
0.0209866
0.0219508
0.0229016
0.0239635
0.025053
0.0260918
0.0271536
0.0283172
0.029527
0.0307562
0.032017
0.0332999
0.0346448
0.0361058
0.0376567
0.0392174
0.0408339
0.042498
0.0442135
0.0459485
0.0477844
0.0497101
0.0517091
0.0537436
0.0558165
0.0580042
0.0602806
0.0627015
0.0651494
0.0676669
0.0702633
0.0729416
0.0757465
0.0785433
0.0814936
0.0844071
0.0874393
0.0902187
0.0929314
0.0275048
0.0198446
0.0144967
0.0138922
0.015051
0.016143
0.0169149
0.0175573
0.0182607
0.0190622
0.0199837
0.0209933
0.0219566
0.0229065
0.0239673
0.0250557
0.0260942
0.0271561
0.0283193
0.0295284
0.0307573
0.0320182
0.0333012
0.0346464
0.0361075
0.0376578
0.0392181
0.0408345
0.0424985
0.0442141
0.0459492
0.047785
0.0497105
0.0517094
0.0537441
0.055817
0.0580045
0.0602808
0.0627016
0.0651496
0.0676671
0.0702635
0.0729417
0.0757467
0.0785436
0.0814939
0.0844075
0.08744
0.0902201
0.0929321
0.0271074
0.0199616
0.0147055
0.0139781
0.0150766
0.0161606
0.0169314
0.0175705
0.0182714
0.0190718
0.0199923
0.0210003
0.0219624
0.0229115
0.0239712
0.0250587
0.0260968
0.0271586
0.0283215
0.0295298
0.0307583
0.0320192
0.0333024
0.034648
0.0361092
0.0376591
0.0392188
0.040835
0.042499
0.0442146
0.0459499
0.0477857
0.0497109
0.0517098
0.0537446
0.0558176
0.058005
0.060281
0.0627018
0.0651497
0.0676672
0.0702636
0.0729419
0.0757469
0.0785439
0.0814943
0.084408
0.0874408
0.0902217
0.0929329
0.0267166
0.0200713
0.0149173
0.0140676
0.0151021
0.0161781
0.0169485
0.0175843
0.0182825
0.0190818
0.0200016
0.0210076
0.0219683
0.0229166
0.0239753
0.0250617
0.0260994
0.0271613
0.0283238
0.0295313
0.0307592
0.0320201
0.0333036
0.0346496
0.0361111
0.0376605
0.0392195
0.0408355
0.0424994
0.0442151
0.0459506
0.0477866
0.0497115
0.0517101
0.053745
0.0558182
0.0580055
0.0602813
0.0627019
0.0651499
0.0676674
0.0702638
0.072942
0.0757471
0.0785441
0.0814947
0.0844085
0.0874417
0.0902236
0.0929339
0.0263327
0.0201731
0.015132
0.0141611
0.0151275
0.0161953
0.0169662
0.0175987
0.018294
0.0190923
0.0200114
0.0210153
0.0219742
0.0229218
0.0239796
0.0250648
0.0261021
0.027164
0.0283261
0.0295329
0.03076
0.032021
0.0333048
0.0346512
0.0361129
0.037662
0.0392203
0.0408361
0.0424999