/*--------------------------------*- C++ -*----------------------------------*\
| =========                 |                                                 |
| \\      /  F ield         | OpenFOAM: The Open Source CFD Toolbox           |
|  \\    /   O peration     | Version:  v2012                                 |
|   \\  /    A nd           | Website:  www.openfoam.com                      |
|    \\/     M anipulation  |                                                 |
\*---------------------------------------------------------------------------*/
FoamFile
{
    version     2.0;
    format      ascii;
    class       volVectorField;
    location    "4.3";
    object      U;
}
// * * * * * * * * * * * * * * * * * * * * * * * * * * * * * * * * * * * * * //

dimensions      [0 1 -1 0 0 0 0];


internalField   nonuniform List<vector> 
7000
(
(0.870363 -0.00187889 0)
(1.20105 0.0181878 0)
(0.649681 -0.0221181 0)
(1.24812 -0.022784 0)
(0.927647 -0.0190628 0)
(1.1521 -0.0020766 0)
(0.972516 0.00573934 0)
(1.15514 0.00556639 0)
(0.876376 0.0166157 0)
(1.18466 0.00217084 0)
(0.812431 -0.00177601 0)
(1.19667 -0.00696436 0)
(0.825142 -0.0122616 0)
(1.18357 -0.0104912 0)
(0.860941 -0.0163113 0)
(1.17245 -0.00933609 0)
(0.88426 -0.0115855 0)
(1.16159 -0.00406488 0)
(0.893644 -0.00425928 0)
(1.14595 0.00154469 0)
(0.877292 -0.00230516 0)
(1.18939 0.0191034 0)
(0.732026 -0.0227041 0)
(1.2144 -0.0242605 0)
(0.94367 -0.0187392 0)
(1.14588 -0.00220167 0)
(0.983533 0.00549304 0)
(1.14429 0.00659981 0)
(0.898275 0.016082 0)
(1.15577 0.00354341 0)
(0.860367 -0.00235908 0)
(1.15186 -0.00675116 0)
(0.883331 -0.0124003 0)
(1.13033 -0.0108554 0)
(0.921563 -0.0163306 0)
(1.11405 -0.00979811 0)
(0.952408 -0.0112232 0)
(1.09147 -0.00458361 0)
(0.976635 -0.0031594 0)
(1.05672 0.00114631 0)
(0.890602 -0.00265337 0)
(1.16763 0.020046 0)
(0.806098 -0.0229633 0)
(1.16693 -0.0250834 0)
(0.966022 -0.0184953 0)
(1.13034 -0.00238144 0)
(1.00455 0.00538074 0)
(1.12325 0.00761853 0)
(0.939114 0.0157117 0)
(1.11795 0.00412275 0)
(0.923853 -0.00260642 0)
(1.09934 -0.0068023 0)
(0.947818 -0.0122266 0)
(1.07096 -0.0114211 0)
(0.979806 -0.0160219 0)
(1.05481 -0.0105271 0)
(1.00537 -0.0105786 0)
(1.03837 -0.005319 0)
(1.01906 -0.00199981 0)
(1.01788 0.000963024 0)
(0.908595 -0.00291855 0)
(1.13807 0.0205454 0)
(0.871355 -0.02308 0)
(1.11439 -0.0257641 0)
(0.988844 -0.018459 0)
(1.10717 -0.00258924 0)
(1.02816 0.00540866 0)
(1.09845 0.00826278 0)
(0.983942 0.0156689 0)
(1.08574 0.00435331 0)
(0.977681 -0.00238292 0)
(1.05843 -0.00705608 0)
(0.991776 -0.0117064 0)
(1.0302 -0.0120164 0)
(1.00923 -0.0156021 0)
(1.02094 -0.0112512 0)
(1.02405 -0.0100745 0)
(1.01723 -0.00587248 0)
(1.02838 -0.0011882 0)
(1.00964 0.0010956 0)
(0.928699 -0.00312914 0)
(1.10479 0.0207206 0)
(0.923179 -0.0229963 0)
(1.0654 -0.0263046 0)
(1.00593 -0.0185608 0)
(1.08173 -0.00283593 0)
(1.04652 0.00546662 0)
(1.07715 0.00862241 0)
(1.01969 0.0157792 0)
(1.06552 0.00446079 0)
(1.01184 -0.00192785 0)
(1.03546 -0.00726143 0)
(1.01202 -0.0110724 0)
(1.01136 -0.012444 0)
(1.01529 -0.0152329 0)
(1.00804 -0.0118238 0)
(1.02296 -0.00980454 0)
(1.01253 -0.00627059 0)
(1.02527 -0.000695223 0)
(1.0115 0.00131674 0)
(0.948207 -0.00328024 0)
(1.07246 0.0207424 0)
(0.961238 -0.0227863 0)
(1.02698 -0.0267182 0)
(1.01375 -0.0187679 0)
(1.05931 -0.0031376 0)
(1.05599 0.00549339 0)
(1.06304 0.00880514 0)
(1.04143 0.0159073 0)
(1.05618 0.00456834 0)
(1.02861 -0.00138697 0)
(1.02616 -0.00730599 0)
(1.01742 -0.0104437 0)
(1.00559 -0.0126613 0)
(1.01123 -0.0148955 0)
(1.00376 -0.0122906 0)
(1.01541 -0.00967756 0)
(1.01104 -0.00666913 0)
(1.01911 -0.000427374 0)
(1.01333 0.00143971 0)
(0.964924 -0.00336931 0)
(1.0451 0.0206703 0)
(0.987377 -0.0225085 0)
(1.0021 -0.0269907 0)
(1.01264 -0.0190488 0)
(1.04231 -0.00349708 0)
(1.05747 0.00545387 0)
(1.05529 0.00886708 0)
(1.05111 0.0160081 0)
(1.05281 0.00470929 0)
(1.03474 -0.000806068 0)
(1.02336 -0.00721359 0)
(1.01682 -0.00982597 0)
(1.0044 -0.0127267 0)
(1.00555 -0.0145419 0)
(1.00097 -0.0126882 0)
(1.00752 -0.00960599 0)
(1.0079 -0.00710069 0)
(1.01264 -0.000325716 0)
(1.01196 0.00141722 0)
(0.977569 -0.00340805 0)
(1.02515 0.0205311 0)
(1.00443 -0.0222201 0)
(0.989594 -0.0271184 0)
(1.00582 -0.0193654 0)
(1.03004 -0.00389963 0)
(1.05396 0.00533381 0)
(1.05074 0.008846 0)
(1.05318 0.016079 0)
(1.05084 0.00487685 0)
(1.03582 -0.000197629 0)
(1.02225 -0.00704756 0)
(1.01493 -0.00919794 0)
(1.00392 -0.0127106 0)
(1.00121 -0.0141352 0)
(0.997882 -0.0130113 0)
(1.00107 -0.00953886 0)
(1.00307 -0.00751978 0)
(1.00646 -0.000329252 0)
(1.00782 0.00128745 0)
(0.98588 -0.00341458 0)
(1.01301 0.0203489 0)
(1.01515 -0.0219506 0)
(0.985804 -0.0271091 0)
(0.997219 -0.0196713 0)
(1.02051 -0.00435157 0)
(1.04814 0.00514179 0)
(1.04638 0.00876803 0)
(1.05125 0.0161331 0)
(1.04776 0.00504173 0)
(1.03477 0.000420964 0)
(1.0209 -0.00685425 0)
(1.0132 -0.00855525 0)
(1.0033 -0.0126547 0)
(0.998421 -0.0136588 0)
(0.994836 -0.0132536 0)
(0.996192 -0.00944553 0)
(0.997819 -0.0078787 0)
(1.0008 -0.000401623 0)
(1.00246 0.00110021 0)
(0.990435 -0.00340569 0)
(1.00734 0.0201372 0)
(1.02165 -0.0217077 0)
(0.986755 -0.0269851 0)
(0.989732 -0.0199261 0)
(1.01212 -0.0048437 0)
(1.04127 0.00490161 0)
(1.04059 0.00864689 0)
(1.04716 0.0161792 0)
(1.04278 0.00518448 0)
(1.03261 0.00102729 0)
(1.0189 -0.00665953 0)
(1.01174 -0.00791313 0)
(1.00264 -0.0125743 0)
(0.996702 -0.0131209 0)
(0.992334 -0.0134133 0)
(0.992605 -0.0093107 0)
(0.993116 -0.00814352 0)
(0.995857 -0.000496987 0)
(0.997151 0.000900097 0)
(0.992286 -0.00339335 0)
(1.00592 0.0198996 0)
(1.02535 -0.0214843 0)
(0.989488 -0.0267754 0)
(0.984554 -0.0201023 0)
(1.00421 -0.0053491 0)
(1.03358 0.0046388 0)
(1.03296 0.00848855 0)
(1.04145 0.0162199 0)
(1.0361 0.0052881 0)
(1.02953 0.0015961 0)
(1.01633 -0.00648283 0)
(1.01038 -0.00729261 0)
(1.002 -0.0124743 0)
(0.995669 -0.0125489 0)
(0.990562 -0.0134807 0)
(0.990053 -0.00913671 0)
(0.989322 -0.00829875 0)
(0.991716 -0.000617589 0)
(0.992478 0.0007136 0)
(0.992554 -0.00338364 0)
(1.00656 0.0196375 0)
(1.02714 -0.0212694 0)
(0.992369 -0.0265086 0)
(0.981569 -0.0201876 0)
(0.996853 -0.00583205 0)
(1.02502 0.00437694 0)
(1.02387 0.0082978 0)
(1.03423 0.0162503 0)
(1.0284 0.00533918 0)
(1.02559 0.00210474 0)
(1.01347 -0.00634122 0)
(1.00897 -0.00671112 0)
(1.0014 -0.0123612 0)
(0.995088 -0.0119725 0)
(0.989482 -0.0134478 0)
(0.988347 -0.00893876 0)
(0.986449 -0.00834326 0)
(0.988376 -0.000752524 0)
(0.988552 0.000557913 0)
(0.992134 -0.00337774 0)
(1.00772 0.0193541 0)
(1.0276 -0.0210541 0)
(0.994744 -0.0262083 0)
(0.980117 -0.0201827 0)
(0.990382 -0.00625972 0)
(1.01585 0.00413737 0)
(1.01406 0.00808109 0)
(1.02576 0.0162609 0)
(1.02056 0.00532552 0)
(1.02095 0.00253583 0)
(1.01061 -0.00624872 0)
(1.00744 -0.00618067 0)
(1.00081 -0.0122423 0)
(0.994795 -0.0114141 0)
(0.98895 -0.0133194 0)
(0.987313 -0.00872713 0)
(0.984393 -0.00827161 0)
(0.985758 -0.000853668 0)
(0.985296 0.000453281 0)
(0.991577 -0.00337428 0)
(1.00864 0.0190538 0)
(1.02717 -0.0208334 0)
(0.996471 -0.0258918 0)
(0.979556 -0.0200968 0)
(0.98509 -0.00661039 0)
(1.00675 0.00393713 0)
(1.00446 0.00784678 0)
(1.01669 0.0162399 0)
(1.01341 0.00523897 0)
(1.01597 0.00288166 0)
(1.008 -0.00621458 0)
(1.00581 -0.00571039 0)
(1.00025 -0.0121166 0)
(0.99465 -0.0108989 0)
(0.988784 -0.0130974 0)
(0.986763 -0.00850482 0)
(0.983026 -0.00808553 0)
(0.98376 -0.000908162 0)
(0.982638 0.000416871 0)
(0.991144 -0.0033714 0)
(1.00916 0.0187414 0)
(1.02621 -0.0206047 0)
(0.997597 -0.0255709 0)
(0.979468 -0.0199443 0)
(0.981141 -0.00687636 0)
(0.998524 0.00378643 0)
(0.995927 0.00760451 0)
(1.00786 0.0161758 0)
(1.00755 0.00507778 0)
(1.01111 0.00314582 0)
(1.0058 -0.00623919 0)
(1.00417 -0.00530655 0)
(0.999724 -0.0119777 0)
(0.994548 -0.0104481 0)
(0.988811 -0.0127891 0)
(0.986509 -0.00827202 0)
(0.982209 -0.00779761 0)
(0.982284 -0.00090871 0)
(0.980558 0.000460096 0)
(0.990913 -0.00336796 0)
(1.00937 0.0184207 0)
(1.02499 -0.0203657 0)
(0.998206 -0.0252528 0)
(0.979623 -0.0197413 0)
(0.978544 -0.00706239 0)
(0.991867 0.00368814 0)
(0.98904 0.00736392 0)
(1.00008 0.0160613 0)
(1.00319 0.00484739 0)
(1.00678 0.00333878 0)
(1.00402 -0.00631238 0)
(1.00267 -0.00497225 0)
(0.999259 -0.0118178 0)
(0.994441 -0.0100711 0)
(0.988907 -0.0124052 0)
(0.986406 -0.00803762 0)
(0.981798 -0.00742618 0)
(0.981253 -0.000853246 0)
(0.979054 0.000586157 0)
(0.990888 -0.00336359 0)
(1.00939 0.0180939 0)
(1.02371 -0.0201142 0)
(0.998387 -0.0249418 0)
(0.979904 -0.0195036 0)
(0.977168 -0.00718225 0)
(0.98713 0.00364003 0)
(0.984017 0.00713251 0)
(0.993839 0.0158969 0)
(1.00023 0.00455814 0)
(1.00324 0.00347172 0)
(1.00259 -0.00641775 0)
(1.00138 -0.00471288 0)
(0.99886 -0.0116213 0)
(0.994332 -0.00976763 0)
(0.989011 -0.0119581 0)
(0.986382 -0.00780496 0)
(0.981668 -0.00699584 0)
(0.980614 -0.00074009 0)
(0.978098 0.000787952 0)
(0.991052 -0.00335833 0)
(1.00926 0.0177625 0)
(1.02247 -0.0198481 0)
(0.998228 -0.0246396 0)
(0.980248 -0.0192458 0)
(0.976791 -0.00725445 0)
(0.984313 0.00363633 0)
(0.980776 0.00691657 0)
(0.989283 0.0156885 0)
(0.998346 0.00422445 0)
(1.00056 0.00356094 0)
(1.00144 -0.00653491 0)
(1.00034 -0.0045342 0)
(0.998506 -0.0113777 0)
(0.994243 -0.00952813 0)
(0.989106 -0.0114606 0)
(0.986422 -0.00756597 0)
(0.981729 -0.00652892 0)
(0.980323 -0.000578528 0)
(0.977624 0.00104275 0)
(0.991381 -0.00335216 0)
(1.00897 0.017427 0)
(1.02136 -0.0195655 0)
(0.997832 -0.024347 0)
(0.980618 -0.0189799 0)
(0.977158 -0.007299 0)
(0.983156 0.00366958 0)
(0.979062 0.00672144 0)
(0.986276 0.0154459 0)
(0.997194 0.00386578 0)
(0.998655 0.00361293 0)
(1.00049 -0.00664319 0)
(0.999518 -0.00443809 0)
(0.998159 -0.0110887 0)
(0.99419 -0.00934267 0)
(0.989192 -0.0109235 0)
(0.986546 -0.00732192 0)
(0.981923 -0.00604874 0)
(0.980339 -0.000374223 0)
(0.977542 0.00133367 0)
(0.991837 -0.00334485 0)
(1.00854 0.0170873 0)
(1.02038 -0.0192655 0)
(0.997314 -0.0240637 0)
(0.980992 -0.0187155 0)
(0.978018 -0.00733422 0)
(0.983269 0.00373187 0)
(0.978566 0.00655098 0)
(0.98456 0.0151804 0)
(0.996488 0.00349859 0)
(0.99736 0.00362622 0)
(0.999693 -0.00671911 0)
(0.998835 -0.00442599 0)
(0.99777 -0.0107542 0)
(0.994166 -0.00920771 0)
(0.98926 -0.0103628 0)
(0.986764 -0.00706422 0)
(0.982219 -0.00558231 0)
(0.980616 -0.000148097 0)
(0.97776 0.00164949 0)
(0.992371 -0.003336 0)
(1.008 0.0167434 0)
(1.01956 -0.0189477 0)
(0.996788 -0.0237887 0)
(0.981359 -0.0184596 0)
(0.979141 -0.00737398 0)
(0.984216 0.00381456 0)
(0.978978 0.00640708 0)
(0.983855 0.0149048 0)
(0.996045 0.00313791 0)
(0.996521 0.0036049 0)
(0.999022 -0.00673737 0)
(0.998243 -0.00449652 0)
(0.997307 -0.0103729 0)
(0.994145 -0.00911763 0)
(0.989297 -0.0097993 0)
(0.987064 -0.00678 0)
(0.982591 -0.00511918 0)
(0.981095 7.25657e-05 0)
(0.978203 0.00196259 0)
(0.992933 -0.00332518 0)
(1.00739 0.0163948 0)
(1.01886 -0.0186132 0)
(0.996352 -0.0235205 0)
(0.981717 -0.0182144 0)
(0.980315 -0.00742836 0)
(0.985567 0.00390852 0)
(0.979994 0.00628966 0)
(0.983906 0.0146301 0)
(0.99577 0.00279944 0)
(0.996024 0.00353593 0)
(0.998456 -0.00669013 0)
(0.997717 -0.00462922 0)
(0.996763 -0.00996343 0)
(0.994097 -0.00905426 0)
(0.989287 -0.00925487 0)
(0.987405 -0.00646828 0)
(0.983009 -0.0046568 0)
(0.981702 0.000295346 0)
(0.978801 0.00225315 0)
(0.993476 -0.003312 0)
(1.00677 0.0160406 0)
(1.01826 -0.0182631 0)
(0.996073 -0.0232579 0)
(0.98207 -0.0179786 0)
(0.981359 -0.00750101 0)
(0.986931 0.00400507 0)
(0.981325 0.00619308 0)
(0.984482 0.0143596 0)
(0.995629 0.00250566 0)
(0.995799 0.00341386 0)
(0.997992 -0.00658101 0)
(0.997266 -0.00480684 0)
(0.996164 -0.00953938 0)
(0.994 -0.00899567 0)
(0.989222 -0.00874221 0)
(0.987732 -0.00614768 0)
(0.983441 -0.00422352 0)
(0.982353 0.000536312 0)
(0.979487 0.00254624 0)
(0.993969 -0.0032961 0)
(1.00617 0.0156797 0)
(1.01772 -0.0178991 0)
(0.995979 -0.0229999 0)
(0.982424 -0.0177491 0)
(0.982143 -0.0075874 0)
(0.988005 0.00409542 0)
(0.982719 0.00611222 0)
(0.985386 0.0140891 0)
(0.99562 0.00226895 0)
(0.995815 0.00324739 0)
(0.997638 -0.0064091 0)
(0.996918 -0.00503158 0)
(0.995558 -0.00910326 0)
(0.993849 -0.00892081 0)
(0.989109 -0.0082593 0)
(0.987991 -0.00582925 0)
(0.983858 -0.0038247 0)
(0.982976 0.000760328 0)
(0.980198 0.00283057 0)
(0.994391 -0.00327708 0)
(1.00563 0.0153114 0)
(1.0172 -0.0175243 0)
(0.996066 -0.0227454 0)
(0.982783 -0.0175194 0)
(0.982602 -0.00768503 0)
(0.988614 0.00416904 0)
(0.983996 0.00603995 0)
(0.986461 0.0138172 0)
(0.995751 0.00208363 0)
(0.996052 0.00303042 0)
(0.997409 -0.00616203 0)
(0.996701 -0.00527635 0)
(0.995005 -0.00866529 0)
(0.993653 -0.00883937 0)
(0.988968 -0.00781165 0)
(0.988145 -0.0054851 0)
(0.984233 -0.00343967 0)
(0.983511 0.000944849 0)
(0.980886 0.00307372 0)
(0.994731 -0.00325486 0)
(1.00516 0.0149355 0)
(1.01668 -0.0171413 0)
(0.996308 -0.0224931 0)
(0.983144 -0.0172827 0)
(0.982731 -0.0077883 0)
(0.98872 0.00422728 0)
(0.985057 0.00595733 0)
(0.987598 0.0135244 0)
(0.996024 0.0019766 0)
(0.996491 0.0027482 0)
(0.997321 -0.00584843 0)
(0.996629 -0.00551093 0)
(0.994551 -0.00821505 0)
(0.993434 -0.00873656 0)
(0.988835 -0.00743294 0)
(0.988192 -0.00511895 0)
(0.984553 -0.00304212 0)
(0.983928 0.00110234 0)
(0.981518 0.00328575 0)
(0.994986 -0.00322998 0)
(1.00478 0.0145524 0)
(1.01618 -0.0167498 0)
(0.996661 -0.0222417 0)
(0.983497 -0.0170348 0)
(0.982577 -0.00787637 0)
(0.988394 0.00424553 0)
(0.985878 0.00588923 0)
(0.988716 0.0131646 0)
(0.996426 0.00194971 0)
(0.997087 0.00243392 0)
(0.997375 -0.0054965 0)
(0.996699 -0.00574778 0)
(0.994234 -0.00780549 0)
(0.993213 -0.00853966 0)
(0.988743 -0.00709897 0)
(0.988158 -0.00479775 0)
(0.984823 -0.00259507 0)
(0.984224 0.00125624 0)
(0.982078 0.003468 0)
(0.995157 -0.00320078 0)
(1.00448 0.0141573 0)
(1.01571 -0.0163502 0)
(0.997077 -0.0219931 0)
(0.983826 -0.01677 0)
(0.982211 -0.00793807 0)
(0.987773 0.00422186 0)
(0.986486 0.00579282 0)
(0.989756 0.0128176 0)
(0.996927 0.00190993 0)
(0.997781 0.00211903 0)
(0.997551 -0.00511717 0)
(0.996882 -0.00592511 0)
(0.994076 -0.00746173 0)
(0.993024 -0.00830921 0)
(0.988714 -0.00672768 0)
(0.988088 -0.00451597 0)
(0.985079 -0.00230777 0)
(0.984425 0.00143082 0)
(0.982569 0.00362981 0)
(0.995254 -0.00316817 0)
(1.00427 0.0137539 0)
(1.01529 -0.0159492 0)
(0.997506 -0.0217441 0)
(0.984114 -0.0164745 0)
(0.98172 -0.0080024 0)
(0.987008 0.00420414 0)
(0.98693 0.00563612 0)
(0.990666 0.01243 0)
(0.997471 0.00196564 0)
(0.998502 0.00176033 0)
(0.997819 -0.00471303 0)
(0.997137 -0.00604628 0)
(0.994065 -0.00707891 0)
(0.992889 -0.00804864 0)
(0.988776 -0.006331 0)
(0.987998 -0.00419942 0)
(0.985332 -0.00203024 0)
(0.984589 0.00153352 0)
(0.98299 0.00376051 0)
(0.995295 -0.00313644 0)
(1.00412 0.013345 0)
(1.01492 -0.0155384 0)
(0.997904 -0.0214863 0)
(0.984352 -0.0161754 0)
(0.981192 -0.00798202 0)
(0.986233 0.00402628 0)
(0.987256 0.00561585 0)
(0.991417 0.0118482 0)
(0.998002 0.00208126 0)
(0.999175 0.00137861 0)
(0.998134 -0.0042558 0)
(0.997426 -0.00619725 0)
(0.994183 -0.00666358 0)
(0.992817 -0.00779842 0)
(0.988932 -0.00596155 0)
(0.98796 -0.00384152 0)
(0.985591 -0.00145184 0)
(0.984737 0.00156524 0)
(0.983384 0.00383102 0)
(0.995299 -0.00309158 0)
(1.00402 0.0129057 0)
(1.01463 -0.0151143 0)
(0.998236 -0.0212385 0)
(0.984539 -0.0158309 0)
(0.980707 -0.00799262 0)
(0.985546 0.00392857 0)
(0.987514 0.00537749 0)
(0.991981 0.0114432 0)
(0.998472 0.00209985 0)
(0.999747 0.00102272 0)
(0.998449 -0.00385985 0)
(0.997697 -0.006191 0)
(0.994386 -0.00638757 0)
(0.992803 -0.00737443 0)
(0.989193 -0.00565059 0)
(0.98803 -0.00359804 0)
(0.98589 -0.00128366 0)
(0.984893 0.00171772 0)
(0.983765 0.0039373 0)
(0.99529 -0.00305659 0)
(1.00395 0.0124824 0)
(1.01439 -0.0147113 0)
(0.998481 -0.0209471 0)
(0.984685 -0.0155084 0)
(0.98034 -0.00790882 0)
(0.984997 0.00368732 0)
(0.987743 0.00527395 0)
(0.992382 0.0108217 0)
(0.998825 0.0022444 0)
(1.00018 0.000664946 0)
(0.998736 -0.00351232 0)
(0.99791 -0.00610275 0)
(0.994653 -0.00613806 0)
(0.992844 -0.00697273 0)
(0.989477 -0.00535772 0)
(0.98813 -0.00323169 0)
(0.986234 -0.000845925 0)
(0.985147 0.0019759 0)
(0.984124 0.00408267 0)
(0.995288 -0.00301691 0)
(1.00388 0.0120339 0)
(1.0142 -0.0142696 0)
(0.99863 -0.0206644 0)
(0.984819 -0.0151506 0)
(0.980114 -0.00780787 0)
(0.984635 0.00341137 0)
(0.987959 0.00517264 0)
(0.992627 0.0101717 0)
(0.999075 0.00233135 0)
(1.00046 0.000355398 0)
(0.998951 -0.00331839 0)
(0.998055 -0.00584447 0)
(0.994905 -0.00601032 0)
(0.992919 -0.00646863 0)
(0.989849 -0.00516051 0)
(0.988403 -0.00294625 0)
(0.986617 -0.000554335 0)
(0.9854 0.00229829 0)
(0.984487 0.00426169 0)
(0.995309 -0.0029506 0)
(1.00379 0.0115319 0)
(1.01402 -0.0138119 0)
(0.998693 -0.0204031 0)
(0.984955 -0.014751 0)
(0.980067 -0.00775933 0)
(0.984438 0.00324764 0)
(0.988194 0.00484444 0)
(0.992782 0.00974854 0)
(0.999186 0.00229936 0)
(1.00059 0.000132401 0)
(0.999103 -0.00304286 0)
(0.998121 -0.00571802 0)
(0.995145 -0.00572678 0)
(0.993017 -0.00601861 0)
(0.990156 -0.00474846 0)
(0.988674 -0.00258952 0)
(0.987072 -0.000493418 0)
(0.985794 0.00255315 0)
(0.98483 0.00443411 0)
(0.995363 -0.00292466 0)
(1.00368 0.011104 0)
(1.01383 -0.0134183 0)
(0.998687 -0.0200237 0)
(0.985124 -0.0144737 0)
(0.98017 -0.00748463 0)
(0.984418 0.0027361 0)
(0.988447 0.00489592 0)
(0.992863 0.00885889 0)
(0.9992 0.00255591 0)
(1.00064 -0.000357196 0)
(0.999131 -0.0024548 0)
(0.998126 -0.00580836 0)
(0.995325 -0.0052756 0)
(0.993123 -0.00587131 0)
(0.990499 -0.00394309 0)
(0.988982 -0.00210207 0)
(0.987479 0.000263005 0)
(0.986183 0.00231994 0)
(0.985203 0.00425776 0)
(0.995445 -0.00286751 0)
(1.00354 0.0106007 0)
(1.0136 -0.0129449 0)
(0.998647 -0.0196894 0)
(0.985317 -0.0141112 0)
(0.980423 -0.00735608 0)
(0.984541 0.00249112 0)
(0.988715 0.00460676 0)
(0.992927 0.00832026 0)
(0.999127 0.00253135 0)
(1.0006 -0.000493422 0)
(0.999107 -0.00248248 0)
(0.998057 -0.00532816 0)
(0.995448 -0.00516056 0)
(0.99327 -0.00526823 0)
(0.990846 -0.00376574 0)
(0.989356 -0.00190127 0)
(0.987871 0.000225401 0)
(0.98653 0.00269725 0)
(0.985638 0.00450459 0)
(0.995557 -0.00279361 0)
(1.00338 0.0100576 0)
(1.01334 -0.012454 0)
(0.998585 -0.0193975 0)
(0.985546 -0.0137222 0)
(0.980793 -0.00721681 0)
(0.984776 0.00221989 0)
(0.98902 0.00429801 0)
(0.992971 0.00790588 0)
(0.999004 0.00231205 0)
(1.0005 -0.000402455 0)
(0.999017 -0.00249665 0)
(0.997963 -0.00498925 0)
(0.995529 -0.00497179 0)
(0.993349 -0.00463746 0)
(0.991094 -0.00353371 0)
(0.989657 -0.0015392 0)
(0.98836 0.000227867 0)
(0.987048 0.00317608 0)
(0.985982 0.00483536 0)
(0.995696 -0.0027667 0)
(1.0032 0.00962673 0)
(1.01302 -0.0120873 0)
(0.998516 -0.0189079 0)
(0.985821 -0.0135175 0)
(0.981232 -0.00686991 0)
(0.985117 0.00165828 0)
(0.989329 0.00431672 0)
(0.993035 0.00698574 0)
(0.998825 0.00264337 0)
(1.0004 -0.00116663 0)
(0.998861 -0.00172174 0)
(0.997845 -0.00515482 0)
(0.995597 -0.00446349 0)
(0.993469 -0.00433588 0)
(0.991338 -0.00253283 0)
(0.989979 -0.00110507 0)
(0.988778 0.00114538 0)
(0.987494 0.00268021 0)
(0.986381 0.00451529 0)
(0.995844 -0.00269882 0)
(1.00301 0.00909563 0)
(1.01265 -0.0115906 0)
(0.998466 -0.0185293 0)
(0.986122 -0.0131931 0)
(0.981728 -0.00668803 0)
(0.985525 0.0013747 0)
(0.989646 0.00397201 0)
(0.99311 0.00658614 0)
(0.998604 0.00239673 0)
(1.00029 -0.00100453 0)
(0.998707 -0.00190508 0)
(0.997682 -0.00456179 0)
(0.995648 -0.00437536 0)
(0.993626 -0.00392284 0)
(0.991621 -0.00247604 0)
(0.990343 -0.000871182 0)
(0.989119 0.000978758 0)
(0.987816 0.00312673 0)
(0.986848 0.00486051 0)
(0.996001 -0.00260937 0)
(1.00282 0.00853028 0)
(1.01224 -0.0111075 0)
(0.998435 -0.0181676 0)
(0.986444 -0.0128481 0)
(0.982258 -0.00655686 0)
(0.985968 0.00118795 0)
(0.989993 0.00349812 0)
(0.993176 0.00634383 0)
(0.998403 0.00210678 0)
(1.00013 -0.000872901 0)
(0.998529 -0.00204993 0)
(0.997551 -0.00390457 0)
(0.995672 -0.00431534 0)
(0.993728 -0.00344006 0)
(0.991835 -0.002347 0)
(0.990614 -0.000548411 0)
(0.989637 0.000921242 0)
(0.988422 0.00366291 0)
(0.987198 0.00529467 0)
(0.996171 -0.00259986 0)
(1.00261 0.00813062 0)
(1.01181 -0.0107926 0)
(0.998409 -0.0175581 0)
(0.986802 -0.0127701 0)
(0.982783 -0.00611411 0)
(0.98645 0.000568531 0)
(0.990322 0.00355746 0)
(0.993271 0.00539066 0)
(0.998135 0.00250218 0)
(1.00001 -0.0017126 0)
(0.998389 -0.0013437 0)
(0.99739 -0.00405684 0)
(0.995683 -0.00359351 0)
(0.993886 -0.00323878 0)
(0.992066 -0.0011947 0)
(0.990921 -0.000109638 0)
(0.990038 0.00202782 0)
(0.988877 0.00300355 0)
(0.987625 0.00481754 0)
(0.996334 -0.00249721 0)
(1.00242 0.0075372 0)
(1.01134 -0.0102682 0)
(0.99841 -0.017172 0)
(0.987173 -0.0124305 0)
(0.983318 -0.00602907 0)
(0.986937 0.000423877 0)
(0.990642 0.00304636 0)
(0.993357 0.00515855 0)
(0.99788 0.00219992 0)
(0.999877 -0.00153916 0)
(0.99824 -0.00156843 0)
(0.997263 -0.00349127 0)
(0.995744 -0.00347747 0)
(0.994121 -0.00289595 0)
(0.992398 -0.00127569 0)
(0.991302 0.000134721 0)
(0.990353 0.00186115 0)
(0.989169 0.00349 0)
(0.988115 0.00517778 0)
(0.996493 -0.00243085 0)
(1.00225 0.00703366 0)
(1.01085 -0.00987946 0)
(0.998429 -0.0166794 0)
(0.98755 -0.0121732 0)
(0.983862 -0.00586406 0)
(0.987398 0.000278318 0)
(0.990991 0.0024892 0)
(0.993433 0.00496314 0)
(0.99762 0.00193113 0)
(0.999717 -0.00127294 0)
(0.998148 -0.00174139 0)
(0.997115 -0.00286311 0)
(0.995744 -0.00358722 0)
(0.994244 -0.00257349 0)
(0.992642 -0.00132502 0)
(0.991596 0.000556448 0)
(0.990884 0.00194607 0)
(0.989813 0.00439991 0)
(0.98848 0.00584752 0)
(0.996668 -0.00241678 0)
(1.00206 0.00663573 0)
(1.01037 -0.00956345 0)
(0.998439 -0.0160565 0)
(0.987963 -0.012062 0)
(0.984377 -0.00554356 0)
(0.987862 -0.000146361 0)
(0.991308 0.00239903 0)
(0.993527 0.00422357 0)
(0.997372 0.0021988 0)
(0.999554 -0.00158216 0)
(0.998046 -0.00147514 0)
(0.996989 -0.00271313 0)
(0.995774 -0.00300094 0)
(0.994491 -0.00243671 0)
(0.993 -0.000657102 0)
(0.991996 0.000823859 0)
(0.991351 0.00260902 0)
(0.990284 0.00400088 0)
(0.988853 0.00539854 0)
(0.996836 -0.00228428 0)
(1.00189 0.00604181 0)
(1.00988 -0.00911437 0)
(0.998456 -0.0155915 0)
(0.988381 -0.0117595 0)
(0.984898 -0.00549438 0)
(0.988299 -0.000240123 0)
(0.991608 0.00191323 0)
(0.99362 0.00391041 0)
(0.997112 0.00211992 0)
(0.999394 -0.00157174 0)
(0.99801 -0.00133433 0)
(0.996902 -0.0022529 0)
(0.995785 -0.00253221 0)
(0.994701 -0.00214255 0)
(0.993346 -0.000449826 0)
(0.992395 0.000996507 0)
(0.991765 0.00257034 0)
(0.99069 0.00378049 0)
(0.989274 0.00511271 0)
(0.997001 -0.0022663 0)
(1.00173 0.00563655 0)
(1.0094 -0.00878401 0)
(0.998477 -0.015044 0)
(0.988804 -0.0115306 0)
(0.985418 -0.00533491 0)
(0.988704 -0.000445017 0)
(0.991904 0.00159903 0)
(0.99372 0.00347751 0)
(0.996875 0.00212098 0)
(0.999236 -0.00137093 0)
(0.997981 -0.00131835 0)
(0.996819 -0.00191406 0)
(0.995803 -0.00214659 0)
(0.994923 -0.00186263 0)
(0.993725 -0.000246005 0)
(0.992774 0.00122136 0)
(0.99217 0.00264355 0)
(0.99113 0.00384374 0)
(0.989691 0.00500858 0)
(0.997163 -0.0021915 0)
(1.00157 0.00517419 0)
(1.00892 -0.00845854 0)
(0.998493 -0.0144742 0)
(0.989236 -0.0112666 0)
(0.985936 -0.00526882 0)
(0.989102 -0.000586246 0)
(0.992178 0.00131873 0)
(0.993823 0.00303965 0)
(0.996658 0.00215875 0)
(0.999049 -0.00128537 0)
(0.997977 -0.00133078 0)
(0.996792 -0.00155684 0)
(0.995818 -0.0017178 0)
(0.995125 -0.00157852 0)
(0.994103 -9.46705e-05 0)
(0.993183 0.00137257 0)
(0.992581 0.00272897 0)
(0.991515 0.00386278 0)
(0.990084 0.00481854 0)
(0.997323 -0.00209831 0)
(1.00142 0.00468774 0)
(1.00845 -0.00811762 0)
(0.998515 -0.0139723 0)
(0.989657 -0.010941 0)
(0.986454 -0.00526607 0)
(0.98948 -0.000653748 0)
(0.992448 0.000935132 0)
(0.993947 0.00273433 0)
(0.996456 0.00208061 0)
(0.998867 -0.00112225 0)
(0.998002 -0.00127944 0)
(0.996783 -0.00126985 0)
(0.995828 -0.00139468 0)
(0.995311 -0.00123546 0)
(0.994488 2.75559e-05 0)
(0.993583 0.00153946 0)
(0.992982 0.00273613 0)
(0.991896 0.00386962 0)
(0.990445 0.00466604 0)
(0.997481 -0.00208838 0)
(1.00128 0.0043219 0)
(1.00799 -0.00780948 0)
(0.998528 -0.0134706 0)
(0.990082 -0.0106202 0)
(0.986971 -0.00519923 0)
(0.989852 -0.000808016 0)
(0.992707 0.000740123 0)
(0.994077 0.00234899 0)
(0.996275 0.00205079 0)
(0.998679 -0.000943543 0)
(0.998026 -0.00126427 0)
(0.996809 -0.0010907 0)
(0.995864 -0.00101273 0)
(0.995488 -0.000885943 0)
(0.994859 0.000174141 0)
(0.993994 0.00160143 0)
(0.993376 0.00280255 0)
(0.99225 0.00385505 0)
(0.990794 0.00457176 0)
(0.997637 -0.00197411 0)
(1.00114 0.00385182 0)
(1.00755 -0.0075249 0)
(0.998552 -0.0129642 0)
(0.990494 -0.0102007 0)
(0.987478 -0.00522222 0)
(0.990216 -0.000913696 0)
(0.992958 0.000465514 0)
(0.994222 0.00201633 0)
(0.996127 0.00198825 0)
(0.998484 -0.000733962 0)
(0.99806 -0.00125153 0)
(0.996876 -0.000879634 0)
(0.995914 -0.000686887 0)
(0.995634 -0.00053771 0)
(0.995198 0.000270256 0)
(0.994407 0.00167094 0)
(0.993782 0.00279643 0)
(0.992603 0.00386112 0)
(0.991128 0.00452684 0)
(0.997789 -0.00194445 0)
(1.00101 0.0034601 0)
(1.00712 -0.00717765 0)
(0.998572 -0.0125254 0)
(0.990895 -0.00986115 0)
(0.987984 -0.00516577 0)
(0.990578 -0.00101423 0)
(0.993206 0.000261529 0)
(0.994383 0.00170201 0)
(0.996002 0.00187487 0)
(0.998286 -0.000541987 0)
(0.998092 -0.00122014 0)
(0.99697 -0.000738856 0)
(0.995986 -0.000416828 0)
(0.995767 -0.000215813 0)
(0.995524 0.000429409 0)
(0.994822 0.00175684 0)
(0.99419 0.00282111 0)
(0.992969 0.00384132 0)
(0.99144 0.00450009 0)
(0.997938 -0.00187187 0)
(1.00088 0.00307725 0)
(1.00669 -0.00693479 0)
(0.99859 -0.0120723 0)
(0.991297 -0.00943535 0)
(0.988486 -0.00506233 0)
(0.990936 -0.00114933 0)
(0.993446 5.18185e-05 0)
(0.994547 0.00136956 0)
(0.995909 0.0017792 0)
(0.998092 -0.000332383 0)
(0.998119 -0.00113864 0)
(0.997096 -0.000619335 0)
(0.996083 -0.000151749 0)
(0.995897 0.000100242 0)
(0.995823 0.000631167 0)
(0.995226 0.00177884 0)
(0.994588 0.00279975 0)
(0.993329 0.00376677 0)
(0.991755 0.00446309 0)
(0.998086 -0.00180824 0)
(1.00075 0.00267977 0)
(1.00628 -0.00663596 0)
(0.998619 -0.0116211 0)
(0.991688 -0.00906834 0)
(0.988974 -0.00498402 0)
(0.991283 -0.00126083 0)
(0.993682 -0.000133205 0)
(0.994733 0.00108324 0)
(0.995849 0.00166092 0)
(0.997902 -0.000149411 0)
(0.998135 -0.00105508 0)
(0.99724 -0.000548733 0)
(0.996207 6.39236e-05 0)
(0.996022 0.000389135 0)
(0.996081 0.000832958 0)
(0.995598 0.00179538 0)
(0.994989 0.00280267 0)
(0.993721 0.00373433 0)
(0.992069 0.00443893 0)
(0.998228 -0.001765 0)
(1.00064 0.0023373 0)
(1.00588 -0.0063691 0)
(0.998635 -0.011211 0)
(0.992078 -0.0087178 0)
(0.989466 -0.00483743 0)
(0.991634 -0.00134687 0)
(0.993912 -0.000289808 0)
(0.994916 0.000787458 0)
(0.995815 0.00150258 0)
(0.99772 1.9389e-05 0)
(0.998137 -0.00091338 0)
(0.997407 -0.000494249 0)
(0.996365 0.000267872 0)
(0.996157 0.000643385 0)
(0.996313 0.00105691 0)
(0.995966 0.00185075 0)
(0.995398 0.00282892 0)
(0.994098 0.00366754 0)
(0.992375 0.00436287 0)
(0.998368 -0.00168801 0)
(1.00053 0.00197322 0)
(1.00549 -0.00613516 0)
(0.998668 -0.0107703 0)
(0.992467 -0.00834222 0)
(0.989942 -0.00469853 0)
(0.991967 -0.00144601 0)
(0.994132 -0.000454934 0)
(0.995114 0.000522415 0)
(0.995822 0.00135957 0)
(0.997562 0.000195972 0)
(0.998125 -0.000744629 0)
(0.997576 -0.000456135 0)
(0.996547 0.000432752 0)
(0.996294 0.00085586 0)
(0.99652 0.00128076 0)
(0.996294 0.00192205 0)
(0.995776 0.00280795 0)
(0.994472 0.00357408 0)
(0.992685 0.00427343 0)
(0.998501 -0.00165374 0)
(1.00043 0.00165435 0)
(1.00512 -0.0058726 0)
(0.998689 -0.0103492 0)
(0.992848 -0.00806228 0)
(0.990415 -0.00454001 0)
(0.992304 -0.0014949 0)
(0.994351 -0.000558815 0)
(0.995313 0.000292456 0)
(0.995856 0.00118956 0)
(0.997415 0.000305405 0)
(0.99809 -0.000572549 0)
(0.997755 -0.000437916 0)
(0.99676 0.000548168 0)
(0.996455 0.0010373 0)
(0.996715 0.0014983 0)
(0.996592 0.00201236 0)
(0.996142 0.00280863 0)
(0.994844 0.0035141 0)
(0.993003 0.00419628 0)
(0.998631 -0.00157379 0)
(1.00033 0.00132694 0)
(1.00475 -0.00566864 0)
(0.998719 -0.00993539 0)
(0.993233 -0.00774497 0)
(0.990884 -0.00436524 0)
(0.992625 -0.00153298 0)
(0.994556 -0.000664651 0)
(0.995514 9.41626e-05 0)
(0.995919 0.0010172 0)
(0.997304 0.000407135 0)
(0.998049 -0.000338579 0)
(0.997922 -0.000381775 0)
(0.996998 0.000633154 0)
(0.996631 0.00121448 0)
(0.996898 0.00167351 0)
(0.996854 0.00211682 0)
(0.996477 0.00279751 0)
(0.995206 0.00344166 0)
(0.993311 0.00408122 0)
(0.998755 -0.00154967 0)
(1.00024 0.00106067 0)
(1.0044 -0.00546045 0)
(0.998743 -0.00948965 0)
(0.99361 -0.00752465 0)
(0.991343 -0.0041657 0)
(0.992949 -0.00157669 0)
(0.994764 -0.000739486 0)
(0.995714 -9.16481e-05 0)
(0.996008 0.000852682 0)
(0.997222 0.000458319 0)
(0.99799 -0.000126062 0)
(0.998072 -0.000325778 0)
(0.997259 0.000675714 0)
(0.996826 0.00134035 0)
(0.997074 0.00181731 0)
(0.99709 0.00222483 0)
(0.996784 0.00280371 0)
(0.995547 0.00338312 0)
(0.993617 0.00397031 0)
(0.998875 -0.00147375 0)
(1.00015 0.000756127 0)
(1.00406 -0.00523215 0)
(0.998769 -0.00915604 0)
(0.993993 -0.0072013 0)
(0.991806 -0.00409555 0)
(0.993248 -0.00150226 0)
(0.994951 -0.000738266 0)
(0.995908 -0.000236968 0)
(0.996117 0.000684869 0)
(0.997174 0.000470679 0)
(0.997936 7.86071e-05 0)
(0.998203 -0.00021779 0)
(0.997534 0.000679824 0)
(0.997046 0.00144842 0)
(0.997259 0.00194508 0)
(0.997306 0.00234498 0)
(0.99706 0.00282129 0)
(0.995868 0.00333578 0)
(0.993912 0.00385859 0)
(0.998988 -0.00142845 0)
(1.00007 0.000492708 0)
(1.00374 -0.00502106 0)
(0.998799 -0.00877633 0)
(0.994359 -0.00692775 0)
(0.99226 -0.00405921 0)
(0.993583 -0.00141154 0)
(0.995139 -0.000690155 0)
(0.996095 -0.0003355 0)
(0.996245 0.00055529 0)
(0.997163 0.000472887 0)
(0.997887 0.000272249 0)
(0.998301 -7.57274e-05 0)
(0.997814 0.000670446 0)
(0.997293 0.00152309 0)
(0.997448 0.0020447 0)
(0.997503 0.00244665 0)
(0.9973 0.00284398 0)
(0.996155 0.00329188 0)
(0.99419 0.00374642 0)
(0.999096 -0.00138904 0)
(0.999995 0.000271094 0)
(1.00343 -0.00483236 0)
(0.998823 -0.00836568 0)
(0.994719 -0.00675061 0)
(0.992725 -0.00384355 0)
(0.993909 -0.00139496 0)
(0.995315 -0.000720431 0)
(0.996275 -0.000450375 0)
(0.996384 0.00042165 0)
(0.99718 0.000437653 0)
(0.997852 0.000427787 0)