/*--------------------------------*- C++ -*----------------------------------*\
| =========                 |                                                 |
| \\      /  F ield         | OpenFOAM: The Open Source CFD Toolbox           |
|  \\    /   O peration     | Version:  v2012                                 |
|   \\  /    A nd           | Website:  www.openfoam.com                      |
|    \\/     M anipulation  |                                                 |
\*---------------------------------------------------------------------------*/
FoamFile
{
    version     2.0;
    format      ascii;
    class       volScalarField;
    location    "5.1";
    object      p;
}
// * * * * * * * * * * * * * * * * * * * * * * * * * * * * * * * * * * * * * //

dimensions      [0 2 -2 0 0 0 0];


internalField   nonuniform List<scalar> 
7000
(
4.00989e-10
-0.00165433
0.00417632
0.00664379
0.00746236
0.00947385
0.00902882
0.0103483
0.0097621
0.0111523
0.0112853
0.013054
0.0138681
0.0174269
0.0179367
0.0204731
0.0215917
0.0243157
0.0266279
0.0320677
-8.84645e-07
-0.00157924
0.00417564
0.00664062
0.00746335
0.00946605
0.00903051
0.0103533
0.00976434
0.011154
0.0112961
0.0130427
0.01388
0.0173838
0.0179397
0.0204462
0.0215876
0.0242866
0.0266148
0.0316295
-1.05926e-06
-0.00150527
0.00417102
0.00663587
0.00746177
0.00946613
0.00903566
0.0103543
0.00977189
0.011152
0.0113096
0.0130197
0.0138921
0.0173223
0.0179465
0.0204023
0.0215859
0.0242434
0.026582
0.0311411
-3.44582e-07
-0.00143308
0.00416533
0.00663443
0.00745917
0.00947477
0.00904369
0.0103536
0.00978567
0.0111455
0.0113268
0.012985
0.0139001
0.0172538
0.0179498
0.020358
0.0215864
0.024197
0.0265358
0.0306588
1.7041e-06
-0.00136189
0.00416131
0.00663634
0.00745727
0.00949005
0.00905435
0.0103512
0.0098043
0.0111371
0.0113488
0.0129415
0.0139112
0.0171794
0.0179548
0.0203125
0.021591
0.0241437
0.026475
0.0302072
5.478e-06
-0.00129103
0.00415996
0.00664003
0.00745698
0.00951005
0.00906729
0.0103478
0.00982646
0.0111295
0.0113745
0.0128945
0.0139282
0.0170996
0.0179648
0.020262
0.021601
0.0240814
0.0264006
0.0297853
1.10865e-05
-0.00121956
0.00416167
0.00664459
0.00745843
0.00953295
0.00908229
0.0103432
0.0098513
0.0111243
0.0114029
0.0128474
0.0139503
0.0170152
0.017978
0.0202063
0.0216139
0.0240095
0.0263112
0.0293859
1.84114e-05
-0.00114613
0.0041669
0.00664955
0.00746074
0.00955725
0.00909922
0.0103374
0.00987863
0.0111216
0.0114339
0.0128009
0.013977
0.0169262
0.0179923
0.0201459
0.0216256
0.02393
0.0262046
0.0290047
2.72378e-05
-0.00106924
0.00417621
0.00665457
0.00746257
0.00958184
0.00911802
0.0103303
0.00990854
0.0111213
0.011468
0.0127552
0.0140087
0.0168323
0.018007
0.0200813
0.021633
0.0238456
0.0260798
0.0286392
3.73649e-05
-0.000987631
0.00418997
0.00665943
0.00746287
0.00960595
0.00913867
0.0103217
0.00994101
0.0111232
0.0115056
0.0127107
0.0140461
0.0167338
0.0180218
0.0200136
0.0216337
0.0237572
0.0259367
0.0282872
4.86563e-05
-0.000900654
0.00420814
0.0066641
0.00746122
0.00962909
0.00916123
0.0103116
0.00997587
0.0111271
0.0115466
0.0126688
0.0140895
0.0166318
0.0180361
0.0199439
0.0216252
0.023665
0.0257763
0.027946
6.10282e-05
-0.000808323
0.00423027
0.0066686
0.00745788
0.009651
0.00918583
0.0102999
0.0100129
0.0111325
0.0115911
0.0126309
0.014139
0.0165278
0.0180489
0.0198737
0.0216056
0.0235682
0.0256
0.0276127
7.44262e-05
-0.000711209
0.00425559
0.0066729
0.00745355
0.0096715
0.00921259
0.0102865
0.0100518
0.0111394
0.0116389
0.0125984
0.0141944
0.0164239
0.0180592
0.0198044
0.0215733
0.0234662
0.0254095
0.0272847
8.88119e-05
-0.000610138
0.00428321
0.00667687
0.00744901
0.00969036
0.00924162
0.0102713
0.0100925
0.0111475
0.0116898
0.0125724
0.0142546
0.0163222
0.0180657
0.019737
0.0215278
0.0233578
0.0252067
0.0269599
0.000104168
-0.000505903
0.00431238
0.00668033
0.0074449
0.0097073
0.00927297
0.0102544
0.0101348
0.0111565
0.0117436
0.0125532
0.0143187
0.0162251
0.0180669
0.0196725
0.0214686
0.023242
0.0249936
0.026637
0.0001205
-0.000399079
0.00434261
0.00668311
0.0074416
0.00972199
0.00930663
0.0102356
0.0101786
0.0111664
0.0118002
0.012541
0.0143854
0.0161351
0.0180617
0.0196114
0.0213961
0.0231177
0.0247721
0.026315
0.000137843
-0.000290001
0.0043737
0.00668506
0.00743928
0.00973413
0.0093426
0.0102149
0.0102235
0.0111771
0.0118591
0.0125355
0.0144531
0.016054
0.0180487
0.0195537
0.0213108
0.0229838
0.0245434
0.0259935
0.000156255
-0.000178816
0.00440564
0.00668612
0.00743802
0.00974349
0.00938087
0.0101922
0.0102693
0.0111884
0.0119199
0.0125363
0.0145197
0.015983
0.018027
0.0194988
0.0212137
0.0228397
0.024309
0.0256725
0.000175818
-6.55738e-05
0.00443856
0.00668628
0.00743789
0.00974997
0.00942145
0.0101677
0.0103159
0.0112002
0.0119821
0.0125433
0.0145827
0.0159226
0.0179962
0.0194459
0.0211056
0.0226848
0.0240701
0.0253524
0.000196631
4.97081e-05
0.00447259
0.00668556
0.00743899
0.00975352
0.00946436
0.0101413
0.010363
0.0112125
0.0120445
0.0125562
0.0146397
0.0158726
0.0179555
0.0193939
0.020988
0.0225184
0.0238268
0.0250336
0.000218806
0.000167011
0.00450792
0.00668397
0.00744147
0.00975417
0.00950963
0.0101132
0.0104101
0.0112258
0.0121059
0.0125744
0.0146891
0.015832
0.0179041
0.0193409
0.0208627
0.0223408
0.0235791
0.0247164
0.000242462
0.000286301
0.00454469
0.00668154
0.00744548
0.00975199
0.00955717
0.0100839
0.0104566
0.0112406
0.0121649
0.0125972
0.0147292
0.0157999
0.0178424
0.0192842
0.0207296
0.0221529
0.0233284
0.0244014
0.000267724
0.000407532
0.00458308
0.00667829
0.00745118
0.00974712
0.00960688
0.0100537
0.0105021
0.0112578
0.0122203
0.0126242
0.0147586
0.0157744
0.0177718
0.0192223
0.0205881
0.0219537
0.0230757
0.0240906
0.000294719
0.000530639
0.00462323
0.00667422
0.0074587
0.0097396
0.00965874
0.0100231
0.0105457
0.0112786
0.0122705
0.012655
0.0147773
0.0157527
0.0176929
0.0191546
0.0204413
0.021744
0.0228182
0.0237836
0.00032358
0.000655539
0.0046653
0.00666929
0.00746821
0.0097295
0.00971244
0.00999308
0.010586
0.0113044
0.0123152
0.0126891
0.0147854
0.0157334
0.017606
0.0190772
0.0202896
0.0215286
0.0225583
0.0234775
0.000354443
0.000782124
0.00470945
0.00666348
0.00747979
0.00971707
0.00976743
0.0099647
0.0106222
0.0113356
0.012354
0.0127262
0.0147834
0.0157144
0.017514
0.0189909
0.0201279
0.0213036
0.0223014
0.0231764
0.000387452
0.000910264
0.00475579
0.00665681
0.00749346
0.00970235
0.00982353
0.00993876
0.0106529
0.0113731
0.0123864
0.0127658
0.0147728
0.0156926
0.017415
0.0188982
0.0199626
0.0210654
0.0220404
0.0228828
0.000422765
0.0010398
0.00480443
0.00664924
0.00750946
0.00968534
0.00987997
0.00991693
0.0106771
0.0114166
0.0124138
0.0128056
0.0147558
0.0156674
0.0173098
0.018794
0.0197959
0.0208245
0.021773
0.02259
0.000460548
0.00117055
0.00485557
0.00664071
0.00752764
0.00966694
0.00993533
0.00990025
0.0106949
0.0114654
0.0124365
0.0128452
0.0147337
0.015636
0.0171999
0.0186806
0.0196266
0.0205815
0.0214977
0.0222988
0.000500974
0.00130232
0.00490922
0.00663146
0.00754769
0.00964763
0.00998934
0.00988927
0.0107051
0.0115207
0.0124537
0.0128838
0.0147075
0.0156002
0.0170815
0.0185534
0.0194591
0.0203357
0.021222
0.022008
0.000544251
0.00143491
0.00496554
0.00662136
0.00756992
0.00962781
0.0100406
0.00988567
0.0107077
0.0115799
0.0124692
0.012917
0.0146775
0.0155631
0.0169557
0.018413
0.0192817
0.0200841
0.0209574
0.0217228
0.000590499
0.00156819
0.00502461
0.00661063
0.0075937
0.00960884
0.0100881
0.00988897
0.0107046
0.0116406
0.0124854
0.0129428
0.0146469
0.015519
0.0168252
0.0182704
0.0190952
0.0198195
0.0206738
0.0214494
0.000639949
0.00170187
0.00508641
0.00659983
0.00761853
0.00959095
0.0101324
0.0098978
0.0106957
0.0117032
0.0125024
0.0129584
0.0146187
0.0154703
0.0166871
0.0181098
0.0189166
0.0195572
0.0203697
0.021174
0.000692977
0.00183558
0.00515129
0.00658868
0.00764474
0.00957517
0.0101715
0.0099143
0.0106815
0.0117639
0.012526
0.012961
0.0145897
0.0154206
0.0165432
0.0179389
0.0187331
0.0192956
0.0200286
0.0209014
0.000749491
0.00196957
0.00521874
0.00657818
0.00767018
0.00956363
0.0102044
0.00993854
0.0106618
0.0118229
0.0125536
0.0129605
0.0145474
0.01537
0.0163941
0.0177382
0.0185288
0.0190387
0.0197468
0.0206408
0.000809743
0.0021033
0.0052889
0.00656876
0.00769502
0.00955576
0.0102329
0.0099663
0.010641
0.0118779
0.0125844
0.0129553
0.014494
0.0153186
0.016232
0.0175127
0.0183186
0.0187953
0.0195016
0.0203791
0.000874373
0.00223624
0.00536225
0.00656007
0.00772086
0.00955096
0.0102568
0.00999842
0.010622
0.0119216
0.0126246
0.0129372
0.0144359
0.0152639
0.0160721
0.0172867
0.0181091
0.0185661
0.0191667
0.0201071
0.00094301
0.00236918
0.00543759
0.00655396
0.00774256
0.00955309
0.0102739
0.0100357
0.0106013
0.0119617
0.0126645
0.0129198
0.0143628
0.0151909
0.0159071
0.0170513
0.0178859
0.0183447
0.0189123
0.0198435
0.00101596
0.00250133
0.005515
0.00655102
0.00776157
0.00955941
0.0102882
0.0100729
0.0105851
0.0119935
0.0127028
0.0129024
0.0142783
0.0151028
0.0157309
0.0168048
0.0176492
0.0181156
0.0187303
0.0195979
0.00109409
0.00263205
0.0055951
0.0065506
0.00778161
0.00956678
0.0103024
0.0101083
0.0105769
0.0120084
0.0127472
0.0128737
0.0141893
0.0150342
0.0155727
0.0165573
0.0174
0.0178805
0.0183936
0.0193466
0.00117649
0.00276273
0.00567627
0.00655473
0.00779481
0.00958256
0.0103117
0.0101454
0.0105685
0.0120241
0.0127845
0.0128463
0.0140833
0.0149354
0.015417
0.0163002
0.0171281
0.0176561
0.0181728
0.019106
0.00126379
0.00289248
0.0057583
0.00656409
0.00780345
0.00960154
0.0103217
0.0101805
0.010562
0.0120366
0.0128165
0.0128135
0.0139215
0.014827
0.0152453
0.0160339
0.0168423
0.0174272
0.0180789
0.0189024
0.0013569
0.00302055
0.00584212
0.00657696
0.00781895
0.00961709
0.0103379
0.0102087
0.0105623
0.0120344
0.0128542
0.0127863
0.0138239
0.014705
0.0150935
0.0157728
0.0165396
0.0171387
0.0177328
0.0187156
0.00145456
0.00314861
0.00592547
0.00659598
0.00782548
0.00963687
0.0103542
0.0102372
0.0105605
0.0120263
0.0128805
0.0127696
0.0136913
0.0145682
0.0149483
0.0155005
0.0162177
0.0168264
0.0174606
0.0185538
0.00155783
0.00327594
0.00600842
0.00662092
0.00782861
0.0096578
0.010371
0.0102678
0.0105557
0.012006
0.012899
0.0127573
0.0135069
0.0144339
0.0147904
0.0152334
0.0158895
0.0165097
0.0172917
0.0184137
0.00166715
0.00340211
0.00609152
0.00665066
0.0078606
0.00967448
0.0103904
0.0102973
0.0105516
0.0119709
0.012913
0.0127398
0.0134052
0.0142778
0.014634
0.0150007
0.0155798
0.0162163
0.0170161
0.0182452
0.00178144
0.00352834
0.00617313
0.00668701
0.00786093
0.00968961
0.0104097
0.0103265
0.010546
0.0119289
0.0129101
0.0127303
0.0132664
0.0140893
0.0144882
0.0147876
0.0152788
0.0159254
0.0167535
0.0180521
0.00190165
0.00365433
0.00625396
0.00672728
0.0078715
0.00970331
0.0104263
0.0103556
0.0105431
0.0118733
0.0128981
0.012726
0.0130641
0.0139055
0.0143349
0.0145749
0.0150028
0.015635
0.0164764
0.0178573
0.0020278
0.00378016
0.00633342
0.00677115
0.00788615
0.00971484
0.0104414
0.0103827
0.0105389
0.0118136
0.0128744
0.012718
0.01295
0.0137179
0.0141549
0.0143802
0.0147495
0.0153306
0.0162103
0.0176881
0.00215948
0.00390564
0.00641209
0.00681883
0.00790225
0.00972732
0.0104542
0.0104036
0.0105368
0.0117529
0.0128335
0.0127104
0.0128387
0.0135147
0.0139685
0.0141986
0.0144962
0.0150419
0.0159805
0.0175183
0.00229715
0.00403117
0.00649081
0.00686773
0.00792317
0.00974144
0.0104639
0.0104195
0.0105382
0.0116851
0.0127819
0.0127001
0.012732
0.0133163
0.013776
0.0140063
0.0142617
0.0147957
0.015744
0.0173267
0.0024407
0.0041568
0.00656867
0.00691872
0.00794332
0.00975646
0.0104741
0.0104308
0.0105356
0.0116183
0.0127191
0.0126812
0.012637
0.0131195
0.0135648
0.0138138
0.0140578
0.0145659
0.0155064
0.0171334
0.00259005
0.00428218
0.00664692
0.0069718
0.00796206
0.00977278
0.0104856
0.0104357
0.0105324
0.0115514
0.0126459
0.0126564
0.0125445
0.0129281
0.0133515
0.0136219
0.013859
0.0143441
0.0152826
0.0169487
0.00274536
0.00440816
0.00672494
0.00702598
0.00797959
0.00979014
0.0104995
0.0104372
0.0105248
0.0114838
0.0125635
0.0126222
0.0124606
0.0127473
0.013131
0.0134176
0.0136637
0.0141428
0.0150844
0.0167746
0.00290645
0.0045344
0.00680272
0.00708249
0.00799437
0.00980704
0.0105171
0.0104358
0.010512
0.0114161
0.0124746
0.0125801
0.0123806
0.0125713
0.0129074
0.0132103
0.0134757
0.0139557
0.014904
0.0166116
0.00307326
0.00466133
0.00688033
0.00714137
0.00800568
0.00982163
0.0105387
0.0104344
0.0104955
0.0113473
0.0123799
0.0125274
0.0123004
0.0124058
0.0126897
0.0129976
0.0132866
0.0137785
0.014743
0.0164618
0.00324573
0.00478976
0.00695724
0.00720343
0.00801339
0.00983049
0.0105644
0.010436
0.0104748
0.0112766
0.0122791
0.0124639
0.0122242
0.0122531
0.0124758
0.0127758
0.0130964
0.0136122
0.0145959
0.0163255
0.00342315
0.00491994
0.0070334
0.00726992
0.00801765
0.00982846
0.0105912
0.0104429
0.0104535
0.0112045
0.0121741
0.0123905
0.0121473
0.0121099
0.0122681
0.0125505
0.0129035
0.0134501
0.0144608
0.0162013
0.0036057
0.0050517
0.00710893
0.00734006
0.00802095
0.00981536
0.0106158
0.0104562
0.0104348
0.0111319
0.0120661
0.0123066
0.0120675
0.0119759
0.0120718
0.012325
0.012705
0.0132909
0.0143317
0.0160859
0.00379355
0.00518521
0.00718477
0.00741303
0.00802616
0.00979215
0.0106286
0.0104758
0.0104217
0.0110586
0.0119557
0.0122153
0.0119834
0.0118499
0.0118896
0.0121028
0.012499
0.0131258
0.0142039
0.0159788
0.00398563
0.00532065
0.00726052
0.00749101
0.0080327
0.00975093
0.0106318
0.0105026
0.0104156
0.0109851
0.0118432
0.0121174
0.0118935
0.0117301
0.0117228
0.0118889
0.0122863
0.0129519
0.0140739
0.0158787
0.00418205
0.00545805
0.00733543
0.00757526
0.00803679
0.00969271
0.010627
0.0105377
0.0104186
0.0109115
0.0117268
0.0120123
0.0117976
0.0116138
0.0115697
0.0116874
0.0120704
0.0127683
0.0139385
0.0157805
0.00438303
0.00559664
0.0074088
0.0076644
0.00803995
0.0096254
0.0106145
0.0105772
0.01043
0.0108385
0.0116048
0.0119016
0.0116972
0.0114964
0.0114261
0.0115019
0.0118582
0.0125756
0.0137916
0.0156797
0.00458755
0.00573594
0.00748016
0.00775664
0.00805117
0.00955342
0.0105901
0.0106148
0.0104486
0.0107673
0.0114777
0.011787
0.0115932
0.0113771
0.0112902
0.0113338
0.0116552
0.0123765
0.0136314
0.0155724
0.00479517
0.00587693
0.00754843
0.00784992
0.00807337
0.00948001
0.0105516
0.0106453
0.0104726
0.0107009
0.0113469
0.011669
0.0114879
0.0112566
0.0111575
0.011179
0.0114654
0.0121778
0.01346
0.0154555
0.00500567
0.00601956
0.00761339
0.00794319
0.00810727
0.00940797
0.0104988
0.0106639
0.0104999
0.0106441
0.0112153
0.0115469
0.0113819
0.0111356
0.0110235
0.0110337
0.0112908
0.0119854
0.0132824
0.0153286
0.0052182
0.00616375
0.00767576
0.00803526
0.00815205
0.00933991
0.010433
0.010669
0.0105294
0.0105992
0.0110842
0.011418
0.0112751
0.0110159
0.0108872
0.0108938
0.01113
0.0118035
0.0131053
0.0151956
0.00543204
0.0063099
0.00773604
0.0081242
0.00820641
0.00927924
0.0103579
0.0106594
0.0105563
0.0105652
0.0109557
0.0112827
0.0111666
0.0108993
0.0107506
0.0107557
0.0109804
0.0116348
0.012936
0.0150611
0.00564657
0.00645811
0.00779485
0.00820885
0.00826898
0.00922806
0.0102767
0.0106345
0.0105757
0.0105406
0.010834
0.0111423
0.0110544
0.0107862
0.0106165
0.0106168
0.0108382
0.0114795
0.0127783
0.014929
0.00586102
0.00660835
0.00785317
0.00828862
0.00833787
0.00918711
0.0101926
0.0105952
0.0105842
0.0105231
0.0107223
0.0109989
0.0109374
0.010676
0.0104867
0.0104771
0.0107
0.0113359
0.0126333
0.0148021
0.00607468
0.00676052
0.00791191
0.00836328
0.00841083
0.00915658
0.0101086
0.0105435
0.0105792
0.0105096
0.0106223
0.0108549
0.010816
0.0105661
0.0103616
0.0103387
0.0105645
0.0112015
0.0124996
0.0146814
0.00628691
0.00691447
0.0079718
0.00843483
0.00848576
0.00913603
0.0100273
0.0104818
0.0105598
0.0104961
0.0105342
0.0107123
0.0106876
0.0104547
0.0102416
0.0102043
0.0104309
0.0110724
0.0123744
0.0145672
0.00649705
0.00706997
0.00803365
0.00849939
0.00856071
0.00912465
0.00995009
0.0104129
0.0105263
0.0104784
0.0104565
0.0105741
0.0105554
0.0103412
0.0101254
0.0100746
0.0102991
0.0109463
0.0122556
0.0144581
0.00670456
0.00722669
0.00809802
0.0085587
0.00863383
0.00912146
0.00987825
0.0103395
0.0104799
0.0104531
0.0103878
0.0104428
0.0104205
0.0102246
0.010011
0.00994902
0.0101696
0.0108227
0.0121401
0.0143518
0.00690891
0.00738417
0.00816543
0.00861365
0.00870373
0.00912508
0.00981236
0.0102642
0.0104222
0.0104177
0.0103256
0.0103197
0.0102842
0.0101046
0.00989739
0.00982738
0.0100434
0.0107002
0.012025
0.0142468
0.00710966
0.00754174
0.0082363
0.00866495
0.00876945
0.00913411
0.0097525
0.0101886
0.0103559
0.0103709
0.0102665
0.0102053
0.010148
0.00998135
0.00978343
0.00970892
0.00991935
0.0105779
0.0119102
0.0141422
0.00730646
0.00769886
0.0083106
0.00871335
0.00883027
0.00914713
0.00969852
0.0101142
0.0102835
0.0103125
0.0102067
0.0100996
0.0100141
0.00985437
0.00966802
0.00959224
0.00979715
0.0104564
0.011795
0.0140367
0.00749887
0.00785484
0.00838832
0.00875977
0.00888596
0.00916264
0.00964988
0.0100414
0.0102077
0.0102436
0.010143
0.0100014
0.0098838
0.0097242
0.00954974
0.00947621
0.0096768
0.0103355
0.0116787
0.0139295
0.00768667
0.00800911
0.00846913
0.00880497
0.00893633
0.0091794
0.00960628
0.00997034
0.0101304
0.010166
0.0100728
0.00990807
0.00975833
0.00959206
0.00942724
0.00935915
0.00955726
0.0102148
0.0115614
0.0138204
0.00786943
0.00816105
0.00855276
0.00884964
0.00898159
0.00919609
0.00956708
0.00990076
0.0100529
0.0100826
0.00999444
0.00981682
0.00963833
0.00945969
0.00929994
0.00923911
0.00943729
0.0100941
0.0114429
0.0137086
0.00804697
0.00831006
0.00863853
0.00889436
0.00902221
0.00921165
0.00953181
0.00983252
0.0099749
0.00999591
0.00990771
0.00972413
0.00952283
0.00932844
0.0091687
0.0091149
0.00931529
0.00997194
0.0113225
0.0135937
0.00821906
0.00845568
0.00872581
0.00893938
0.00905872
0.00922528
0.0094997
0.00976596
0.0098954
0.00990755
0.00981477
0.00962692
0.00940932
0.00919905
0.00903511
0.00898591
0.00918937
0.0098468
0.011199
0.0134748
0.00838537
0.00859733
0.0088139
0.00898486
0.00909163
0.00923655
0.00946984
0.00970206
0.00981417
0.0098171
0.00971769
0.00952431
0.00929481
0.00907071
0.00889995
0.0088523
0.00905878
0.00971739
0.011071
0.0133505
0.0085457
0.00873481
0.00890224
0.00903072
0.00912125
0.00924492
0.00944062
0.00964101
0.00973235
0.00972375
0.00961801
0.00941751
0.00917737
0.00894094
0.00876242
0.00871395
0.00892249
0.0095821
0.0109368
0.0132194
0.00869949
0.00886756
0.00899022
0.00907737
0.00914871
0.00925156
0.00941057
0.009581
0.00965029
0.0096266
0.00951619
0.00930803
0.00905707
0.00880877
0.00862181
0.00857033
0.00877945
0.00943986
0.0107954
0.0130801
0.00884646
0.00899533
0.00907705
0.00912389
0.00917342
0.00925679
0.00938104
0.00952255
0.00956874
0.00952444
0.00940819
0.00919473
0.00893334
0.00867299
0.00847631
0.00841996
0.00862839
0.00928921
0.010645
0.012931
0.00898576
0.00911777
0.0091631
0.00917069
0.00919485
0.00925854
0.00934965
0.00946439
0.00949236
0.00942216
0.00929555
0.00907768
0.00880686
0.00853324
0.00832403
0.0082606
0.00846662
0.00912727
0.0104826
0.0127683
0.00911633
0.00923536
0.00924744
0.00921924
0.00921621
0.00925908
0.0093156
0.00939824
0.00941723
0.00932591
0.00918103
0.00895827
0.00867932
0.00839193
0.0081663
0.00809165
0.00829212
0.00895178
0.0103075
0.0125921
0.00924114
0.00933961
0.00932338
0.00926498
0.00923567
0.00925929
0.00928319
0.00932564
0.00932895
0.00922233
0.00906042
0.00883412
0.00854994
0.00825075
0.00800599
0.00791341
0.008102
0.0087567
0.0101101
0.0123935
0.00935351
0.00945531
0.00941253
0.00931922
0.00925742
0.00925787
0.00925352
0.0092585
0.0092528
0.00912889
0.00893894
0.00870211
0.00841377
0.00810639
0.00784526
0.00773246
0.00790239
0.00854276
0.00988788
0.0121683
0.0094563
0.00951831
0.00947848
0.00937231
0.00927588
0.00924666
0.00922033
0.00918506
0.00916405
0.00904117
0.00882745
0.0085684
0.00827095
0.00795564
0.00768102
0.00754946
0.00769849
0.00831695
0.00964191
0.0119039
0.00956054
0.00964849
0.00955402
0.0093977
0.00926368
0.00920116
0.0091707
0.00912277
0.00907476
0.00895317
0.00873555
0.00845944
0.00814203
0.00780977
0.0075189
0.00737026
0.00750281
0.00810116
0.00940655
0.0116516
0.00958555
0.00968543
0.00969607
0.00955071
0.00932361
0.00918429
0.00908441
0.00902927
0.00896181
0.00882716
0.00858835
0.00829829
0.00796874
0.00761847
0.00730187
0.00712522
0.00723508
0.00782721
0.00913354
0.0113809
0.00974849
0.00981194
0.00966905
0.00945268
0.00927071
0.00917111
0.00911839
0.00903628
0.00895685
0.0088355
0.00861326
0.00830135
0.00793409
0.00754614
0.00716646
0.00688628
0.00686271
0.00731223
0.0084897
0.0106282
0.00974259
0.00985556
0.00973525
0.00962425
0.00942561
0.00911706
0.00887423
0.00876999
0.00867604
0.00856242
0.0083532
0.0080862
0.00778987
0.00754052
0.0073731
0.00733526
0.0074736
0.00798687
0.00912877
0.0111688
0.00991622
0.00988986
0.00976881
0.0095367
0.00929434
0.00917844
0.00914839
0.00910702
0.00897703
0.00881153
0.00852287
0.0081008
0.00757217
0.00696082
0.00634205
0.00585709
0.00554312
0.00575433
0.00672555
0.00868101
0.0102042
0.00983624
0.00961374
0.00936042
0.00916717
0.0089163
0.00872945
0.00866588
0.00856275
0.00832749
0.00808792
0.0078996
0.00792096
0.0082356
0.00887812
0.00972656
0.0107491
0.0115387
0.01177
0.0111223
0.0102165
0.00991698
0.00966109
0.0094869
0.00940641
0.00938413
0.00937344
0.00929851
0.00912839
0.00881369
0.00834615
0.00768816
0.00686317
0.00594246
0.00503553
0.00424477
0.00374275
0.00371462
0.00442381
0.00611396
0.0104059
0.00989461
0.00958386
0.00938432
0.00932179
0.00916893
0.00894182
0.00856544
0.00825037
0.00811633
0.00796236
0.00767006
0.00741079
0.00735128
0.00758953
0.00811749
0.00883098
0.00945488
0.0096116
0.00894852
0.0104074
0.0098842
0.00958754
0.00949184
0.00960597
0.00973078
0.0098104
0.00973573
0.00950216
0.00898271
0.00814548
0.00694934
0.00545531
0.00384117
0.00234232
0.00116102
0.000464108
0.000424531
0.001259
0.00316023
0.0345086
0.0185745
0.0123752
0.0127135
0.0137998
0.0146377
0.0153976
0.0161732
0.0169234
0.0176308
0.0183878
0.0192728
0.0202676
0.021214
0.0220983
0.0230817
0.0241795
0.0252542
0.0262945
0.0274119
0.0285631
0.0296996
0.0309277
0.0324295
0.0337862
0.0348763
0.0362464
0.0378461
0.0394099
0.0410514
0.0427012
0.0443008
0.0459978
0.0478018
0.0496409
0.0514887
0.0535279
0.0556288
0.0578023
0.0600297
0.0623308
0.0647675
0.0672127
0.0698441
0.0724202
0.0751565
0.0779055
0.0806226
0.0835924
0.0862483
0.0340632
0.0186264
0.0124182
0.012733
0.0138102
0.014644
0.0154022
0.0161769
0.0169264
0.0176333
0.0183897
0.0192743
0.0202688
0.021215
0.0220992
0.0230825
0.0241802
0.0252549
0.0262952
0.0274125
0.0285637
0.0297001
0.0309282
0.0324299
0.0337867
0.0348767
0.0362468
0.0378464
0.0394102
0.0410517
0.0427015
0.044301
0.045998
0.047802
0.0496411
0.0514889
0.0535281
0.055629
0.0578025
0.0600298
0.0623309
0.0647676
0.0672128
0.0698442
0.0724203
0.0751566
0.0779056
0.0806226
0.0835924
0.0862484
0.033644
0.0187289
0.0124867
0.0127555
0.013822
0.0146509
0.0154067
0.0161803
0.0169293
0.0176356
0.0183915
0.0192757
0.02027
0.021216
0.0221
0.0230832
0.0241808
0.0252555
0.0262957
0.027413
0.0285643
0.0297006
0.0309287
0.0324303
0.0337871
0.0348771
0.0362471
0.0378468
0.0394105
0.041052
0.0427017
0.0443012
0.0459982
0.0478021
0.0496413
0.051489
0.0535282
0.0556291
0.0578026
0.0600299
0.062331
0.0647677
0.0672129
0.0698443
0.0724204
0.0751567
0.0779057
0.0806227
0.0835924
0.0862485
0.0332659
0.0188697
0.0125845
0.0127857
0.0138384
0.0146608
0.0154124
0.0161842
0.0169324
0.0176382
0.0183937
0.0192774
0.0202714
0.0212171
0.0221008
0.0230839
0.0241815
0.0252561
0.0262963
0.0274135
0.0285648
0.0297011
0.0309291
0.0324308
0.0337876
0.0348774
0.0362474
0.0378471
0.0394108
0.0410523
0.042702
0.0443015
0.0459984
0.0478023
0.0496415
0.0514892
0.0535284
0.0556292
0.0578027
0.06003
0.0623311
0.0647678
0.067213
0.0698444
0.0724204
0.0751567
0.0779057
0.0806228
0.0835925
0.0862487
0.032888
0.0190259
0.0127027
0.0128233
0.0138608
0.0146753
0.0154204
0.0161892
0.0169362
0.0176415
0.0183965
0.0192797
0.0202732
0.0212185
0.0221019
0.0230847
0.0241822
0.0252567
0.0262968
0.027414
0.0285653
0.0297016
0.0309295
0.0324312
0.0337881
0.0348778
0.0362477
0.0378474
0.0394111
0.0410525
0.0427022
0.0443017
0.0459986
0.0478025
0.0496417
0.0514893
0.0535285
0.0556294
0.0578028
0.0600302
0.0623312
0.0647679
0.0672131
0.0698445
0.0724205
0.0751568
0.0779058
0.0806228
0.0835925
0.0862489
0.0324934
0.0191866
0.0128323
0.012865
0.0138877
0.0146943
0.0154313
0.0161957
0.0169411
0.0176458
0.0184003
0.0192828
0.0202756
0.0212204
0.0221033
0.0230858
0.0241831
0.0252574
0.0262974
0.0274145
0.0285657
0.0297021
0.03093
0.0324317
0.0337887
0.0348781
0.0362479
0.0378478
0.0394114
0.0410528
0.0427025
0.044302
0.0459988
0.0478027
0.0496418
0.0514895
0.0535287
0.0556295
0.057803
0.0600303
0.0623313
0.064768
0.0672132
0.0698446
0.0724206
0.0751569
0.0779059
0.0806229
0.0835926
0.0862492
0.0320837
0.0193487
0.0129686
0.0129084
0.0139168
0.0147166
0.0154448
0.0162039
0.0169472
0.0176512
0.0184052
0.0192869
0.0202787
0.0212228
0.0221051
0.0230872
0.0241841
0.0252582
0.026298
0.027415
0.0285661
0.0297026
0.0309304
0.0324323
0.0337894
0.0348785
0.0362482
0.0378481
0.0394118
0.0410532
0.0427029
0.0443022
0.045999
0.0478029
0.0496421
0.0514897
0.0535288
0.0556297
0.0578031
0.0600304
0.0623315
0.0647681
0.0672133
0.0698447
0.0724207
0.075157
0.077906
0.080623
0.0835927
0.0862496
0.0316648
0.0195113
0.0131104
0.0129523
0.0139467
0.0147406
0.0154601
0.0162135
0.0169544
0.0176578
0.0184113
0.0192919
0.0202826
0.0212258
0.0221075
0.023089
0.0241854
0.0252592
0.0262988
0.0274155
0.0285665
0.0297029
0.0309308
0.0324329
0.0337901
0.0348789
0.0362485
0.0378485
0.0394121
0.0410535
0.0427032
0.0443026
0.0459993
0.0478032
0.0496423
0.0514899
0.053529
0.0556298
0.0578033
0.0600306
0.0623316
0.0647682
0.0672134
0.0698448
0.0724208
0.0751571
0.0779061
0.0806231
0.0835928
0.0862501
0.0312401
0.0196728
0.0132576
0.0129965
0.0139767
0.0147657
0.0154767
0.0162243
0.0169626
0.0176653
0.0184183
0.0192977
0.020287
0.0212293
0.0221105
0.0230913
0.0241868
0.0252603
0.0262997
0.0274162
0.0285669
0.0297032
0.0309311
0.0324334
0.033791
0.0348795
0.0362489
0.0378489
0.0394125
0.0410539
0.0427036
0.0443029
0.0459996
0.0478035
0.0496426
0.0514901
0.0535292
0.05563
0.0578035
0.0600307
0.0623317
0.0647684
0.0672136
0.0698449
0.0724209
0.0751572
0.0779062
0.0806232
0.0835929
0.0862507
0.0308119
0.0198321
0.0134107
0.0130415
0.0140066
0.0147914
0.015494
0.0162358
0.0169716
0.0176736
0.018426
0.0193042
0.0202918
0.0212332
0.022114
0.023094
0.0241886
0.0252615
0.0263008
0.0274171
0.0285675
0.0297035
0.0309312
0.0324338
0.0337918
0.0348801
0.0362494
0.0378493
0.0394128
0.0410542
0.042704
0.0443033
0.046
0.0478038
0.0496429
0.0514903
0.0535294
0.0556302
0.0578036
0.0600309
0.0623319
0.0647685
0.0672137
0.069845
0.0724211
0.0751574
0.0779063
0.0806234
0.0835931
0.0862514
0.0303819
0.0199888
0.0135703
0.0130877
0.0140363
0.0148175
0.0155119
0.0162479
0.0169812
0.0176825
0.0184344
0.0193111
0.0202969
0.0212373
0.0221178
0.0230972
0.0241906
0.0252629
0.0263021
0.0274183
0.0285684
0.029704
0.0309312
0.0324339
0.0337926
0.0348809
0.03625
0.0378499
0.0394131
0.0410545
0.0427044
0.0443038
0.0460004
0.0478042
0.0496433
0.0514907
0.0535297
0.0556305
0.0578038
0.0600311
0.062332
0.0647687
0.0672139
0.0698452
0.0724212
0.0751575
0.0779065
0.0806237
0.0835934
0.0862522
0.0299518
0.0201422
0.0137367
0.0131354
0.0140656
0.0148441
0.0155304
0.0162605
0.0169911
0.0176918
0.0184432
0.0193185
0.0203022
0.0212414
0.0221218
0.0231007
0.0241928
0.0252643
0.0263034
0.0274196
0.0285695
0.0297048
0.030931
0.0324336
0.0337932
0.0348817
0.0362509
0.0378505
0.0394134
0.0410547
0.0427048
0.0443042
0.0460008
0.0478047
0.0496437
0.0514911
0.05353
0.0556308
0.0578041
0.0600313
0.0623322
0.0647689
0.067214
0.0698454
0.0724214
0.0751577
0.0779067
0.0806239
0.0835938
0.0862531
0.0295233
0.0202916
0.01391
0.0131849
0.0140945
0.0148711
0.0155496
0.0162735
0.0170014
0.0177014
0.0184523
0.0193261
0.0203077
0.0212457
0.0221259
0.0231044
0.0241952
0.0252658
0.0263047
0.0274209
0.0285709
0.0297059
0.0309309
0.0324329
0.0337934
0.0348824
0.036252
0.0378515
0.0394137
0.0410549
0.042705
0.0443046
0.0460012
0.0478051
0.0496442
0.0514915
0.0535305
0.0556312
0.0578044
0.0600315
0.0623324
0.064769
0.0672142
0.0698455
0.0724216
0.0751579
0.0779069
0.0806243
0.0835942
0.0862542
0.0290975
0.0204363
0.01409
0.0132369
0.0141229
0.0148984
0.0155693
0.0162869
0.017012
0.0177113
0.0184618
0.019334
0.0203133
0.0212501
0.0221302
0.0231084
0.0241978
0.0252673
0.026306
0.0274223
0.0285724
0.0297073
0.0309308
0.0324317
0.0337931
0.0348829
0.0362532
0.0378527
0.0394142
0.0410549
0.0427052
0.0443049
0.0460016
0.0478056
0.0496447
0.0514921
0.053531
0.0556316
0.0578047
0.0600318
0.0623327
0.0647692
0.0672144
0.0698457
0.0724218
0.0751582
0.0779072
0.0806248
0.0835948
0.0862554
0.0286751
0.0205754
0.0142767
0.0132917
0.0141508
0.0149259
0.0155897
0.0163008
0.0170229
0.0177215
0.0184714
0.0193422
0.0203191
0.0212546
0.0221345
0.0231124
0.0242005
0.025269
0.0263073
0.0274236
0.028574
0.0297089
0.0309309
0.03243
0.0337921
0.034883
0.0362545
0.0378541
0.0394149
0.041055
0.0427052
0.0443051
0.046002
0.047806
0.0496452
0.0514927
0.0535316
0.0556322
0.0578052
0.0600322
0.0623329
0.0647695
0.0672146
0.0698459
0.072422
0.0751585
0.0779075
0.0806253
0.0835955
0.0862567
0.0282568
0.0207081
0.0144702
0.01335
0.014178
0.0149535
0.0156106
0.0163152
0.0170341
0.0177319
0.0184813
0.0193505
0.0203252
0.0212592
0.0221391
0.0231166
0.0242033
0.0252707
0.0263087
0.0274249
0.0285755
0.0297105
0.030931
0.0324276
0.0337905
0.0348827
0.0362556
0.0378559
0.0394157
0.0410551
0.0427051
0.0443052
0.0460022
0.0478064
0.0496457
0.0514933
0.0535323
0.0556328
0.0578057
0.0600326
0.0623333
0.0647697
0.0672148
0.0698462
0.0724223
0.0751588
0.0779079
0.0806259
0.0835963
0.0862583
0.0278429
0.0208337
0.0146703
0.0134125
0.0142045
0.0149811
0.0156323
0.0163301
0.0170456
0.0177425
0.0184915
0.0193592
0.0203316
0.0212641
0.0221438
0.0231208
0.0242061
0.0252725
0.0263101
0.0274261
0.028577
0.0297119
0.030931
0.0324247
0.033788
0.0348819
0.0362566
0.0378577
0.0394167
0.0410551
0.0427048
0.0443051
0.0460024
0.0478067
0.0496462
0.051494
0.0535331
0.0556336
0.0578063
0.0600331
0.0623337
0.06477
0.067215
0.0698464
0.0724225