/*--------------------------------*- C++ -*----------------------------------*\
| =========                 |                                                 |
| \\      /  F ield         | OpenFOAM: The Open Source CFD Toolbox           |
|  \\    /   O peration     | Version:  v2012                                 |
|   \\  /    A nd           | Website:  www.openfoam.com                      |
|    \\/     M anipulation  |                                                 |
\*---------------------------------------------------------------------------*/
FoamFile
{
    version     2.0;
    format      ascii;
    class       volVectorField;
    location    "5.1";
    object      U;
}
// * * * * * * * * * * * * * * * * * * * * * * * * * * * * * * * * * * * * * //

dimensions      [0 1 -1 0 0 0 0];


internalField   nonuniform List<vector> 
7000
(
(0.841096 -0.0128078 0)
(1.13565 -0.000621093 0)
(1.00577 0.0134506 0)
(1.07054 0.0189278 0)
(0.964354 0.00234326 0)
(1.0797 -0.0158675 0)
(0.849007 -0.0315257 0)
(1.12281 -0.0280417 0)
(0.938189 -0.0295043 0)
(1.10341 -0.0143628 0)
(1.00235 -0.00668404 0)
(1.12262 -0.00574034 0)
(0.982893 0.0187641 0)
(1.13796 0.00369842 0)
(0.921173 0.0201732 0)
(1.14322 0.00748025 0)
(0.887223 0.0148947 0)
(1.13055 0.00544343 0)
(0.873885 0.00786567 0)
(1.11587 0.00217307 0)
(0.855219 -0.0127987 0)
(1.13321 -0.00138952 0)
(1.00948 0.0135566 0)
(1.06468 0.0191408 0)
(0.985669 0.00220092 0)
(1.05569 -0.0147652 0)
(0.899504 -0.0321806 0)
(1.08335 -0.0287977 0)
(0.956368 -0.0295189 0)
(1.0842 -0.0150585 0)
(1.01563 -0.00716764 0)
(1.10596 -0.00528498 0)
(1.00135 0.0182396 0)
(1.10951 0.00509818 0)
(0.953874 0.0198358 0)
(1.09764 0.00846404 0)
(0.94097 0.0152516 0)
(1.06664 0.00578916 0)
(0.951047 0.00896399 0)
(1.0331 0.00251264 0)
(0.875143 -0.0128377 0)
(1.12471 -0.00199568 0)
(1.0187 0.0138571 0)
(1.05656 0.0193389 0)
(1.00913 0.00228026 0)
(1.03906 -0.0141896 0)
(0.938561 -0.032362 0)
(1.04418 -0.0291015 0)
(0.978053 -0.0296138 0)
(1.05572 -0.0157558 0)
(1.03419 -0.00751255 0)
(1.07864 -0.00504531 0)
(1.03127 0.0180669 0)
(1.07398 0.00612095 0)
(0.997803 0.0199159 0)
(1.05553 0.00893506 0)
(0.991814 0.0158968 0)
(1.02936 0.0055311 0)
(0.997696 0.00992901 0)
(1.0095 0.00229073 0)
(0.898286 -0.0129097 0)
(1.10808 -0.00254523 0)
(1.03237 0.0142012 0)
(1.05177 0.0194188 0)
(1.02835 0.00242018 0)
(1.02888 -0.0137004 0)
(0.967616 -0.032315 0)
(1.01291 -0.02943 0)
(0.993337 -0.0297702 0)
(1.02924 -0.0164537 0)
(1.04636 -0.00777703 0)
(1.05421 -0.00512804 0)
(1.05393 0.0182629 0)
(1.05162 0.00663959 0)
(1.02744 0.020399 0)
(1.03882 0.00900853 0)
(1.01874 0.0166255 0)
(1.02367 0.0052259 0)
(1.01699 0.010795 0)
(1.01279 0.00241625 0)
(0.922278 -0.0129836 0)
(1.08484 -0.00310174 0)
(1.04684 0.0144446 0)
(1.0524 0.0194474 0)
(1.04192 0.00262421 0)
(1.02472 -0.0132848 0)
(0.986168 -0.0320515 0)
(0.994149 -0.0296751 0)
(0.998591 -0.0299175 0)
(1.01173 -0.0171546 0)
(1.04779 -0.00806878 0)
(1.03998 -0.00539083 0)
(1.06222 0.0184214 0)
(1.04458 0.00700011 0)
(1.03956 0.0208032 0)
(1.03903 0.00907744 0)
(1.02928 0.017224 0)
(1.02936 0.00510209 0)
(1.02401 0.0115072 0)
(1.02028 0.00270404 0)
(0.944736 -0.0130369 0)
(1.05911 -0.00366249 0)
(1.05767 0.0145313 0)
(1.05604 0.019488 0)
(1.05004 0.00288214 0)
(1.0241 -0.0128979 0)
(0.997157 -0.0316666 0)
(0.986341 -0.0298146 0)
(0.996513 -0.0300573 0)
(1.00252 -0.0178479 0)
(1.04178 -0.0084298 0)
(1.03377 -0.00575584 0)
(1.06066 0.0184093 0)
(1.04572 0.007317 0)
(1.04229 0.0210097 0)
(1.04418 0.0091895 0)
(1.03354 0.0176685 0)
(1.03529 0.00509054 0)
(1.02716 0.01216 0)
(1.0252 0.0030775 0)
(0.963962 -0.0130591 0)
(1.03508 -0.00420183 0)
(1.06143 0.0144607 0)
(1.05831 0.0195465 0)
(1.05341 0.00317034 0)
(1.02455 -0.0125307 0)
(1.00384 -0.0312177 0)
(0.985031 -0.0298331 0)
(0.991697 -0.0301673 0)
(0.997376 -0.0185221 0)
(1.03317 -0.00884463 0)
(1.03021 -0.00620533 0)
(1.0559 0.018247 0)
(1.04874 0.00754683 0)
(1.04291 0.0211251 0)
(1.04862 0.00926632 0)
(1.03669 0.018077 0)
(1.03881 0.00518426 0)
(1.02945 0.0128033 0)
(1.02725 0.00357621 0)
(0.979209 -0.0130479 0)
(1.01522 -0.00468392 0)
(1.05685 0.0142617 0)
(1.05596 0.0195936 0)
(1.05304 0.00346872 0)
(1.02466 -0.0121919 0)
(1.00837 -0.0307436 0)
(0.986325 -0.0297439 0)
(0.987269 -0.0302145 0)
(0.993068 -0.0191707 0)
(1.02464 -0.00928802 0)
(1.02576 -0.00674815 0)
(1.05128 0.017935 0)
(1.05057 0.00765959 0)
(1.04402 0.0212197 0)
(1.05093 0.0092917 0)
(1.03959 0.0185276 0)
(1.04006 0.00538913 0)
(1.03105 0.0134443 0)
(1.02734 0.00419572 0)
(0.99049 -0.0130061 0)
(1.00005 -0.00506852 0)
(1.04509 0.013981 0)
(1.04842 0.0195927 0)
(1.05016 0.00374233 0)
(1.02415 -0.0118976 0)
(1.01176 -0.0302621 0)
(0.988149 -0.0295672 0)
(0.984305 -0.0301763 0)
(0.988602 -0.019783 0)
(1.01682 -0.00973046 0)
(1.0194 -0.00739127 0)
(1.04692 0.0174683 0)
(1.05008 0.00765336 0)
(1.045 0.0212981 0)
(1.05088 0.00930566 0)
(1.0413 0.0190024 0)
(1.03936 0.00573001 0)
(1.03128 0.01409 0)
(1.02601 0.00492889 0)
(0.99824 -0.0129372 0)
(0.989046 -0.00533386 0)
(1.0291 0.0136669 0)
(1.03752 0.0195132 0)
(1.04607 0.00394952 0)
(1.02336 -0.0116598 0)
(1.01428 -0.0297799 0)
(0.989796 -0.0293256 0)
(0.982698 -0.0300457 0)
(0.984249 -0.0203419 0)
(1.00962 -0.0101382 0)
(1.01155 -0.00811868 0)
(1.04172 0.0168608 0)
(1.04692 0.0075332 0)
(1.04437 0.021349 0)
(1.04841 0.00934077 0)
(1.04087 0.0194671 0)
(1.03681 0.00620658 0)
(1.02972 0.014721 0)
(1.02343 0.00575075 0)
(1.00307 -0.0128445 0)
(0.981431 -0.00547495 0)
(1.01252 0.0133538 0)
(1.02614 0.0193357 0)
(1.04185 0.00407616 0)
(1.02267 -0.0114796 0)
(1.01598 -0.0292971 0)
(0.991166 -0.0290384 0)
(0.98203 -0.0298271 0)
(0.980464 -0.0208317 0)
(1.00303 -0.0104846 0)
(1.00311 -0.00889432 0)
(1.03492 0.0161396 0)
(1.04124 0.00731318 0)
(1.04122 0.0213601 0)
(1.04356 0.00941098 0)
(1.03793 0.0198864 0)
(1.03254 0.00680059 0)
(1.02636 0.0153124 0)
(1.01974 0.00662603 0)
(1.00566 -0.012731 0)
(0.976601 -0.00550626 0)
(0.998463 0.0130554 0)
(1.01675 0.0190585 0)
(1.03811 0.00412249 0)
(1.02231 -0.0113493 0)
(1.01685 -0.0288103 0)
(0.992332 -0.0287225 0)
(0.981958 -0.0295295 0)
(0.977433 -0.0212455 0)
(0.997158 -0.01075 0)
(0.994905 -0.00966675 0)
(1.02649 0.015345 0)
(1.03354 0.00701858 0)
(1.03549 0.0213173 0)
(1.03667 0.00952158 0)
(1.03276 0.020229 0)
(1.02686 0.00747643 0)
(1.02159 0.0158361 0)
(1.0152 0.0075165 0)
(1.00665 -0.0126001 0)
(0.974075 -0.00545372 0)
(0.988626 0.0127701 0)
(1.01057 0.0186988 0)
(1.03501 0.00410382 0)
(1.02226 -0.0112569 0)
(1.01691 -0.0283158 0)
(0.993383 -0.0283924 0)
(0.982273 -0.0291618 0)
(0.97511 -0.0215829 0)
(0.992066 -0.0109215 0)
(0.987513 -0.01039 0)
(1.01696 0.0145199 0)
(1.02462 0.00667755 0)
(1.02776 0.0212109 0)
(1.02835 0.00966941 0)
(1.02597 0.0204689 0)
(1.02025 0.00819497 0)
(1.01592 0.0162719 0)
(1.01015 0.00838723 0)
(1.00666 -0.0124561 0)
(0.973366 -0.00534869 0)
(0.983143 0.0124912 0)
(1.00746 0.0182854 0)
(1.03233 0.00404235 0)
(1.02235 -0.0111901 0)
(1.01625 -0.0278117 0)
(0.99437 -0.028061 0)
(0.982863 -0.0287306 0)
(0.973371 -0.0218434 0)
(0.987714 -0.0110017 0)
(0.981211 -0.0110227 0)
(1.00705 0.0137045 0)
(1.01527 0.00631804 0)
(1.01884 0.0210344 0)
(1.01932 0.00984462 0)
(1.0183 0.0205845 0)
(1.01325 0.00892034 0)
(1.00987 0.0166074 0)
(1.00496 0.00920874 0)
(1.00617 -0.0123034 0)
(0.973931 -0.00521933 0)
(0.981026 0.0122142 0)
(1.00648 0.0178468 0)
(1.02984 0.0039584 0)
(1.0224 -0.0111397 0)
(1.01501 -0.0272982 0)
(0.995292 -0.0277405 0)
(0.983659 -0.0282403 0)
(0.972126 -0.0220274 0)
(0.984009 -0.0109988 0)
(0.976055 -0.0115281 0)
(0.997419 0.0129298 0)
(1.00612 0.0059685 0)
(1.00955 0.020782 0)
(1.01028 0.0100378 0)
(1.01041 0.0205626 0)
(1.00634 0.00961801 0)
(1.00391 0.0168356 0)
(0.999968 0.00995826 0)
(1.00552 -0.0121463 0)
(0.975227 -0.00508458 0)
(0.980912 0.0119382 0)
(1.00652 0.017406 0)
(1.02738 0.00386687 0)
(1.02227 -0.0110996 0)
(1.01338 -0.0267774 0)
(0.996091 -0.0274416 0)
(0.9846 -0.0276978 0)
(0.971348 -0.0221337 0)
(0.9809 -0.0109252 0)
(0.972011 -0.0118866 0)
(0.988566 0.0122114 0)
(0.997604 0.00565707 0)
(1.00054 0.0204509 0)
(1.00179 0.0102411 0)
(1.00284 0.0204031 0)
(0.999948 0.0102571 0)
(0.998379 0.0169591 0)
(0.995432 0.0106221 0)
(1.00492 -0.0119879 0)
(0.97681 -0.00495432 0)
(0.98166 0.0116651 0)
(1.00678 0.0169768 0)
(1.02498 0.00377568 0)
(1.02189 -0.0110668 0)
(1.0116 -0.0262515 0)
(0.996689 -0.0271715 0)
(0.985616 -0.0271134 0)
(0.971031 -0.0221642 0)
(0.978401 -0.0107913 0)
(0.969053 -0.0121026 0)
(0.980872 0.011551 0)
(0.990045 0.00540541 0)
(0.992338 0.0200423 0)
(0.994293 0.0104478 0)
(0.996014 0.0201158 0)
(0.994376 0.0108186 0)
(0.993552 0.0169815 0)
(0.991564 0.0111918 0)
(1.00446 -0.0118301 0)
(0.978381 -0.00483183 0)
(0.982595 0.0113976 0)
(1.0069 0.016564 0)
(1.02273 0.0036881 0)
(1.02128 -0.0110403 0)
(1.00986 -0.0257209 0)
(0.997022 -0.026934 0)
(0.986631 -0.0264998 0)
(0.971155 -0.0221257 0)
(0.976565 -0.0106084 0)
(0.967167 -0.0121763 0)
(0.97463 0.0109438 0)
(0.983711 0.00523458 0)
(0.98536 0.0195542 0)
(0.988125 0.0106487 0)
(0.990245 0.0197178 0)
(0.989858 0.0112936 0)
(0.98961 0.0169116 0)
(0.988507 0.0116588 0)
(1.00415 -0.0116736 0)
(0.979778 -0.00471719 0)
(0.983445 0.0111375 0)
(1.0068 0.0161661 0)
(1.02076 0.00360533 0)
(1.02046 -0.0110192 0)
(1.00832 -0.0251857 0)
(0.997069 -0.0267287 0)
(0.987576 -0.0258712 0)
(0.971661 -0.0220259 0)
(0.975423 -0.0103933 0)
(0.966314 -0.0121048 0)
(0.970033 0.0103831 0)
(0.978827 0.00515395 0)
(0.979922 0.018985 0)
(0.983479 0.0108372 0)
(0.985758 0.0192251 0)
(0.986519 0.0116739 0)
(0.986659 0.0167675 0)
(0.986323 0.0120282 0)
(1.00399 -0.011518 0)
(0.980941 -0.00460931 0)
(0.98415 0.0108858 0)
(1.00654 0.0157792 0)
(1.01915 0.00352782 0)
(1.01952 -0.0110029 0)
(1.00708 -0.0246446 0)
(0.996858 -0.026552 0)
(0.988396 -0.0252408 0)
(0.972458 -0.0218737 0)
(0.974937 -0.0101682 0)
(0.966377 -0.0119014 0)
(0.967126 0.00985706 0)
(0.975508 0.00515181 0)
(0.976185 0.0183483 0)
(0.980402 0.0110156 0)
(0.982659 0.0186595 0)
(0.984367 0.0119519 0)
(0.98472 0.0165671 0)
(0.984993 0.0123178 0)
(1.00394 -0.0113629 0)
(0.98187 -0.00450678 0)
(0.984714 0.0106425 0)
(1.0062 0.0153985 0)
(1.01789 0.00345678 0)
(1.0185 -0.0109923 0)
(1.00618 -0.0240948 0)
(0.996457 -0.0263961 0)
(0.989055 -0.0246256 0)
(0.973438 -0.0216708 0)
(0.974994 -0.00996125 0)
(0.967155 -0.0115772 0)
(0.965784 0.00935499 0)
(0.973704 0.005219 0)
(0.974119 0.0176465 0)
(0.978774 0.0111869 0)
(0.980903 0.0180712 0)
(0.98329 0.0121507 0)
(0.983718 0.0163211 0)
(0.984418 0.0125356 0)
(1.00396 -0.0112071 0)
(0.982601 -0.00440868 0)
(0.985142 0.0104076 0)
(1.00583 0.0150185 0)
(1.01694 0.00339354 0)
(1.01745 -0.0109871 0)
(1.0056 -0.0235372 0)
(0.995957 -0.0262467 0)
(0.989535 -0.0240415 0)
(0.974492 -0.0214243 0)
(0.975419 -0.00978275 0)
(0.968394 -0.0111637 0)
(0.965718 0.00886439 0)
(0.973181 0.00535717 0)
(0.973503 0.0168952 0)
(0.978334 0.0113179 0)
(0.980307 0.0174879 0)
(0.983076 0.01232 0)
(0.983492 0.0160649 0)
(0.984438 0.0126894 0)
(1.00401 -0.0110498 0)
(0.983188 -0.0043139 0)
(0.98544 0.0101803 0)
(1.00546 0.0146348 0)
(1.01625 0.00333717 0)
(1.01641 -0.0109846 0)
(1.00529 -0.0229746 0)
(0.995458 -0.0260945 0)
(0.989837 -0.0234869 0)
(0.975531 -0.021149 0)
(0.976018 -0.00965236 0)
(0.969826 -0.0106797 0)
(0.966543 0.00835615 0)
(0.973581 0.00554529 0)
(0.973966 0.0161477 0)
(0.978723 0.0114105 0)
(0.980584 0.0168864 0)
(0.983455 0.012432 0)
(0.983818 0.0158318 0)
(0.984854 0.0128221 0)
(1.00404 -0.0108902 0)
(0.983693 -0.00422135 0)
(0.985622 0.00996019 0)
(1.00509 0.0142441 0)
(1.01572 0.00328783 0)
(1.01541 -0.0109873 0)
(1.00515 -0.0224032 0)
(0.995046 -0.0259341 0)
(0.989978 -0.0229702 0)
(0.976485 -0.0208302 0)
(0.976619 -0.00958738 0)
(0.971226 -0.0101435 0)
(0.96785 0.00782284 0)
(0.974502 0.00573617 0)
(0.975082 0.0154034 0)
(0.979554 0.0115264 0)
(0.981386 0.0163303 0)
(0.984155 0.0124563 0)
(0.984467 0.0155596 0)
(0.985475 0.0129393 0)
(1.00402 -0.0107277 0)
(0.98417 -0.0041309 0)
(0.985723 0.00974725 0)
(1.00471 0.013842 0)
(1.01529 0.00324881 0)
(1.01448 -0.0109988 0)
(1.0051 -0.0218257 0)
(0.994776 -0.0257469 0)
(0.989988 -0.022509 0)
(0.977316 -0.0204528 0)
(0.977107 -0.00956862 0)
(0.972442 -0.00959438 0)
(0.969289 0.00728164 0)
(0.975581 0.00593431 0)
(0.976462 0.0146365 0)
(0.980505 0.0115877 0)
(0.98239 0.0158586 0)
(0.984931 0.0125497 0)
(0.985232 0.0152715 0)
(0.986152 0.0129937 0)
(1.00395 -0.0105618 0)
(0.98465 -0.00404249 0)
(0.985782 0.00954251 0)
(1.00434 0.0134265 0)
(1.01491 0.003213 0)
(1.01364 -0.0110048 0)
(1.00506 -0.0212637 0)
(0.994667 -0.025512 0)
(0.989901 -0.0220934 0)
(0.978011 -0.020039 0)
(0.977439 -0.00958473 0)
(0.973411 -0.00903644 0)
(0.970635 0.00670816 0)
(0.976566 0.00612209 0)
(0.977807 0.0139481 0)
(0.981364 0.0116071 0)
(0.983382 0.0153114 0)
(0.985633 0.0126597 0)
(0.985945 0.0151111 0)
(0.986777 0.0130661 0)
(1.00383 -0.0103922 0)
(0.985142 -0.0039565 0)
(0.985845 0.0093451 0)
(1.00396 0.0130032 0)
(1.01456 0.0031731 0)
(1.01292 -0.0110078 0)
(1.00497 -0.0207031 0)
(0.994701 -0.0252463 0)
(0.98975 -0.0217238 0)
(0.978573 -0.0195613 0)
(0.977632 -0.00967309 0)
(0.974138 -0.00846126 0)
(0.971786 0.00611843 0)
(0.977348 0.00625655 0)
(0.978967 0.0132649 0)
(0.982014 0.0117092 0)
(0.984221 0.0148406 0)
(0.986227 0.0125982 0)
(0.986555 0.0148981 0)
(0.987294 0.013188 0)
(1.00367 -0.0102181 0)
(0.985633 -0.00387498 0)
(0.985949 0.00915807 0)
(1.00359 0.0125613 0)
(1.01422 0.0031475 0)
(1.01231 -0.0110323 0)
(1.00482 -0.020133 0)
(0.994839 -0.0249399 0)
(0.989572 -0.0213971 0)
(0.979013 -0.0190577 0)
(0.977732 -0.00973745 0)
(0.974676 -0.00796754 0)
(0.972733 0.00560169 0)
(0.977909 0.00632671 0)
(0.979907 0.0126452 0)
(0.982491 0.0116302 0)
(0.984851 0.0145263 0)
(0.986666 0.0125816 0)
(0.987061 0.0146162 0)
(0.987733 0.0132106 0)
(1.00349 -0.01004 0)
(0.986101 -0.00379863 0)
(0.98612 0.00898376 0)
(1.00324 0.0121044 0)
(1.01388 0.00311025 0)
(1.01182 -0.0110123 0)
(1.00461 -0.0196316 0)
(0.995034 -0.0245481 0)
(0.989393 -0.0210895 0)
(0.979356 -0.0185539 0)
(0.977796 -0.00978755 0)
(0.97508 -0.00749761 0)
(0.973519 0.0050824 0)
(0.978314 0.00633242 0)
(0.980623 0.0121257 0)
(0.982828 0.0116075 0)
(0.985341 0.0140999 0)
(0.987007 0.0125303 0)
(0.987448 0.0144275 0)
(0.988083 0.0132575 0)
(1.00332 -0.00985748 0)
(0.98652 -0.00372455 0)
(0.986369 0.00880974 0)
(1.00291 0.0116623 0)
(1.01353 0.00304365 0)
(1.01145 -0.0109677 0)
(1.00437 -0.0191507 0)
(0.995248 -0.0241069 0)
(0.989239 -0.0208611 0)
(0.979623 -0.0179137 0)
(0.977868 -0.00999626 0)
(0.975409 -0.00691053 0)
(0.974181 0.0044533 0)
(0.978622 0.006453 0)
(0.981202 0.0113234 0)
(0.983073 0.0117133 0)
(0.985669 0.0137615 0)
(0.987293 0.0125325 0)
(0.987787 0.0141033 0)
(0.988375 0.0132912 0)
(1.00317 -0.00966508 0)
(0.986871 -0.0036686 0)
(0.98669 0.00866112 0)
(1.00265 0.0111735 0)
(1.01316 0.00302779 0)
(1.01116 -0.010981 0)
(1.0041 -0.0186362 0)
(0.995454 -0.0236363 0)
(0.989126 -0.020605 0)
(0.979847 -0.0173868 0)
(0.977963 -0.00996202 0)
(0.975717 -0.00665713 0)
(0.97477 0.00416371 0)
(0.978859 0.00629861 0)
(0.981655 0.0108941 0)
(0.983325 0.0114595 0)
(0.98591 0.0133581 0)
(0.987482 0.012589 0)
(0.988028 0.0140103 0)
(0.988641 0.0132633 0)
(1.00306 -0.00947647 0)
(0.987146 -0.0035997 0)
(0.987069 0.00848756 0)
(1.00245 0.010735 0)
(1.01279 0.00290564 0)
(1.01093 -0.0108407 0)
(1.00384 -0.0182668 0)
(0.995641 -0.0230584 0)
(0.989054 -0.0203869 0)
(0.980065 -0.0167703 0)
(0.978086 -0.0100421 0)
(0.97604 -0.00625263 0)
(0.975296 0.00371419 0)
(0.979107 0.00617082 0)
(0.982024 0.0104245 0)
(0.983498 0.0113069 0)
(0.986128 0.0130402 0)
(0.987746 0.012356 0)
(0.988249 0.0138333 0)
(0.988805 0.0133638 0)
(1.00299 -0.00927349 0)
(0.987343 -0.00355311 0)
(0.987486 0.00834847 0)
(1.00232 0.0102527 0)
(1.01241 0.00283211 0)
(1.01073 -0.0107814 0)
(1.00359 -0.0178325 0)
(0.995797 -0.0225211 0)
(0.989047 -0.0201065 0)
(0.98028 -0.0162217 0)
(0.978252 -0.0100474 0)
(0.976392 -0.00599552 0)
(0.975782 0.0034465 0)
(0.979346 0.00595261 0)
(0.982337 0.00989481 0)
(0.983737 0.0110616 0)
(0.986227 0.0128747 0)
(0.987879 0.0120324 0)
(0.988459 0.0135323 0)
(0.988995 0.0134314 0)
(1.00296 -0.00905273 0)
(0.987481 -0.00353907 0)
(0.987912 0.00822347 0)
(1.00226 0.00975143 0)
(1.01203 0.00275964 0)
(1.01053 -0.0107019 0)
(1.00336 -0.0174054 0)
(0.995928 -0.0219212 0)
(0.989085 -0.0198403 0)
(0.980534 -0.015737 0)
(0.978436 -0.00982877 0)
(0.976813 -0.0060178 0)
(0.976246 0.00331853 0)
(0.979608 0.0056952 0)
(0.98262 0.0095675 0)
(0.983944 0.0107714 0)
(0.986332 0.0125743 0)
(0.988069 0.0120842 0)
(0.988704 0.0133736 0)
(0.989131 0.0132282 0)
(1.00295 -0.00885723 0)
(0.987583 -0.00346915 0)
(0.988329 0.00801503 0)
(1.00226 0.00938372 0)
(1.01165 0.00251219 0)
(1.01031 -0.0103734 0)
(1.00316 -0.0172335 0)
(0.99603 -0.0211061 0)
(0.989193 -0.0197606 0)
(0.980823 -0.0149439 0)
(0.978659 -0.0100567 0)
(0.977266 -0.00547126 0)
(0.97672 0.00249593 0)
(0.979899 0.00596988 0)
(0.98289 0.00863371 0)
(0.984202 0.0108818 0)
(0.986464 0.0122561 0)
(0.988202 0.0123284 0)
(0.988824 0.013008 0)
(0.989225 0.0131068 0)
(1.00296 -0.00862629 0)
(0.987682 -0.00345514 0)
(0.988707 0.00791013 0)
(1.0023 0.00885513 0)
(1.01128 0.00246543 0)
(1.01005 -0.0103249 0)
(1.00296 -0.0167877 0)
(0.996128 -0.0205403 0)
(0.989338 -0.0193401 0)
(0.981157 -0.0146323 0)
(0.978916 -0.00973395 0)
(0.977776 -0.00552784 0)
(0.977215 0.00246208 0)
(0.980198 0.00561939 0)
(0.983161 0.00834194 0)
(0.984495 0.0104658 0)
(0.986536 0.0120185 0)
(0.988283 0.0119382 0)
(0.988925 0.0127369 0)
(0.989314 0.0130491 0)
(1.00297 -0.00837382 0)
(0.987796 -0.003476 0)
(0.989048 0.00776439 0)
(1.00236 0.00840448 0)
(1.01092 0.00227861 0)
(1.00976 -0.0101174 0)
(1.00277 -0.016405 0)
(0.99621 -0.0199343 0)
(0.989514 -0.0189548 0)
(0.981566 -0.0143033 0)
(0.979186 -0.00929974 0)
(0.978358 -0.00565934 0)
(0.977723 0.00241735 0)
(0.980543 0.00527035 0)
(0.983444 0.00830555 0)
(0.984793 0.0100485 0)
(0.986679 0.0118661 0)
(0.988412 0.0117141 0)
(0.989131 0.0124017 0)
(0.989416 0.0127035 0)
(1.00297 -0.00817437 0)
(0.987938 -0.00340463 0)
(0.989353 0.00752015 0)
(1.00241 0.0080684 0)
(1.01057 0.00196569 0)
(1.0094 -0.00965583 0)
(1.0026 -0.0164033 0)
(0.996267 -0.0189369 0)
(0.98974 -0.0189077 0)
(0.982003 -0.0134926 0)
(0.979513 -0.00961232 0)
(0.978951 -0.00500844 0)
(0.97828 0.00151034 0)
(0.980929 0.00564191 0)
(0.983751 0.00747807 0)
(0.985111 0.0102051 0)
(0.986834 0.0113144 0)
(0.988472 0.0120083 0)
(0.989238 0.0120887 0)
(0.989501 0.0125352 0)
(1.00297 -0.00791184 0)
(0.98813 -0.00342018 0)
(0.989614 0.00740875 0)
(1.00246 0.00757805 0)
(1.01022 0.00183859 0)
(1.00902 -0.00958197 0)
(1.00242 -0.0158718 0)
(0.996314 -0.0184927 0)
(0.989989 -0.0183243 0)
(0.98248 -0.0133908 0)
(0.979879 -0.00900358 0)
(0.979586 -0.00514802 0)
(0.978884 0.00155592 0)
(0.981337 0.00521507 0)
(0.984081 0.00728277 0)
(0.985447 0.00965724 0)
(0.987009 0.0110443 0)
(0.988567 0.0115845 0)
(0.989294 0.0119583 0)
(0.989568 0.0124019 0)
(1.00294 -0.00763443 0)
(0.988367 -0.00345789 0)
(0.98985 0.00724484 0)
(1.00247 0.00714067 0)
(1.00987 0.00162752 0)
(1.00861 -0.00932943 0)
(1.00222 -0.0155046 0)
(0.996358 -0.0179634 0)
(0.990233 -0.0177178 0)
(0.98303 -0.0132707 0)
(0.980261 -0.00845474 0)
(0.980254 -0.00540514 0)
(0.979516 0.00163222 0)
(0.981766 0.00480178 0)
(0.984443 0.00722496 0)
(0.985814 0.00894948 0)
(0.987238 0.0108581 0)
(0.988694 0.0112101 0)
(0.98951 0.0117052 0)
(0.989654 0.0121461 0)
(1.00291 -0.00744316 0)
(0.988634 -0.0033562 0)
(0.990083 0.00694331 0)
(1.00245 0.00689299 0)
(1.00952 0.00122258 0)
(1.00815 -0.00874252 0)
(1.00203 -0.0155654 0)
(0.996375 -0.0169094 0)
(0.990514 -0.0177117 0)
(0.983552 -0.0123927 0)
(0.980709 -0.00888596 0)
(0.980931 -0.00456347 0)
(0.980222 0.000744105 0)
(0.98225 0.00536552 0)
(0.98481 0.00649785 0)
(0.986213 0.00930186 0)
(0.987564 0.0103272 0)
(0.988843 0.0116466 0)
(0.989659 0.0113276 0)
(0.98977 0.0118047 0)
(1.00285 -0.00713413 0)
(0.988954 -0.00342223 0)
(0.990297 0.00683806 0)
(1.00241 0.00640546 0)
(1.00916 0.00109544 0)
(1.0077 -0.00869879 0)
(1.00184 -0.0149297 0)
(0.996383 -0.0166269 0)
(0.990789 -0.0169729 0)
(0.984114 -0.0123019 0)
(0.9812 -0.00829393 0)
(0.981607 -0.0047531 0)
(0.980958 0.000697504 0)
(0.982735 0.00485831 0)
(0.985209 0.006399 0)
(0.986597 0.00876816 0)
(0.987817 0.0101008 0)
(0.988922 0.0111899 0)
(0.989605 0.0114328 0)
(0.989815 0.0117424 0)
(1.00278 -0.00687276 0)
(0.989303 -0.00342388 0)
(0.990521 0.00661772 0)
(1.00236 0.00603924 0)
(1.00879 0.000856307 0)
(1.00725 -0.00845291 0)
(1.00162 -0.0144812 0)
(0.996409 -0.0162272 0)
(0.99106 -0.0162004 0)
(0.984688 -0.0122899 0)
(0.981662 -0.0076348 0)
(0.982308 -0.00497607 0)
(0.981729 0.000694862 0)
(0.983297 0.00423428 0)
(0.985642 0.00637955 0)
(0.987064 0.00778871 0)
(0.988224 0.00982805 0)
(0.989235 0.0105657 0)
(0.989903 0.0114645 0)
(0.989871 0.0118532 0)
(1.00271 -0.00666302 0)
(0.989658 -0.00334402 0)
(0.99077 0.00630281 0)
(1.00227 0.00583469 0)
(1.00843 0.000434109 0)
(1.00678 -0.00789979 0)
(1.00142 -0.0143898 0)
(0.996415 -0.015342 0)
(0.99134 -0.0160772 0)
(0.985253 -0.0115022 0)
(0.982207 -0.00775311 0)
(0.982939 -0.00416974 0)
(0.982491 -5.85267e-05 0)
(0.983892 0.0045356 0)
(0.986063 0.00567546 0)
(0.987522 0.00798843 0)
(0.988643 0.00928719 0)
(0.989502 0.0106944 0)
(0.990136 0.0110946 0)
(0.98998 0.0114737 0)
(1.00263 -0.00633304 0)
(0.990034 -0.0034189 0)
(0.991019 0.00615885 0)
(1.00218 0.00536285 0)
(1.00805 0.000329553 0)
(1.00633 -0.00786585 0)
(1.00122 -0.013771 0)
(0.99642 -0.0149715 0)
(0.991634 -0.0154226 0)
(0.985825 -0.0113205 0)
(0.982744 -0.00711146 0)
(0.983581 -0.00428366 0)
(0.98328 0.00011799 0)
(0.984456 0.00427693 0)
(0.986504 0.00557229 0)
(0.988001 0.00766501 0)
(0.989046 0.00885944 0)
(0.989834 0.0102884 0)
(0.990253 0.0107126 0)
(0.99001 0.0110729 0)
(1.00254 -0.0060979 0)
(0.990426 -0.00338519 0)
(0.991275 0.00588782 0)
(1.00209 0.00510523 0)
(1.00767 7.17628e-06 0)
(1.0059 -0.0075849 0)
(1.00102 -0.0133308 0)
(0.996444 -0.0144705 0)
(0.991892 -0.0148265 0)
(0.986436 -0.0109847 0)
(0.983275 -0.00678849 0)
(0.984203 -0.00397075 0)
(0.984069 9.89503e-06 0)
(0.98505 0.00372316 0)
(0.986931 0.00573733 0)
(0.988422 0.00710535 0)
(0.989474 0.00851756 0)
(0.990147 0.00970477 0)
(0.990503 0.0102457 0)
(0.990125 0.0107392 0)
(1.00244 -0.005844 0)
(0.990814 -0.00334531 0)
(0.991556 0.005603 0)
(1.00198 0.00483948 0)
(1.0073 -0.000272589 0)
(1.00547 -0.00729193 0)
(1.00082 -0.0129748 0)
(0.996454 -0.0138143 0)
(0.992196 -0.0143721 0)
(0.98699 -0.0105429 0)
(0.983862 -0.00655257 0)
(0.984809 -0.00356799 0)
(0.984763 -0.000336995 0)
(0.985722 0.00373112 0)
(0.987383 0.00536637 0)
(0.988828 0.00687817 0)
(0.989888 0.00808642 0)
(0.990476 0.00929752 0)
(0.990722 0.00976948 0)
(0.990253 0.0103664 0)
(1.00235 -0.00554105 0)
(0.99121 -0.00337924 0)
(0.99183 0.00538891 0)
(1.00189 0.00445054 0)
(1.00693 -0.000365949 0)
(1.00506 -0.00723694 0)
(1.00064 -0.0123962 0)
(0.996482 -0.0133561 0)
(0.992447 -0.0137156 0)
(0.987604 -0.0103377 0)
(0.98443 -0.00603567 0)
(0.985365 -0.00356611 0)
(0.98555 -0.000254557 0)
(0.986336 0.00345522 0)
(0.987792 0.00503439 0)
(0.989257 0.00671697 0)
(0.990298 0.00766832 0)
(0.990797 0.00883613 0)
(0.991004 0.00944933 0)
(0.990443 0.0100736 0)
(1.00225 -0.00530838 0)
(0.991603 -0.00334164 0)
(0.992118 0.00508842 0)
(1.00178 0.00423449 0)
(1.00657 -0.000632217 0)
(1.00466 -0.00694724 0)
(1.00045 -0.0119944 0)
(0.996503 -0.0128099 0)
(0.992738 -0.0131468 0)
(0.988177 -0.0098316 0)
(0.985017 -0.00601099 0)
(0.985945 -0.00308268 0)
(0.986228 -0.000439761 0)
(0.986964 0.00307465 0)
(0.988302 0.00490751 0)
(0.989658 0.00652812 0)
(0.990651 0.00724803 0)
(0.991188 0.00851934 0)
(0.991301 0.00911561 0)
(0.990571 0.00955933 0)
(1.00215 -0.00503105 0)
(0.992 -0.00332823 0)
(0.992401 0.00487444 0)
(1.00167 0.00384667 0)
(1.00622 -0.000716753 0)
(1.00428 -0.00680924 0)
(1.00028 -0.011545 0)
(0.996552 -0.0122648 0)
(0.993001 -0.012454 0)
(0.98875 -0.00966497 0)
(0.985628 -0.00557045 0)
(0.986481 -0.00299357 0)
(0.986902 -0.000467478 0)
(0.987632 0.00290254 0)
(0.988774 0.00466673 0)
(0.990024 0.00615036 0)
(0.991051 0.00697186 0)
(0.991555 0.00816457 0)
(0.991516 0.00859743 0)
(0.990725 0.00909428 0)
(1.00205 -0.00476405 0)
(0.992393 -0.00332176 0)
(0.992684 0.00457631 0)
(1.00157 0.0035605 0)
(1.00588 -0.00084878 0)
(1.00391 -0.00659943 0)
(1.00012 -0.011074 0)
(0.9966 -0.0117733 0)
(0.993256 -0.0119065 0)
(0.989331 -0.00922932 0)
(0.986231 -0.00540316 0)
(0.987017 -0.00274305 0)
(0.98757 -0.000448523 0)
(0.988249 0.00258055 0)
(0.98926 0.00436795 0)
(0.990441 0.00597117 0)
(0.991429 0.00674194 0)
(0.991879 0.00769248 0)
(0.991792 0.00814733 0)
(0.990931 0.00872778 0)
(1.00196 -0.0045164 0)
(0.992781 -0.00329568 0)
(0.992971 0.00434651 0)
(1.00146 0.00324412 0)
(1.00554 -0.000993576 0)
(1.00355 -0.00635258 0)
(0.999956 -0.0106401 0)
(0.996658 -0.011288 0)
(0.993531 -0.0112552 0)
(0.989881 -0.00886996 0)
(0.986858 -0.00519756 0)
(0.987557 -0.00252909 0)
(0.988169 -0.000501258 0)
(0.988889 0.00238255 0)
(0.989803 0.00412963 0)
(0.990846 0.00572337 0)
(0.991751 0.00637708 0)
(0.992188 0.00730285 0)
(0.992067 0.00777911 0)
(0.991142 0.00830877 0)
(1.00186 -0.00425024 0)
(0.993168 -0.00327546 0)
(0.99325 0.00408007 0)
(1.00135 0.00291455 0)
(1.00522 -0.00109373 0)
(1.0032 -0.00610811 0)
(0.999804 -0.010171 0)
(0.996735 -0.0107976 0)
(0.993781 -0.0106768 0)
(0.990435 -0.00852192 0)
(0.987478 -0.00497541 0)
(0.988074 -0.00237758 0)
(0.988796 -0.000463646 0)
(0.989501 0.00218769 0)
(0.990308 0.00381064 0)
(0.991246 0.00541462 0)
(0.992105 0.00610983 0)
(0.992532 0.00700146 0)
(0.992345 0.00743198 0)
(0.99136 0.00791085 0)
(1.00177 -0.00399968 0)
(0.993547 -0.00325949 0)
(0.993534 0.00381321 0)
(1.00125 0.00263832 0)
(1.00491 -0.00122253 0)
(1.00287 -0.0058382 0)
(0.999652 -0.00972392 0)
(0.996808 -0.0103389 0)
(0.994051 -0.0101346 0)
(0.990967 -0.00807786 0)
(0.988114 -0.00481933 0)
(0.988614 -0.00215862 0)
(0.989357 -0.000466777 0)
(0.990096 0.00196188 0)
(0.990858 0.00354656 0)
(0.991694 0.00517112 0)
(0.992448 0.00586853 0)
(0.992827 0.00666098 0)
(0.992591 0.00707436 0)
(0.991576 0.0074811 0)
(1.00168 -0.00375352 0)
(0.993925 -0.00322117 0)
(0.993813 0.00356765 0)
(1.00115 0.0023384 0)
(1.00462 -0.00135878 0)
(1.00255 -0.0055664 0)
(0.999505 -0.00923991 0)
(0.996902 -0.00985953 0)
(0.994315 -0.00957486 0)
(0.991496 -0.00771046 0)
(0.988738 -0.00461483 0)
(0.989129 -0.0020566 0)
(0.989924 -0.000452924 0)
(0.990684 0.00182897 0)
(0.991392 0.00330926 0)
(0.992127 0.00485839 0)
(0.992785 0.00557464 0)
(0.993145 0.00632383 0)
(0.992843 0.00675549 0)
(0.99179 0.00708864 0)
(1.00159 -0.00351045 0)
(0.994293 -0.00319736 0)
(0.994092 0.00328804 0)
(1.00105 0.00208505 0)
(1.00434 -0.00149582 0)
(1.00226 -0.00527824 0)
(0.999359 -0.00874821 0)
(0.996987 -0.00938967 0)
(0.994581 -0.00909694 0)
(0.992004 -0.0073008 0)
(0.989366 -0.00446172 0)
(0.989666 -0.00189749 0)
(0.990465 -0.000398789 0)
(0.991251 0.00168304 0)
(0.991925 0.00305181 0)
(0.992587 0.00455641 0)
(0.993141 0.0053428 0)
(0.993448 0.0060209 0)
(0.993073 0.00644542 0)
(0.992 0.00672352 0)
(1.0015 -0.00326261 0)
(0.994658 -0.00315304 0)
(0.99437 0.00302159 0)
(1.00095 0.00183002 0)
(1.00407 -0.00167372 0)
(1.00198 -0.00501428 0)
(0.999215 -0.00822117 0)
(0.997082 -0.00891159 0)
(0.994849 -0.00859441 0)
(0.992509 -0.00692469 0)
(0.989986 -0.00426115 0)
(0.990191 -0.00179287 0)
(0.990992 -0.000369141 0)
(0.991793 0.00153675 0)
(0.992447 0.00281959 0)
(0.99306 0.00425446 0)
(0.993495 0.00508301 0)
(0.993752 0.00570453 0)
(0.993306 0.00614916 0)
(0.9922 0.00638263 0)
(1.00142 -0.00305434 0)
(0.995009 -0.00308555 0)
(0.994645 0.00272637 0)
(1.00085 0.00162842 0)
(1.00383 -0.00185766 0)
(1.00173 -0.00477692 0)
(0.999075 -0.00768009 0)
(0.997164 -0.00839033 0)
(0.995111 -0.00811966 0)
(0.992995 -0.00654653 0)
(0.9906 -0.00409918 0)
(0.990726 -0.00169811 0)
(0.991502 -0.0003256 0)
(0.992324 0.00142335 0)
(0.992965 0.00262859 0)
(0.993545 0.00396066 0)
(0.993865 0.00482975 0)
(0.994058 0.00542493 0)
(0.993534 0.00586302 0)
(0.992395 0.00607722 0)
(1.00133 -0.00281137 0)
(0.995355 -0.00305166 0)
(0.994923 0.00248784 0)
(1.00075 0.0013816 0)
(1.00358 -0.00196471 0)
(1.00151 -0.00461317 0)
(0.998959 -0.00714872 0)
(0.997259 -0.0078557 0)
(0.995374 -0.00763506 0)
(0.993472 -0.00618921 0)
(0.991196 -0.00390041 0)
(0.991251 -0.00162116 0)
(0.991997 -0.000284455 0)
(0.992824 0.00132509 0)
(0.993451 0.00244233 0)
(0.994021 0.00366004 0)
(0.994241 0.00455692 0)
(0.994361 0.00514194 0)
(0.993761 0.00557776 0)
(0.992583 0.00579704 0)
(1.00125 -0.0025909 0)
(0.995688 -0.00299263 0)
(0.995193 0.00222374 0)
(1.00065 0.00115397 0)
(1.00337 -0.00209158 0)
(1.00133 -0.00446591 0)
(0.99884 -0.00659991 0)
(0.997321 -0.00729625 0)
(0.995611 -0.00715049 0)
(0.993931 -0.00582271 0)
(0.991791 -0.00370084 0)
(0.991788 -0.00153461 0)
(0.992496 -0.000255626 0)
(0.993326 0.00124838 0)
(0.993936 0.00228588 0)
(0.994512 0.00339118 0)
(0.994645 0.00428531 0)
(0.994683 0.00488655 0)
(0.994005 0.00532259 0)
(0.992774 0.00555417 0)
(1.00117 -0.00240405 0)
(0.996013 -0.00290623 0)
(0.995463 0.00196123 0)
(1.00056 0.000989191 0)
(1.00315 -0.00227097 0)
(1.00117 -0.00430143 0)
(0.998742 -0.00606667 0)
(0.997384 -0.00675431 0)
(0.995841 -0.00668606 0)
(0.994378 -0.00548956 0)
(0.992368 -0.00350489 0)
(0.992313 -0.00146459 0)
(0.992987 -0.000222474 0)
(0.993811 0.00118529 0)
(0.994393 0.00214847 0)
(0.994984 0.00314169 0)
(0.995059 0.00400112 0)
(0.995017 0.004633 0)
(0.994256 0.00506122 0)
(0.992958 0.00531573 0)
(1.00109 -0.00217379 0)
(0.996323 -0.00285282 0)
(0.995728 0.00173173 0)
(1.00046 0.000810008 0)
(1.00295 -0.00239456 0)
(1.00106 -0.00411879 0)
(0.998666 -0.00557353 0)
(0.997438 -0.00625213 0)
(0.996053 -0.00625759 0)
(0.994808 -0.00519507 0)
(0.992935 -0.00334076 0)
(0.992837 -0.0013903 0)
(0.993469 -0.000210796 0)
(0.994281 0.00111377 0)
(0.99483 0.0020242 0)
(0.995439 0.00292995 0)
(0.995484 0.00372449 0)
(0.995366 0.00438399 0)
(0.994521 0.00480276 0)
(0.993148 0.00509688 0)
(1.00102 -0.00199202 0)