/*--------------------------------*- C++ -*----------------------------------*\
| =========                 |                                                 |
| \\      /  F ield         | OpenFOAM: The Open Source CFD Toolbox           |
|  \\    /   O peration     | Version:  v2012                                 |
|   \\  /    A nd           | Website:  www.openfoam.com                      |
|    \\/     M anipulation  |                                                 |
\*---------------------------------------------------------------------------*/
FoamFile
{
    version     2.0;
    format      ascii;
    class       volScalarField;
    location    "3.7";
    object      p;
}
// * * * * * * * * * * * * * * * * * * * * * * * * * * * * * * * * * * * * * //

dimensions      [0 2 -2 0 0 0 0];


internalField   nonuniform List<scalar> 
7000
(
4.07709e-11
0.00138053
0.0018726
0.00160265
0.00180461
0.00291299
0.00405988
0.004031
-0.0013655
0.000314306
-0.00650703
-0.00606894
-0.00841409
-0.00687121
-0.00860111
-0.00749075
-0.0088654
-0.00868209
-0.00933686
-0.00930844
1.30577e-06
0.00137821
0.00187128
0.00160679
0.0018029
0.00289942
0.00407225
0.00399901
-0.00132178
0.000282643
-0.00647433
-0.00607349
-0.00840483
-0.00685557
-0.00859917
-0.00748151
-0.00886178
-0.0086762
-0.00933009
-0.00932943
2.7364e-06
0.00137503
0.00187025
0.00161384
0.00179831
0.0028823
0.00408378
0.00395552
-0.00127625
0.000238357
-0.00643355
-0.00608019
-0.00837589
-0.00684603
-0.00857545
-0.00748488
-0.00883659
-0.00867531
-0.00932099
-0.00934823
3.83291e-06
0.00137155
0.00186974
0.00162008
0.00179347
0.00286236
0.00408313
0.00389621
-0.00124489
0.000185906
-0.00638775
-0.00607768
-0.00832731
-0.00684759
-0.00852964
-0.00751383
-0.00880223
-0.00869369
-0.00931799
-0.00938061
4.62835e-06
0.00136765
0.00186952
0.00162505
0.00178853
0.0028384
0.00407091
0.00382054
-0.00122294
0.000129287
-0.00633438
-0.00606687
-0.0082649
-0.00686574
-0.00847479
-0.00756565
-0.00876937
-0.00872807
-0.00931898
-0.00942052
5.13628e-06
0.00136322
0.00186951
0.001629
0.00178326
0.00281032
0.00405023
0.00373067
-0.00120545
7.11209e-05
-0.00627409
-0.00605397
-0.00819604
-0.00689932
-0.00842027
-0.00762958
-0.00874198
-0.00876622
-0.00932075
-0.00945487
5.34353e-06
0.00135825
0.0018697
0.00163197
0.00177773
0.00277841
0.00402364
0.00363024
-0.00118896
1.13228e-05
-0.00620857
-0.00604368
-0.0081248
-0.00694287
-0.00836912
-0.00769736
-0.00872126
-0.00880137
-0.00932329
-0.00948116
5.25032e-06
0.00135283
0.00187006
0.00163401
0.001772
0.00274287
0.00399364
0.00352287
-0.00117317
-5.12969e-05
-0.00613864
-0.00603776
-0.00805125
-0.00699102
-0.00832188
-0.00776501
-0.00870676
-0.00883279
-0.00932906
-0.00950435
4.8677e-06
0.00134702
0.00187055
0.00163529
0.00176606
0.00270378
0.00396239
0.00341122
-0.00115783
-0.000117655
-0.00606423
-0.00603647
-0.00797435
-0.00704029
-0.0082782
-0.00783021
-0.0086983
-0.00886254
-0.00934028
-0.00952885
4.20999e-06
0.00134089
0.0018712
0.00163602
0.00175981
0.00266124
0.00393125
0.00329682
-0.00114263
-0.000188123
-0.00598506
-0.00603988
-0.00789351
-0.00708887
-0.00823731
-0.00789105
-0.00869625
-0.00889217
-0.00935667
-0.00955498
3.29748e-06
0.00133448
0.00187205
0.00163636
0.00175316
0.00261538
0.00390073
0.00318024
-0.00112723
-0.000262735
-0.00590114
-0.00604797
-0.00780872
-0.0071357
-0.0081988
-0.00794591
-0.00870069
-0.00892123
-0.00937557
-0.00958069
2.1642e-06
0.0013278
0.00187308
0.00163642
0.00174605
0.00256646
0.00387074
0.0030614
-0.00111131
-0.000341379
-0.00581268
-0.0060604
-0.00772056
-0.00717957
-0.00816262
-0.00799344
-0.00871063
-0.00894828
-0.0093941
-0.00960431
8.63958e-07
0.00132085
0.00187427
0.00163632
0.00173847
0.00251492
0.00384082
0.00293982
-0.00109432
-0.000423925
-0.00571988
-0.00607642
-0.00763024
-0.00721899
-0.00812909
-0.00803241
-0.00872437
-0.00897254
-0.00941056
-0.00962524
-5.29244e-07
0.00131365
0.00187561
0.00163621
0.00173045
0.00246128
0.0038104
0.00281495
-0.00107586
-0.000510265
-0.005623
-0.00609496
-0.00753924
-0.00725235
-0.00809897
-0.0080619
-0.0087402
-0.00899445
-0.00942424
-0.00964302
-1.92787e-06
0.0013062
0.00187706
0.00163625
0.00172212
0.00240613
0.00377903
0.00268634
-0.00105568
-0.000600305
-0.00552237
-0.00611483
-0.00744927
-0.00727815
-0.00807313
-0.00808159
-0.00875668
-0.00901494
-0.00943461
-0.0096569
-3.24387e-06
0.00129852
0.00187865
0.00163665
0.00171357
0.00234998
0.00374648
0.00255381
-0.00103371
-0.000693908
-0.00541849
-0.00613481
-0.00736243
-0.00729508
-0.00805219
-0.00809201
-0.00877254
-0.00903463
-0.00944113
-0.00966598
-4.40448e-06
0.00129059
0.00188041
0.00163755
0.00170493
0.00229317
0.00371275
0.0024175
-0.0010101
-0.000790781
-0.00531228
-0.00615342
-0.00728066
-0.00730245
-0.00803658
-0.0080947
-0.00878651
-0.00905391
-0.00944344
-0.00966939
-5.36466e-06
0.00128241
0.00188235
0.00163902
0.00169624
0.00223582
0.00367803
0.00227781
-0.000985185
-0.000890386
-0.00520502
-0.00616906
-0.00720561
-0.0073001
-0.00802649
-0.00809178
-0.00879753
-0.00907344
-0.00944175
-0.00966612
-6.11098e-06
0.00127393
0.00188448
0.00164103
0.00168748
0.00217786
0.00364252
0.00213534
-0.000959335
-0.000991886
-0.00509835
-0.00618001
-0.0071385
-0.00728839
-0.00802169
-0.00808552
-0.00880452
-0.00909421
-0.00943713
-0.00965531
-6.65651e-06
0.00126512
0.0018868
0.0016434
0.00167859
0.00211904
0.0036063
0.00199073
-0.000933021
-0.00109416
-0.00499412
-0.00618472
-0.00707998
-0.00726787
-0.00802145
-0.00807847
-0.00880643
-0.00911669
-0.00943149
-0.009637
-7.02974e-06
0.0012559
0.00188933
0.00164594
0.00166944
0.00205908
0.0035693
0.00184454
-0.000906838
-0.00119589
-0.00489408
-0.00618186
-0.00703045
-0.00723909
-0.00802431
-0.00807365
-0.00880275
-0.00913995
-0.00942642
-0.00961259
-7.26141e-06
0.00124621
0.00189211
0.00164837
0.00165996
0.00199769
0.00353131
0.00169729
-0.000881512
-0.00129572
-0.0047999
-0.00617028
-0.00699015
-0.00720306
-0.00802781
-0.0080738
-0.00879466
-0.00916279
-0.00942224
-0.0095833
-7.37383e-06
0.00123597
0.00189517
0.00165047
0.00165006
0.00193467
0.00349206
0.00154951
-0.000857954
-0.00139215
-0.00471314
-0.00614929
-0.00695892
-0.00716118
-0.00802881
-0.00808008
-0.00878369
-0.00918523
-0.00941991
-0.00954937
-7.37518e-06
0.00122509
0.00189855
0.00165201
0.00163971
0.00186989
0.00345123
0.00140188
-0.000837312
-0.00148361
-0.00463498
-0.00611886
-0.00693616
-0.00711566
-0.00802516
-0.00809221
-0.00877001
-0.00920606
-0.00942005
-0.00951191
-7.2589e-06
0.0012135
0.00190227
0.00165284
0.0016289
0.00180328
0.00340842
0.00125527
-0.000820735
-0.0015688
-0.00456635
-0.0060792
-0.00692067
-0.00706878
-0.00801567
-0.00811087
-0.00875439
-0.00922342
-0.00942187
-0.00947132
-7.00793e-06
0.00120111
0.00190631
0.0016528
0.0016176
0.00173488
0.00336319
0.00111047
-0.000809228
-0.00164647
-0.00450859
-0.00603034
-0.00691067
-0.0070233
-0.00799881
-0.0081369
-0.00873809
-0.00923417
-0.00942527
-0.00942938
-6.59425e-06
0.00118783
0.00191067
0.00165181
0.00160577
0.00166474
0.00331522
0.000968438
-0.000804182
-0.00171524
-0.00446259
-0.00597357
-0.0069038
-0.0069822
-0.00797336
-0.00817039
-0.00872557
-0.00923368
-0.00942403
-0.00938849
-5.96931e-06
0.00117355
0.00191533
0.00164977
0.00159338
0.00159303
0.00326385
0.000830578
-0.000806903
-0.00177497
-0.00442764
-0.00591062
-0.00689825
-0.00694773
-0.00793928
-0.008208
-0.00872107
-0.00922644
-0.00941439
-0.00934464
-5.08845e-06
0.00115818
0.00192025
0.00164664
0.00158038
0.00152013
0.00320837
0.000697655
-0.000817836
-0.00182488
-0.00440423
-0.00584288
-0.00689092
-0.0069213
-0.00790031
-0.00824581
-0.00871844
-0.00921392
-0.00940181
-0.00929822
-3.91395e-06
0.00114163
0.00192537
0.00164241
0.00156654
0.00144661
0.00314791
0.000570895
-0.000838858
-0.00186397
-0.00439161
-0.00577369
-0.00687915
-0.0069029
-0.00785916
-0.00828524
-0.00872516
-0.00919171
-0.0093725
-0.00925187
-2.33027e-06
0.00112375
0.00193071
0.00163714
0.00155162
0.00137301
0.00308153
0.000451163
-0.000870983
-0.00189398
-0.00438736
-0.00570414
-0.00686181
-0.00689549
-0.00781524
-0.00832774
-0.00874326
-0.00916924
-0.00932104
-0.0092012
-3.42671e-07
0.00110451
0.00193607
0.00163097
0.0015354
0.00129982
0.00300905
0.000337834
-0.000912216
-0.00191552
-0.00439033
-0.00563763
-0.00683407
-0.00689982
-0.00777185
-0.00834836
-0.00876055
-0.0091487
-0.00929355
-0.00914435
2.1243e-06
0.0010838
0.00194134
0.00162395
0.00151768
0.00122776
0.00292953
0.000232207
-0.000965585
-0.00192863
-0.00439541
-0.00558413
-0.00679402
-0.00690992
-0.00773116
-0.00837944
-0.00878967
-0.00913554
-0.009241
-0.00907565
5.44417e-06
0.00106143
0.00194679
0.00161599
0.00149814
0.0011575
0.00284256
0.000134579
-0.00102639
-0.00193699
-0.00440038
-0.00554071
-0.00674539
-0.00692374
-0.00769394
-0.00838743
-0.00881816
-0.00913118
-0.00924295
-0.0089946
9.16745e-06
0.0010375
0.00195177
0.00160797
0.00147573
0.0010898
0.00274743
4.5196e-05
-0.00109763
-0.00194121
-0.00440537
-0.00549861
-0.006694
-0.00694312
-0.00766327
-0.00841842
-0.00885142
-0.0091225
-0.00919365
-0.00891061
1.35347e-05
0.00101177
0.00195597
0.00160019
0.00145009
0.00102566
0.00264301
-3.62886e-05
-0.00118163
-0.00193817
-0.00440685
-0.00546893
-0.0066386
-0.00697593
-0.00765648
-0.00843917
-0.00889383
-0.0091131
-0.00907714
-0.00882112
1.96693e-05
0.000983947
0.00196099
0.001592
0.00142174
0.000964309
0.00253198
-0.000113628
-0.00126436
-0.00194218
-0.00440192
-0.00545683
-0.00657851
-0.00699089
-0.00764136
-0.00845566
-0.00891727
-0.00911438
-0.00909777
-0.00872035
2.59257e-05
0.000954635
0.00196386
0.00158499
0.00138854
0.000907064
0.00241273
-0.00018395
-0.0013529
-0.00194606
-0.00439108
-0.00544729
-0.00653112
-0.00701346
-0.0076727
-0.00845969
-0.00894187
-0.00911074
-0.00904058
-0.00861808
3.27463e-05
0.000923459
0.0019635
0.00157986
0.00135
0.000854903
0.00228416
-0.000247229
-0.00145064
-0.00194541
-0.004373
-0.00544627
-0.00649052
-0.00707962
-0.007699
-0.00845553
-0.00897009
-0.00910045
-0.00888288
-0.00851865
4.34321e-05
0.000889803
0.00196792
0.00157511
0.00130883
0.000803241
0.00215386
-0.000314768
-0.00153855
-0.00196432
-0.00434825
-0.00545838
-0.00644484
-0.00706045
-0.00769896
-0.00846188
-0.00896717
-0.00911239
-0.00896202
-0.00841422
5.23816e-05
0.000854957
0.00196452
0.00157329
0.0012613
0.000755827
0.00201817
-0.000377332
-0.00162929
-0.00197816
-0.00432183
-0.00547672
-0.00641672
-0.00710723
-0.0077235
-0.00846193
-0.00897874
-0.00911462
-0.00891685
-0.00830691
6.2423e-05
0.000818327
0.00195366
0.0015749
0.00120761
0.000712456
0.00187608
-0.000432461
-0.00172797
-0.0019796
-0.00429046
-0.00551537
-0.00640282
-0.00713582
-0.00776736
-0.0084623
-0.00900799
-0.00910028
-0.00872361
-0.00820298
8.23725e-05
0.000779497
0.00199838
0.00157751
0.00115323
0.000663227
0.00174098
-0.000502884
-0.00181331
-0.00200834
-0.0042528
-0.00553853
-0.00638019
-0.00714467
-0.00779722
-0.00847764
-0.00902639
-0.00916428
-0.00886387
-0.00808339
8.23925e-05
0.000740058
0.00196677
0.00158426
0.00109353
0.000614514
0.00160932
-0.00057346
-0.00189845
-0.00204509
-0.00420924
-0.00556895
-0.00636863
-0.00715682
-0.00782931
-0.00850388
-0.00906275
-0.00924593
-0.00889311
-0.00793738
9.97715e-05
0.000698825
0.00194734
0.00159513
0.00103053
0.000564602
0.00147562
-0.000637056
-0.0019917
-0.00208113
-0.00416696
-0.00560697
-0.00636367
-0.00714827
-0.00786288
-0.00853546
-0.00910217
-0.0092779
-0.00885873
-0.00781048
0.000119254
0.000656188
0.00193203
0.00160822
0.000967609
0.000508717
0.00134548
-0.000700896
-0.00208769
-0.00213007
-0.00412627
-0.00563831
-0.00636982
-0.0071406
-0.0078903
-0.00856396
-0.00912279
-0.00928309
-0.00882961
-0.00769512
0.000135704
0.000613645
0.00189722
0.00162452
0.000904086
0.000447886
0.00121881
-0.000763246
-0.00218674
-0.0021926
-0.00407852
-0.00566702
-0.00639382
-0.00711955
-0.00790114
-0.00859112
-0.00914333
-0.00929183
-0.00877296
-0.00756472
0.000159212
0.000570316
0.00186004
0.00164308
0.000843766
0.00037959
0.00109344
-0.000822998
-0.00228624
-0.00226763
-0.00403396
-0.00569153
-0.00641672
-0.00709886
-0.00791492
-0.00862779
-0.00914909
-0.00926557
-0.00870949
-0.00743077
0.000180531
0.000527239
0.00181431
0.00166268
0.000786838
0.000304285
0.000970586
-0.000880267
-0.00238781
-0.00235636
-0.00398944
-0.00570207
-0.00644881
-0.00709457
-0.00792139
-0.00864129
-0.00913433
-0.00923566
-0.00864496
-0.00730634
0.000204537
0.000485037
0.00175165
0.00168207
0.000735648
0.000223289
0.000845297
-0.000935317
-0.00248922
-0.00245204
-0.00394349
-0.00570635
-0.00649576
-0.00709239
-0.00789571
-0.00863207
-0.00912875
-0.00921702
-0.00857655
-0.0071804
0.000230862
0.000443196
0.00170613
0.00170009
0.000691353
0.000134647
0.000717525
-0.00098565
-0.00258603
-0.00256121
-0.0039077
-0.00569927
-0.0065377
-0.00709009
-0.00786475
-0.00863549
-0.00912832
-0.00917224
-0.00850594
-0.00705982
0.000257224
0.000402875
0.0016338
0.00171489
0.000653446
4.25687e-05
0.000587285
-0.00103311
-0.0026797
-0.00268142
-0.00387638
-0.00567464
-0.00658321
-0.00710525
-0.00784585
-0.00862387
-0.00909561
-0.00911895
-0.00844904
-0.00694871
0.00028626
0.000364377
0.00155427
0.00172531
0.000623814
-5.31608e-05
0.000450389
-0.00107937
-0.00276556
-0.00280655
-0.00385491
-0.00564232
-0.00662519
-0.0071321
-0.0078129
-0.00857734
-0.00905742
-0.00908825
-0.00840017
-0.00682844
0.000315623
0.000327462
0.0014694
0.00173038
0.000600416
-0.000151136
0.000308153
-0.00112147
-0.00284099
-0.00294182
-0.00384737
-0.00559752
-0.00665515
-0.00716058
-0.00778065
-0.00853113
-0.00903304
-0.00905206
-0.00832419
-0.00670067
0.000346075
0.00029338
0.00137749
0.00172751
0.000583524
-0.000248327
0.000160095
-0.00116527
-0.00290669
-0.00308008
-0.00385333
-0.00554312
-0.00667445
-0.00719517
-0.00776541
-0.00848619
-0.00898898
-0.00898971
-0.00824087
-0.00658085
0.000377259
0.000262076
0.00128007
0.00171597
0.000571834
-0.000344708
5.74737e-06
-0.00121023
-0.0029593
-0.00321728
-0.00387725
-0.00548624
-0.00668015
-0.00723152
-0.00775797
-0.00843162
-0.00892485
-0.00891459
-0.00815688
-0.00647165
0.000408702
0.000234397
0.00117795
0.00169369
0.000563341
-0.000437512
-0.000152888
-0.00125911
-0.00299944
-0.00335223
-0.00391825
-0.00542933
-0.00667256
-0.00726206
-0.00775418
-0.00837649
-0.00884817
-0.00883359
-0.00807889
-0.00636316
0.00044005
0.000210818
0.00107225
0.00165926
0.000557045
-0.000525793
-0.000315796
-0.00131352
-0.00302717
-0.0034797
-0.00397361
-0.00537716
-0.00665264
-0.00728345
-0.0077529
-0.00832562
-0.00877367
-0.00875837
-0.0079891
-0.00623644
0.000470739
0.000191714
0.000965359
0.00161115
0.000550082
-0.000609448
-0.000481569
-0.00137273
-0.00304274
-0.00359748
-0.00404282
-0.00533097
-0.00662096
-0.00729664
-0.00775328
-0.00828541
-0.00870689
-0.00866998
-0.00787287
-0.00610058
0.000500471
0.000178079
0.000858162
0.00154827
0.000540498
-0.000681161
-0.00064926
-0.00143732
-0.00304733
-0.00370307
-0.00412307
-0.0052927
-0.00658088
-0.00730362
-0.00775399
-0.00824885
-0.00863342
-0.00856815
-0.00775276
-0.00596818
0.000527778
0.000170383
0.000752184
0.00147062
0.000525174
-0.000759308
-0.000813737
-0.00150739
-0.00304204
-0.00379392
-0.00421046
-0.00526567
-0.00653545
-0.00730514
-0.0077506
-0.00820634
-0.00855756
-0.00847218
-0.00763976
-0.00583265
0.000553053
0.000168601
0.00064947
0.0013758
0.000501333
-0.000822698
-0.000972752
-0.00158634
-0.00303607
-0.00386887
-0.00430106
-0.00525175
-0.00648612
-0.00729784
-0.00774171
-0.00816098
-0.00848511
-0.00838146
-0.00752834
-0.00569405
0.000575443
0.000172337
0.000550948
0.00126339
0.000469469
-0.000874578
-0.00112558
-0.00167536
-0.00303075
-0.00392832
-0.00439145
-0.00524954
-0.00643228
-0.00728135
-0.00773514
-0.00811867
-0.00841073
-0.00828846
-0.00741671
-0.00555582
0.000594509
0.000181322
0.000456442
0.00113704
0.000429189
-0.000917034
-0.0012704
-0.00177336
-0.00302896
-0.00397324
-0.00447781
-0.00525737
-0.00637751
-0.00725846
-0.00773217
-0.00807712
-0.0083299
-0.00818908
-0.00730323
-0.00542157
0.000610304
0.000193452
0.0003671
0.00100065
0.000378223
-0.000952536
-0.00140523
-0.00187795
-0.00303287
-0.00400548
-0.00455762
-0.00527553
-0.0063267
-0.00722668
-0.00772594
-0.00803774
-0.00824607
-0.00808239
-0.00718787
-0.0052933
0.000622542
0.000207284
0.000284431
0.00085739
0.000314565
-0.000983422
-0.00152874
-0.00198684
-0.00304365
-0.00402762
-0.00463037
-0.0053029
-0.00628011
-0.00718406
-0.00771488
-0.0080048
-0.00816375
-0.00797156
-0.00706918
-0.00516485
0.000631216
0.000221441
0.000208962
0.000710504
0.000237813
-0.00101242
-0.00164031
-0.00209767
-0.00306198
-0.004042
-0.00469515
-0.00533727
-0.00623888
-0.00713313
-0.0076973
-0.00797773
-0.00808811
-0.00786015
-0.00694275
-0.00503145
0.000636342
0.000234636
0.000140892
0.000562593
0.000148526
-0.0010426
-0.00173983
-0.00220791
-0.00308877
-0.00405073
-0.00475057
-0.00537731
-0.00620571
-0.00707636
-0.00767015
-0.0079544
-0.0080211
-0.00774837
-0.00680945
-0.00489438
0.000635022
0.000245979
7.98967e-05
0.000416041
4.78604e-05
-0.00107638
-0.00182789
-0.00231571
-0.00312424
-0.00405602
-0.00479549
-0.00542116
-0.00618191
-0.00701588
-0.00763171
-0.00793059
-0.00796248
-0.00764192
-0.00667557
-0.00475509
0.000633043
0.000254843
2.52392e-05
0.000272897
-6.22803e-05
-0.00111581
-0.00190631
-0.00241948
-0.00316749
-0.00406006
-0.00482856
-0.0054655
-0.00616801
-0.00695484
-0.00758229
-0.00790301
-0.00791416
-0.00754731
-0.00654593
-0.00461562
0.000627851
0.000260628
-2.38034e-05
0.000134773
-0.00017981
-0.00116261
-0.00197723
-0.00251743
-0.00321698
-0.00406485
-0.00484951
-0.00550716
-0.0061655
-0.00689914
-0.00752497
-0.00786927
-0.00787305
-0.00746537
-0.00642612
-0.00447914
0.000619566
0.00026296
-6.82008e-05
2.95995e-06
-0.000302664
-0.00121769
-0.00204233
-0.00260831
-0.00327097
-0.00407273
-0.00486023
-0.00554297
-0.00617423
-0.00685365
-0.00746367
-0.00782614
-0.00783343
-0.0073967
-0.00631999
-0.004348
0.00060833
0.000261595
-0.000109031
-0.000121768
-0.000428667
-0.00128082
-0.00210351
-0.0026922
-0.00332803
-0.00408567
-0.00486386
-0.00557013
-0.0061905
-0.00682017
-0.00740214
-0.007773
-0.00779155
-0.00733819
-0.00622743
-0.00422647
0.000594328
0.00025641
-0.000147397
-0.000238942
-0.000555695
-0.00135158
-0.00216272
-0.00276938
-0.00338639
-0.0041047
-0.004864
-0.00558689
-0.00620922
-0.00679863
-0.0073449
-0.00771346
-0.0077447
-0.00728523
-0.00614895
-0.00411828
0.000577737
0.000247398
-0.000184299
-0.000348643
-0.000681476
-0.00142916
-0.00222213
-0.00284024
-0.00344425
-0.00412979
-0.00486383
-0.0055934
-0.00622566
-0.0067879
-0.00729754
-0.00765347
-0.0076926
-0.00723438
-0.00608095
-0.00402168
0.000558735
0.000234535
-0.000220483
-0.000451206
-0.000804291
-0.0015121
-0.00228322
-0.00290612
-0.00350029
-0.00415968
-0.00486599
-0.00559225
-0.00623679
-0.00678579
-0.00726307
-0.00759806
-0.00763711
-0.00718178
-0.00601747
-0.0039341
0.000537517
0.000218061
-0.000256433
-0.000547057
-0.000922963
-0.00159888
-0.00234676
-0.00296868
-0.00355372
-0.00419292
-0.00487218
-0.00558682
-0.00624168
-0.00678839
-0.00724042
-0.00755066
-0.00758163
-0.00712701
-0.00595661
-0.00385451
0.000514199
0.000198136
-0.000292506
-0.000636915
-0.00103692
-0.00168748
-0.00241263
-0.00302952
-0.00360455
-0.00422881
-0.00488323
-0.00558032
-0.00624114
-0.00679246
-0.0072278
-0.00751316
-0.00752935
-0.0070709
-0.00589631
-0.00378126
0.000488883
0.000175112
-0.000329363
-0.000721359
-0.00114585
-0.0017764
-0.00248025
-0.00309014
-0.00365309
-0.0042661
-0.00489975
-0.00557573
-0.00623633
-0.00679506
-0.00722335
-0.00748706
-0.00748388
-0.00701586
-0.00583648
-0.00371365
0.000461665
0.000149301
-0.000366987
-0.000801237
-0.00124952
-0.00186446
-0.00254912
-0.00315182
-0.00369999
-0.00430344
-0.00492188
-0.00557513
-0.0062294
-0.00679494
-0.00722445
-0.00747309
-0.00744981
-0.00696712
-0.00577954
-0.00365047
0.000432712
0.000121019
-0.000405388
-0.000877125
-0.00134816
-0.00195081
-0.00261806
-0.00321495
-0.00374658
-0.00433997
-0.00494943
-0.00558
-0.00622272
-0.00679219
-0.00722874
-0.00747068
-0.0074304
-0.00693007
-0.00572983
-0.00359258
0.000402121
9.06005e-05
-0.000444508
-0.000949396
-0.00144178
-0.00203511
-0.00268578
-0.00327921
-0.00379531
-0.00437507
-0.00498154
-0.00559247
-0.00621959
-0.00678764
-0.00723249
-0.00747518
-0.00742395
-0.00690781
-0.00569328
-0.00354565
0.000370097
5.81168e-05
-0.000484207
-0.00101827
-0.00153065
-0.00211722
-0.00275154
-0.0033434
-0.00384797
-0.00440925
-0.00501642
-0.00561375
-0.00622448
-0.00678589
-0.00723543
-0.00748236
-0.00742578
-0.0068988
-0.00567186
-0.0035136
0.000336717
2.41578e-05
-0.000524241
-0.00108405
-0.00161475
-0.00219732
-0.00281586
-0.00340595
-0.00390541
-0.00444392
-0.00505094
-0.00564261
-0.0062391
-0.00679234
-0.00724247
-0.00749469
-0.00743606
-0.00690144
-0.00566328
-0.00349428
0.000302068
-1.11512e-05
-0.000564103
-0.00114674
-0.00169446
-0.00227483
-0.00287941
-0.00346579
-0.0039675
-0.00448281
-0.00508355
-0.0056762
-0.00626232
-0.00680867
-0.00725759
-0.00751591
-0.0074583
-0.00691785
-0.00566863
-0.00348746
0.000266338
-4.76577e-05
-0.000603708
-0.00120604
-0.00176989
-0.00234937
-0.00294233
-0.003522
-0.00403166
-0.00453009
-0.00511733
-0.00571252
-0.0062921
-0.00683361
-0.00728116
-0.007546
-0.00749378
-0.00695169
-0.0056933
-0.00349846
0.000229696
-8.4879e-05
-0.000642857
-0.0012622
-0.00184144
-0.00242111
-0.00300565
-0.0035747
-0.00409281
-0.00458483
-0.00515592
-0.00575255
-0.00632908
-0.00686727
-0.00731306
-0.00758288
-0.00753949
-0.00700261
-0.00574137
-0.00353518
0.000192175
-0.000122276
-0.000680958
-0.001314
-0.0019084
-0.00248989
-0.00307081
-0.003629
-0.00415046
-0.00464351
-0.0051996
-0.00579551
-0.00637378
-0.0069127
-0.00735782
-0.00763044
-0.00759407
-0.00706454
-0.00580702
-0.00359622
0.000153931
-0.000159904
-0.000718498
-0.00136153
-0.0019705
-0.00255353
-0.00313309
-0.00368499
-0.00420713
-0.00470472
-0.00524769
-0.00583988
-0.00642171
-0.00696634
-0.00741674
-0.00769443
-0.00766507
-0.00714013
-0.00588669
-0.00367869
0.000114976
-0.000196988
-0.0007551
-0.00140453
-0.00202863
-0.00261569
-0.00319323
-0.00374111
-0.00426189
-0.00476692
-0.00530119
-0.00588649
-0.00647264
-0.00702325
-0.00748324
-0.00777128
-0.00775252
-0.00723517
-0.00598675
-0.00378348
7.39106e-05
-0.000236331
-0.000792058
-0.00144657
-0.00208442
-0.00267832
-0.0032545
-0.00379994
-0.00431721
-0.00482888
-0.00536368
-0.0059419
-0.00653315
-0.00709102
-0.0075638
-0.0078678
-0.00786303
-0.00735825
-0.00611834
-0.00391338
4.02988e-05
-0.000250107
-0.000801824
-0.00147504
-0.00213901
-0.0027398
-0.00331369
-0.00385467
-0.00436882
-0.00488219
-0.0054214
-0.00599785
-0.00659703
-0.00716725
-0.0076594
-0.0079877
-0.00800916
-0.00752951
-0.00630538
-0.00410466
-5.31226e-05
-0.000311222
-0.000813427
-0.00148584
-0.00218801
-0.00280488
-0.00337709
-0.00391143
-0.0044119
-0.00491504
-0.00544371
-0.00602506
-0.00663523
-0.00722793
-0.00774894
-0.00811031
-0.00817544
-0.00774435
-0.00656803
-0.00441251
3.12154e-06
-0.000301825
-0.000860846
-0.00153673
-0.00223525
-0.00287638
-0.00346743
-0.00400026
-0.00448622
-0.00494536
-0.00544693
-0.0060173
-0.00661775
-0.00720309
-0.00771913
-0.00809341
-0.00819755
-0.00783546
-0.00676145
-0.00473632
-0.000121998
-0.00035169
-0.000894685
-0.00149012
-0.00216892
-0.00288752
-0.00356556
-0.00411963
-0.00463464
-0.00509024
-0.00560738
-0.0061841
-0.00680039
-0.0073653
-0.00781637
-0.00807008
-0.00805328
-0.0076012
-0.006478
-0.0044254
-1.47132e-05
-0.000414933
-0.000929657
-0.00157908
-0.00232683
-0.00295839
-0.00347836
-0.00391551
-0.00434982
-0.00481481
-0.00535762
-0.00596713
-0.00664351
-0.0073737
-0.00813898
-0.00883638
-0.00928844
-0.00925451
-0.0084524
-0.00664375
0.000161812
-0.000518502
-0.00113413
-0.00183015
-0.00244825
-0.00316213
-0.00381245
-0.00430176
-0.00472685
-0.00524851
-0.00581203
-0.00634874
-0.00664601
-0.00657696
-0.00608796
-0.00527684
-0.00434432
-0.00359978
-0.0034174
-0.00412614
0.000140014
-0.000519596
-0.00116527
-0.00176941
-0.00225422
-0.00265142
-0.00305303
-0.0035459
-0.00409126
-0.00475004
-0.00549969
-0.00635243
-0.00729506
-0.00831203
-0.00934216
-0.0102849
-0.0109749
-0.0111866
-0.0106395
-0.00908174
0.000265287
-0.000573731
-0.00123102
-0.00186534
-0.00236852
-0.00296312
-0.00362512
-0.00434174
-0.00494651
-0.00532798
-0.0057635
-0.00633111
-0.00685136
-0.00714235
-0.00708069
-0.00666923
-0.00603413
-0.00547328
-0.0053809
-0.0061235
0.000260002
-0.000597415
-0.00127451
-0.00183659
-0.00211957
-0.00233533
-0.00262617
-0.00300725
-0.00357525
-0.00446344
-0.00562212
-0.00703545
-0.00865988
-0.0103684
-0.011958
-0.0132461
-0.0140759
-0.0142601
-0.0135692
-0.0118016
-0.0101121
-0.0142654
-0.0153494
-0.0132088
-0.0108903
-0.00873683
-0.00653343
-0.00475635
-0.00349128
-0.00221674
-0.000698165
0.000723729
0.00156766
0.00203203
0.00289963
0.00430941
0.00576808
0.00705773
0.00826594
0.00947872
0.0107303
0.0120343
0.0134006
0.0148167
0.016288
0.0177953
0.0193587
0.0209796
0.0226894
0.0244812
0.0263019
0.0281387
0.0300531
0.0320772
0.0341856
0.0363853
0.0385751
0.0408777
0.0432247
0.045707
0.0482414
0.0508677
0.0536041
0.0563625
0.059344
0.0622549
0.0654404
0.0686158
0.0714916
0.0750311
-0.0100111
-0.0141864
-0.0153034
-0.0131926
-0.0108825
-0.00873206
-0.0065298
-0.00475302
-0.00348826
-0.00221412
-0.000695868
0.000725867
0.00156963
0.00203363
0.00290088
0.00431051
0.0057691
0.00705862
0.00826672
0.0094794
0.0107309
0.0120348
0.0134011
0.0148172
0.0162884
0.0177957
0.019359
0.0209799
0.0226897
0.0244814
0.0263022
0.028139
0.0300533
0.0320774
0.0341858
0.0363855
0.0385753
0.0408779
0.0432248
0.0457071
0.0482415
0.0508678
0.0536042
0.0563626
0.0593441
0.062255
0.0654405
0.0686159
0.0714917
0.0750311
-0.0100107
-0.0140935
-0.0152309
-0.0131686
-0.0108725
-0.00872642
-0.006526
-0.00474997
-0.00348563
-0.00221183
-0.000693759
0.000727912
0.00157148
0.002035
0.0029019
0.0043115
0.00577005
0.00705945
0.00826742
0.00948001
0.0107315
0.0120352
0.0134015
0.0148175
0.0162887
0.017796
0.0193593
0.0209801
0.0226899
0.0244817
0.0263024
0.0281392
0.0300535
0.0320775
0.0341859
0.0363856
0.0385754
0.040878
0.043225
0.0457072
0.0482416
0.0508679
0.0536043
0.0563627
0.0593442
0.062255
0.0654405
0.068616
0.0714917
0.0750311
-0.0100353
-0.0139767
-0.0151208
-0.0131284
-0.0108566
-0.00871786
-0.00652106
-0.00474677
-0.00348312
-0.00220958
-0.000691632
0.000730048
0.00157344
0.00203638
0.0029029
0.00431252
0.00577107
0.00706033
0.00826816
0.00948064
0.010732
0.0120357
0.0134019
0.0148179
0.0162891
0.0177963
0.0193596
0.0209804
0.0226902
0.0244819
0.0263026
0.0281394
0.0300537
0.0320777
0.0341861
0.0363858
0.0385755
0.0408781
0.0432251
0.0457073
0.0482417
0.050868
0.0536044
0.0563627
0.0593443
0.0622551
0.0654406
0.068616
0.0714918
0.0750312
-0.0100475
-0.013834
-0.0149778
-0.0130707
-0.010833
-0.00870487
-0.00651403
-0.00474304
-0.00348051
-0.00220726
-0.000689469
0.000732271
0.0015756
0.00203797
0.00290406
0.00431372
0.00577226
0.00706134
0.00826901
0.00948137
0.0107326
0.0120362
0.0134024
0.0148183
0.0162894
0.0177966
0.0193599
0.0209807
0.0226904
0.0244821
0.0263029
0.0281396
0.0300539
0.0320779
0.0341863
0.036386
0.0385757
0.0408783
0.0432252
0.0457074
0.0482418
0.0508681
0.0536045
0.0563628
0.0593444
0.0622552
0.0654407
0.0686161
0.071492
0.0750312
-0.0100468
-0.0136757
-0.0148166
-0.0130011
-0.010803
-0.00868753
-0.00650455
-0.00473844
-0.00347758
-0.0022048
-0.000687416
0.000734353
0.00157788
0.00203987
0.00290556
0.00431522
0.00577366
0.00706251
0.00827
0.00948223
0.0107333
0.0120368
0.0134029
0.0148188
0.0162898
0.017797
0.0193602
0.020981
0.0226907
0.0244824
0.0263031
0.0281398
0.0300541
0.0320781
0.0341865
0.0363861
0.0385759
0.0408784
0.0432253
0.0457076
0.0482419
0.0508682
0.0536046
0.0563629
0.0593445
0.0622553
0.0654407
0.0686162
0.0714921
0.0750313
-0.0100407
-0.0135114
-0.0146468
-0.0129244
-0.010769
-0.00866696
-0.00649284
-0.00473279
-0.00347409
-0.00220202
-0.000685559
0.000736008
0.00158004
0.00204205
0.00290754
0.00431716
0.00577537
0.0070639
0.00827117
0.00948325
0.0107342
0.0120376
0.0134035
0.0148193
0.0162903
0.0177974
0.0193606
0.0209813
0.022691
0.0244827
0.0263034
0.0281401
0.0300543
0.0320783
0.0341867
0.0363863
0.038576
0.0408786
0.0432255
0.0457077
0.0482421
0.0508683
0.0536047
0.056363
0.0593445
0.0622554
0.0654408
0.0686163
0.0714924
0.0750314
-0.0100343
-0.0133444
-0.014471
-0.0128429
-0.0107327
-0.00864438
-0.00647941
-0.0047261
-0.00346989
-0.00219877
-0.000683849
0.000737036
0.00158176
0.00204434
0.00291004
0.00431971
0.00577753
0.00706555
0.00827254
0.00948446
0.0107352
0.0120385
0.0134043
0.01482
0.0162909
0.0177979
0.019361
0.0209817
0.0226914
0.024483
0.0263037
0.0281403
0.0300545
0.0320785
0.0341869
0.0363866
0.0385762
0.0408787
0.0432256
0.0457078
0.0482422
0.0508684
0.0536048
0.0563631
0.0593446
0.0622555
0.0654409
0.0686165
0.0714926
0.0750315
-0.0100283
-0.0131742
-0.0142885
-0.0127572
-0.0106948
-0.00862054
-0.00646469
-0.0047185
-0.00346503
-0.00219502
-0.000682191
0.000737378
0.00158277
0.0020464
0.00291292
0.00432296
0.00578029
0.00706757
0.00827412
0.00948583
0.0107364
0.0120395
0.0134052
0.0148208
0.0162915
0.0177985
0.0193615
0.0209821
0.0226917
0.0244834
0.026304
0.0281406
0.0300548
0.0320787
0.0341871
0.0363868
0.0385764
0.0408789
0.0432258
0.045708
0.0482423
0.0508686
0.0536049
0.0563632
0.0593447
0.0622556
0.065441
0.0686166
0.071493
0.0750317
-0.0100218
-0.0129995
-0.0140988
-0.0126673
-0.0106559
-0.00859585
-0.00644898
-0.00471016
-0.00345965
-0.00219086
-0.000680545
0.000737058
0.00158291
0.00204788
0.0029159
0.00432687
0.00578377
0.00707006
0.00827593
0.00948733
0.0107377
0.0120407
0.0134063
0.0148217
0.0162924
0.0177992
0.019362
0.0209826
0.0226922
0.0244838
0.0263044
0.0281409
0.030055
0.032079
0.0341874
0.036387
0.0385766
0.0408791
0.043226
0.0457082
0.0482425
0.0508687
0.053605
0.0563633
0.0593449
0.0622557
0.0654411
0.0686168
0.0714934
0.075032
-0.0100133
-0.0128206
-0.0139021
-0.0125733
-0.010616
-0.00857046
-0.00643241
-0.00470116
-0.00345387
-0.00218645
-0.000678959
0.000736083
0.00158213
0.00204857
0.00291862
0.00433122
0.00578798
0.0070731
0.00827799
0.00948892
0.0107391
0.012042
0.0134075
0.0148228
0.0162934
0.0178
0.0193627
0.0209831
0.0226926
0.0244842
0.0263048