/*--------------------------------*- C++ -*----------------------------------*\
| =========                 |                                                 |
| \\      /  F ield         | OpenFOAM: The Open Source CFD Toolbox           |
|  \\    /   O peration     | Version:  v2012                                 |
|   \\  /    A nd           | Website:  www.openfoam.com                      |
|    \\/     M anipulation  |                                                 |
\*---------------------------------------------------------------------------*/
FoamFile
{
    version     2.0;
    format      ascii;
    class       surfaceScalarField;
    location    "7.7";
    object      phi;
}
// * * * * * * * * * * * * * * * * * * * * * * * * * * * * * * * * * * * * * //

dimensions      [0 3 -1 0 0 0 0];
oriented        oriented;


internalField   nonuniform List<scalar> 
13830
(
9.50307e-07
2.6693e-07
8.93385e-07
-2.96525e-07
9.93409e-07
4.32886e-07
8.29962e-07
-2.63108e-08
8.89494e-07
-1.27628e-06
9.96815e-07
3.64312e-07
9.11233e-07
1.54697e-07
9.48869e-07
8.85713e-07
9.37068e-07
2.97676e-07
9.30294e-07
4.01444e-07
9.30963e-07
6.84675e-07
9.09794e-07
1.68778e-07
9.24378e-07
4.53779e-07
9.12913e-07
3.12672e-08
9.25724e-07
1.50002e-07
9.1139e-07
-1.41167e-07
9.21493e-07
-1.16884e-08
9.05506e-07
-1.69269e-07
9.10341e-07
-5.25774e-08
-1.53214e-07
8.84159e-07
9.85666e-07
2.53796e-07
9.28142e-07
-2.39002e-07
1.0286e-06
3.32424e-07
8.71946e-07
1.30347e-07
9.35904e-07
-1.34024e-06
1.03906e-06
2.61156e-07
9.51831e-07
2.41926e-07
9.90192e-07
8.47352e-07
9.7597e-07
3.11898e-07
9.68953e-07
4.08461e-07
9.65332e-07
6.88295e-07
9.4929e-07
1.8482e-07
9.55391e-07
4.47677e-07
9.5423e-07
3.24284e-08
9.56374e-07
1.47859e-07
9.54518e-07
-1.39311e-07
9.51682e-07
-8.85304e-09
9.50198e-07
-1.67785e-07
9.39837e-07
-4.22167e-08
-1.4697e-07
9.33593e-07
1.02163e-06
2.41619e-07
9.66908e-07
-1.8428e-07
1.06149e-06
2.37844e-07
9.25863e-07
2.65972e-07
9.85482e-07
-1.39986e-06
1.0872e-06
1.59434e-07
9.9973e-07
3.294e-07
1.03367e-06
8.13408e-07
1.01725e-06
3.28325e-07
1.01275e-06
4.12956e-07
1.00329e-06
6.97756e-07
9.93565e-07
1.94546e-07
9.93778e-07
4.47464e-07
9.98888e-07
2.7319e-08
9.96151e-07
1.50596e-07
9.99602e-07
-1.42762e-07
9.92789e-07
-2.04028e-09
9.94404e-07
-1.694e-07
9.82839e-07
-3.06512e-08
-1.41545e-07
9.77414e-07
1.05857e-06
2.30823e-07
1.00928e-06
-1.34989e-07
1.09324e-06
1.53884e-07
9.87937e-07
3.71276e-07
1.03618e-06
-1.4481e-06
1.13448e-06
6.11299e-08
1.05231e-06
4.11571e-07
1.07517e-06
7.90556e-07
1.05849e-06
3.44997e-07
1.05518e-06
4.16269e-07
1.04525e-06
7.07683e-07
1.03796e-06
2.01841e-07
1.03755e-06
4.47874e-07
1.04332e-06
2.15502e-08
1.03994e-06
1.53979e-07
1.0436e-06
-1.46424e-07
1.03622e-06
5.33326e-09
1.03703e-06
-1.70202e-07
1.02623e-06
-1.98561e-08
-1.34792e-07
1.01948e-06
1.09675e-06
2.21629e-07
1.05499e-06
-9.32268e-08
1.12401e-06
8.48589e-08
1.05257e-06
4.42715e-07
1.08396e-06
-1.47949e-06
1.17481e-06
-2.97214e-08
1.10651e-06
4.79876e-07
1.1138e-06
7.83264e-07
1.09851e-06
3.60285e-07
1.09442e-06
4.20357e-07
1.08749e-06
7.14614e-07
1.08102e-06
2.0831e-07
1.08183e-06
4.47071e-07
1.08719e-06
1.61857e-08
1.08409e-06
1.57084e-07
1.08704e-06
-1.49381e-07
1.0797e-06
1.26789e-08
1.07913e-06
-1.69633e-07
1.06918e-06
-9.90878e-09
-1.2666e-07
1.06105e-06
1.13647e-06
2.13998e-07
1.10322e-06
-5.99769e-08
1.1548e-06
3.32872e-08
1.11426e-06
4.83249e-07
1.12729e-06
-1.49252e-06
1.20602e-06
-1.08447e-07
1.15891e-06
5.26986e-07
1.15202e-06
7.90151e-07
1.13771e-06
3.74593e-07
1.13204e-06
4.26032e-07
1.12834e-06
7.18309e-07
1.12339e-06
2.13257e-07
1.12575e-06
4.44719e-07
1.13165e-06
1.028e-08
1.12903e-06
1.59707e-07
1.13149e-06
-1.51846e-07
1.12432e-06
1.98548e-08
1.12242e-06
-1.67731e-07
1.1132e-06
-6.98255e-10
-1.17439e-07
1.10398e-06
1.17805e-06
2.07646e-07
1.15297e-06
-3.48977e-08
1.18721e-06
-9.49366e-10
1.17055e-06
4.99909e-07
1.16774e-06
-1.48971e-06
1.23068e-06
-1.7139e-07
1.20672e-06
5.50951e-07
1.19204e-06
8.04832e-07
1.17742e-06
3.89211e-07
1.17054e-06
4.32916e-07
1.16917e-06
7.19677e-07
1.16672e-06
2.15702e-07
1.1708e-06
4.40638e-07
1.17799e-06
3.09234e-09
1.17588e-06
1.61819e-07
1.17793e-06
-1.53891e-07
1.17096e-06
2.68151e-08
1.16772e-06
-1.64487e-07
1.15918e-06
7.8399e-09
-1.07369e-07
1.14911e-06
1.22168e-06
2.02145e-07
1.20345e-06
-1.66642e-08
1.22278e-06
-2.02816e-08
1.22216e-06
5.00529e-07
1.20826e-06
-1.47581e-06
1.25382e-06
-2.16954e-07
1.24902e-06
5.55752e-07
1.23412e-06
8.19738e-07
1.21884e-06
4.04489e-07
1.21177e-06
4.3999e-07
1.21216e-06
7.1928e-07
1.21242e-06
2.15446e-07
1.21816e-06
4.34899e-07
1.22659e-06
-5.33886e-09
1.22484e-06
1.63569e-07
1.22624e-06
-1.5529e-07
1.21953e-06
3.35195e-08
1.21487e-06
-1.59819e-07
1.20704e-06
1.56713e-08
-9.66464e-08
1.19631e-06
1.26739e-06
1.97103e-07
1.25435e-06
-3.62216e-09
1.26235e-06
-2.82819e-08
1.27124e-06
4.91644e-07
1.25114e-06
-1.45571e-06
1.28011e-06
-2.45919e-07
1.28725e-06
5.48607e-07
1.27736e-06
8.29628e-07
1.26243e-06
4.19418e-07
1.25643e-06
4.4599e-07
1.25856e-06
7.17156e-07
1.26101e-06
2.12988e-07
1.26787e-06
4.28041e-07
1.27697e-06
-1.44403e-08
1.27536e-06
1.65183e-07
1.27577e-06
-1.55703e-07
1.26943e-06
3.98619e-08
1.26328e-06
-1.53668e-07
1.25626e-06
2.26857e-08
-8.54896e-08
1.24511e-06
1.31508e-06
1.92301e-07
1.30583e-06
5.62276e-09
1.30597e-06
-2.84181e-08
1.31979e-06
4.77821e-07
1.29726e-06
-1.43318e-06
1.31232e-06
-2.60982e-07
1.32433e-06
5.36596e-07
1.32117e-06
8.32797e-07
1.30807e-06
4.32514e-07
1.30436e-06
4.49699e-07
1.30834e-06
7.13181e-07
1.31224e-06
2.0908e-07
1.31937e-06
4.20913e-07
1.3284e-06
-2.34743e-08
1.32677e-06
1.66821e-07
1.32589e-06
-1.54827e-07
1.32011e-06
4.56443e-08
1.31253e-06
-1.46092e-07
1.30644e-06
2.87722e-08
-7.41489e-08
1.2951e-06
1.36458e-06
1.87743e-07
1.3583e-06
1.19062e-08
1.35319e-06
-2.33077e-08
1.36913e-06
4.61873e-07
1.34653e-06
-1.41058e-06
1.35125e-06
-2.65699e-07
1.36319e-06
5.2465e-07
1.36586e-06
8.30132e-07
1.35556e-06
4.42811e-07
1.35499e-06
4.50276e-07
1.36079e-06
7.07378e-07
1.36546e-06
2.04406e-07
1.37204e-06
4.14338e-07
1.38034e-06
-3.17725e-08
1.37868e-06
1.68477e-07
1.3763e-06
-1.52444e-07
1.37134e-06
5.06006e-08
1.36251e-06
-1.37263e-07
1.35744e-06
3.38467e-08
-6.28768e-08
1.34617e-06
1.41578e-06
1.83612e-07
1.41217e-06
1.55173e-08
1.40345e-06
-1.45853e-08
1.41998e-06
4.45347e-07
1.39856e-06
-1.38916e-06
1.39628e-06
-2.63419e-07
1.40571e-06
5.15217e-07
1.41242e-06
8.23419e-07
1.40502e-06
4.50208e-07
1.4078e-06
4.47503e-07
1.41515e-06
7.00024e-07
1.42006e-06
1.99499e-07
1.42553e-06
4.08869e-07
1.43258e-06
-3.88264e-08
1.4311e-06
1.69959e-07
1.42709e-06
-1.4843e-07
1.42324e-06
5.44423e-08
1.41339e-06
-1.27405e-07
1.40937e-06
3.7865e-08
-5.18921e-08
1.39838e-06
1.46868e-06
1.80177e-07
1.46778e-06
1.64193e-08
1.45637e-06
-3.17509e-09
1.47272e-06
4.28991e-07
1.45295e-06
-1.36938e-06
1.44623e-06
-2.56698e-07
1.45254e-06
5.08905e-07
1.46187e-06
8.14091e-07
1.45686e-06
4.55223e-07
1.46256e-06
4.41802e-07
1.47098e-06
6.91597e-07
1.47572e-06
1.94766e-07
1.47984e-06
4.04744e-07
1.48529e-06
-4.42707e-08
1.48431e-06
1.70934e-07
1.47865e-06
-1.42764e-07
1.47615e-06
5.69425e-08
1.4655e-06
-1.16763e-07
1.46252e-06
4.08519e-08
-4.13581e-08
1.45198e-06
1.52338e-06
1.77675e-07
1.52525e-06
1.45413e-08
1.51176e-06
1.03137e-08
1.52768e-06
4.13071e-07
1.5094e-06
-1.3511e-06
1.49997e-06
-2.47265e-07
1.50358e-06
5.05291e-07
1.51486e-06
8.02809e-07
1.51152e-06
4.5856e-07
1.51929e-06
4.34034e-07
1.52822e-06
6.82665e-07
1.53249e-06
1.90505e-07
1.53529e-06
4.01935e-07
1.53884e-06
-4.78202e-08
1.53878e-06
1.71001e-07
1.53154e-06
-1.35526e-07
1.53048e-06
5.80041e-08
1.51929e-06
-1.05581e-07
1.51723e-06
4.29201e-08
-3.13793e-08
1.50725e-06
1.58007e-06
1.76218e-07
1.58459e-06
1.00217e-08
1.56963e-06
2.5271e-08
1.58512e-06
3.97582e-07
1.5676e-06
-1.33358e-06
1.55662e-06
-2.36289e-07
1.55839e-06
5.03529e-07
1.57158e-06
7.89618e-07
1.56933e-06
4.60805e-07
1.57816e-06
4.25211e-07
1.58705e-06
6.73771e-07
1.59066e-06
1.86899e-07
1.59238e-06
4.00207e-07
1.59378e-06
-4.92115e-08
1.595e-06
1.69778e-07
1.58633e-06
-1.26854e-07
1.58665e-06
5.76844e-08
1.57515e-06
-9.40904e-08
1.57381e-06
4.42692e-08
-2.20102e-08
1.56444e-06
1.63902e-06
1.75743e-07
1.64572e-06
3.31615e-09
1.63005e-06
4.09411e-08
1.64523e-06
3.82406e-07
1.62731e-06
-1.31566e-06
1.61571e-06
-2.24688e-07
1.61652e-06
5.02723e-07
1.63184e-06
7.74299e-07
1.63033e-06
4.62313e-07
1.6393e-06
4.16241e-07
1.64772e-06
6.65351e-07
1.65059e-06
1.84029e-07
1.65166e-06
3.99137e-07
1.65064e-06
-4.81903e-08
1.65341e-06
1.67005e-07
1.64348e-06
-1.16926e-07
1.64497e-06
5.61951e-08
1.63339e-06
-8.25055e-08
1.6325e-06
4.51525e-08
-1.32664e-08
1.62376e-06
1.70045e-06
1.76043e-07
1.70863e-06
-4.8657e-09
1.69311e-06
5.64572e-08
1.70806e-06
3.67457e-07
1.68842e-06
-1.29602e-06
1.67707e-06
-2.13342e-07
1.67764e-06
5.02153e-07
1.69525e-06
7.5669e-07
1.69433e-06
4.63239e-07
1.70279e-06
4.07778e-07
1.71046e-06
6.57684e-07
1.71255e-06
1.81942e-07
1.71356e-06
3.98125e-07
1.70993e-06
-4.45614e-08
1.71431e-06
1.62622e-07
1.70332e-06
-1.05937e-07
1.70565e-06
5.38656e-08
1.69417e-06
-7.10227e-08
1.69349e-06
4.58305e-08
-5.138e-09
1.68536e-06
1.76451e-06
1.76852e-07
1.7734e-06
-1.37582e-08
1.75886e-06
7.09993e-08
1.77354e-06
3.52771e-07
1.75104e-06
-1.27352e-06
1.74083e-06
-2.03127e-07
1.74158e-06
5.01401e-07
1.76141e-06
7.36863e-07
1.76102e-06
4.63627e-07
1.76861e-06
4.00184e-07
1.77545e-06
6.50849e-07
1.77666e-06
1.80726e-07
1.77834e-06
3.96451e-07
1.77206e-06
-3.82828e-08
1.77788e-06
1.568e-07
1.76604e-06
-9.40924e-08
1.76881e-06
5.10892e-08
1.7576e-06
-5.98122e-08
1.75691e-06
4.6523e-08
2.40353e-09
1.74937e-06
1.83124e-06
1.77953e-07
1.84025e-06
-2.27701e-08
1.82727e-06
8.39775e-08
1.84151e-06
3.38529e-07
1.81553e-06
-1.24753e-06
1.80723e-06
-1.94828e-07
1.80827e-06
5.00359e-07
1.82998e-06
7.15149e-07
1.83012e-06
4.63492e-07
1.8367e-06
3.93599e-07
1.84285e-06
6.44698e-07
1.84301e-06
1.80568e-07
1.84608e-06
3.93387e-07
1.83733e-06
-2.95352e-08
1.84422e-06
1.49911e-07
1.83174e-06
-8.16161e-08
1.83456e-06
4.82754e-08
1.82376e-06
-4.90118e-08
1.8229e-06
4.73829e-08
9.40317e-09
1.8159e-06
1.90061e-06
1.79244e-07
1.90946e-06
-3.1626e-08
1.89831e-06
9.5135e-08
1.91184e-06
3.24997e-07
1.88234e-06
-1.21804e-06
1.87649e-06
-1.88977e-07
1.87772e-06
4.99128e-07
1.90083e-06
6.92046e-07
1.90146e-06
4.62858e-07
1.90701e-06
3.88048e-07
1.91286e-06
6.38848e-07
1.91171e-06
1.81722e-07
1.91674e-06
3.88352e-07
1.90592e-06
-1.87145e-08
1.9134e-06
1.42429e-07
1.90052e-06
-6.87298e-08
1.90301e-06
4.57881e-08
1.8927e-06
-3.87082e-08
1.89159e-06
4.84936e-08
1.59205e-08
1.88507e-06
1.97261e-06
1.80738e-07
1.98133e-06
-4.03511e-08
1.97195e-06
1.0452e-07
1.98453e-06
3.12416e-07
1.95196e-06
-1.18547e-06
1.94874e-06
-1.85757e-07
1.94999e-06
4.97878e-07
1.97394e-06
6.68102e-07
1.97504e-06
4.61755e-07
1.97957e-06
3.83514e-07
1.98568e-06
6.32745e-07
1.98299e-06
1.84407e-07
1.99029e-06
3.81058e-07
1.97792e-06
-6.34489e-09
1.98552e-06
1.34827e-07
1.97243e-06
-5.56447e-08
1.97432e-06
4.39072e-08
1.96453e-06
-2.89271e-08
1.96314e-06
4.98866e-08
2.2027e-08
1.95703e-06
2.04728e-06
1.82506e-07
2.05606e-06
-4.91305e-08
2.04822e-06
1.12358e-07
2.05972e-06
3.00917e-07
2.02473e-06
-1.15048e-06
2.02397e-06
-1.85002e-07
2.02515e-06
4.96703e-07
2.04939e-06
6.43858e-07
2.05096e-06
4.60188e-07
2.0545e-06
3.79975e-07
2.06148e-06
6.25767e-07
2.05717e-06
1.88716e-07
2.06668e-06
3.71545e-07
2.0533e-06
7.03697e-09
2.06062e-06
1.27501e-07
2.04754e-06
-4.25623e-08
2.04862e-06
4.2828e-08
2.03934e-06
-1.96505e-08
2.03767e-06
5.15619e-08
2.78e-08
2.0319e-06
2.12474e-06
1.84607e-07
2.13375e-06
-5.8137e-08
2.1272e-06
1.18906e-07
2.13765e-06
2.90464e-07
2.10083e-06
-1.11366e-06
2.10214e-06
-1.86305e-07
2.10329e-06
4.95554e-07
2.12729e-06
6.19851e-07
2.12937e-06
4.58115e-07
2.13195e-06
3.77391e-07
2.14034e-06
6.17377e-07
2.1345e-06
1.94554e-07
2.14593e-06
3.60119e-07
2.13199e-06
2.09785e-08
2.13876e-06
1.2073e-07
2.12585e-06
-2.96563e-08
2.12601e-06
4.26726e-08
2.11719e-06
-1.08301e-08
2.11527e-06
5.34791e-08
3.33128e-08
2.10976e-06
2.20514e-06
1.87046e-07
2.21443e-06
-6.74175e-08
2.20897e-06
1.24364e-07
2.21858e-06
2.80852e-07
2.18036e-06
-1.07544e-06
2.18318e-06
-1.89125e-07
2.18452e-06
4.94218e-07
2.20772e-06
5.96648e-07
2.21039e-06
4.55454e-07
2.2121e-06
3.75678e-07
2.22227e-06
6.07208e-07
2.21516e-06
2.01665e-07
2.22804e-06
3.47236e-07
2.21388e-06
3.5135e-08
2.21992e-06
1.14693e-07
2.20734e-06
-1.70805e-08
2.20652e-06
4.34938e-08
2.19807e-06
-2.37966e-09
2.19599e-06
5.55588e-08
3.86138e-08
2.19069e-06
2.28868e-06
1.89762e-07
2.29813e-06
-7.68671e-08
2.29362e-06
1.28872e-07
2.30273e-06
2.71743e-07
2.26337e-06
-1.03608e-06
2.26711e-06
-1.92871e-07
2.26899e-06
4.92341e-07
2.29079e-06
5.74848e-07
2.29414e-06
4.52103e-07
2.29512e-06
3.74704e-07
2.30721e-06
5.9511e-07
2.29919e-06
2.09693e-07
2.31302e-06
3.33404e-07
2.29892e-06
4.92277e-08
2.3041e-06
1.09522e-07
2.29198e-06
-4.96119e-09
2.29019e-06
4.52787e-08
2.28198e-06
5.83347e-09
2.27988e-06
5.76531e-08
4.37231e-08
2.27477e-06
2.37551e-06
1.9264e-07
2.38491e-06
-8.62662e-08
2.38123e-06
1.32547e-07
2.39026e-06
2.62717e-07
2.34991e-06
-9.95736e-07
2.35397e-06
-1.96929e-07
2.35682e-06
4.89484e-07
2.37664e-06
5.55026e-07
2.38076e-06
4.47985e-07
2.3812e-06
3.74264e-07
2.39515e-06
5.81159e-07
2.3866e-06
2.18247e-07
2.40089e-06
3.19115e-07
2.3871e-06
6.30206e-08
2.3913e-06
1.05321e-07
2.37976e-06
6.58018e-09
2.37694e-06
4.80991e-08
2.36871e-06
1.40574e-08
2.36703e-06
5.93356e-08
4.86591e-08
2.36209e-06
2.46579e-06
1.9553e-07
2.47486e-06
-9.53407e-08
2.47187e-06
1.35541e-07
2.48125e-06
2.53337e-07
2.44007e-06
-9.54555e-07
2.44381e-06
-2.00675e-07
2.4481e-06
4.85195e-07
2.4655e-06
5.37626e-07
2.47041e-06
4.43075e-07
2.47058e-06
3.74101e-07
2.4861e-06
5.65632e-07
2.47742e-06
2.2693e-07
2.4917e-06
3.04838e-07
2.47843e-06
7.62899e-08
2.48156e-06
1.02185e-07
2.47082e-06
1.73198e-08
2.46624e-06
5.26835e-08
2.45806e-06
2.22349e-08
2.45751e-06
5.98906e-08
5.34598e-08
2.4527e-06
2.55967e-06
1.98263e-07
2.56815e-06
-1.03819e-07
2.56563e-06
1.38058e-07
2.57575e-06
2.43216e-07
2.53396e-06
-9.12767e-07
2.53677e-06
-2.03483e-07
2.54291e-06
4.79059e-07
2.55767e-06
5.2286e-07
2.56331e-06
4.37436e-07
2.56342e-06
3.73987e-07
2.58015e-06
5.48905e-07
2.57168e-06
2.35401e-07
2.58558e-06
2.90936e-07
2.57294e-06
8.89302e-08
2.57499e-06
1.00137e-07
2.56525e-06
2.70601e-08
2.56444e-06
5.3496e-08
2.55826e-06
2.84158e-08
2.55153e-06
6.66142e-08
5.82505e-08
2.54674e-06
2.65727e-06
2.00668e-07
2.66493e-06
-1.11479e-07
2.66264e-06
1.40357e-07
2.67377e-06
2.32085e-07
2.6317e-06
-8.70701e-07
2.63297e-06
-2.04752e-07
2.64131e-06
4.7072e-07
2.65346e-06
5.10706e-07
2.6597e-06
4.31199e-07
2.65996e-06
3.73728e-07
2.67742e-06
5.31447e-07
2.66949e-06
2.43323e-07
2.68275e-06
2.77683e-07
2.67077e-06
1.0091e-07
2.6723e-06
9.8607e-08
2.66123e-06
3.81243e-08
2.65565e-06
5.90765e-08
2.64787e-06
3.61996e-08
2.64859e-06
6.58917e-08
6.23367e-08
2.6445e-06
2.75873e-06
2.02593e-07
2.76542e-06
-1.1817e-07
2.76307e-06
1.42709e-07
2.77532e-06
2.19832e-07
2.73339e-06
-8.28767e-07
2.73261e-06
-2.03977e-07
2.74336e-06
4.59971e-07
2.75318e-06
5.00889e-07
2.75978e-06
4.24595e-07
2.76045e-06
3.73062e-07
2.77795e-06
5.13943e-07
2.77121e-06
2.50064e-07
2.78311e-06
2.65784e-07
2.77244e-06
1.11585e-07
2.773e-06
9.80431e-08
2.76169e-06
4.94295e-08
2.75505e-06
6.57214e-08
2.74714e-06
4.41094e-08
2.74971e-06
6.3321e-08
6.61873e-08
2.74586e-06
2.86413e-06
2.03921e-07
2.86979e-06
-1.23834e-07
2.86716e-06
1.45345e-07
2.88045e-06
2.06537e-07
2.83912e-06
-7.87438e-07
2.83594e-06
-2.00795e-07
2.84914e-06
4.46772e-07
2.85704e-06
4.92992e-07
2.86379e-06
4.17847e-07
2.86508e-06
3.71772e-07
2.88205e-06
4.96972e-07
2.87691e-06
2.55204e-07
2.88704e-06
2.55654e-07
2.8779e-06
1.20718e-07
2.87852e-06
9.74237e-08
2.87529e-06
5.26651e-08
2.87377e-06
6.72389e-08
2.86659e-06
5.12859e-08
2.85553e-06
7.43828e-08
7.07744e-08
2.85094e-06
2.97358e-06
2.04587e-07
2.97823e-06
-1.28486e-07
2.97517e-06
1.48404e-07
2.98925e-06
1.9246e-07
2.94901e-06
-7.47203e-07
2.94323e-06
-1.95006e-07
2.95876e-06
4.31241e-07
2.96521e-06
4.86536e-07
2.97192e-06
4.11141e-07
2.97394e-06
3.69748e-07
2.9901e-06
4.80811e-07
2.98657e-06
2.58741e-07
2.99508e-06
2.47138e-07
2.98728e-06
1.28524e-07
2.98277e-06
1.01925e-07
2.97407e-06
6.13658e-08
2.96564e-06
7.56719e-08
2.95859e-06
5.83383e-08
2.96346e-06
6.95112e-08
7.38245e-08
2.96041e-06
3.08717e-06
2.0458e-07
3.09087e-06
-1.32194e-07
3.08739e-06
1.51886e-07
3.10184e-06
1.78008e-07
3.06316e-06
-7.08518e-07
3.0547e-06
-1.86546e-07
3.07232e-06
4.13622e-07
3.07784e-06
4.81015e-07
3.08434e-06
4.04636e-07
3.08719e-06
3.66899e-07
3.10239e-06
4.65614e-07
3.1001e-06
2.61029e-07
3.10788e-06
2.39359e-07
3.10116e-06
1.35245e-07
3.10128e-06
1.01803e-07
3.1019e-06
6.0753e-08
3.10043e-06
7.71394e-08
3.09221e-06
6.65633e-08
3.07779e-06
8.39242e-08
7.7893e-08
3.07372e-06
3.205e-06
2.03937e-07
3.20785e-06
-1.3504e-07
3.20412e-06
1.55619e-07
3.21839e-06
1.63731e-07
3.1817e-06
-6.71822e-07
3.17055e-06
-1.75395e-07
3.19e-06
3.94174e-07
3.195e-06
4.76009e-07
3.20123e-06
3.98408e-07
3.2048e-06
3.63333e-07
3.21965e-06
4.50758e-07
3.21666e-06
2.64016e-07
3.22687e-06
2.29154e-07
3.21841e-06
1.43704e-07
3.21829e-06
1.01918e-07
3.20255e-06
7.64972e-08
3.19574e-06
8.39469e-08
3.18934e-06
7.29686e-08
3.19349e-06
7.97736e-08
7.93378e-08
3.19204e-06
3.32721e-06
2.02743e-07
3.3293e-06
-1.37136e-07
3.32557e-06
1.59352e-07
3.33915e-06
1.50152e-07
3.30465e-06
-6.37327e-07
3.29108e-06
-1.61825e-07
3.31182e-06
3.73433e-07
3.31701e-06
4.70822e-07
3.32238e-06
3.93041e-07
3.32754e-06
3.58165e-07
3.34095e-06
4.37355e-07
3.33898e-06
2.65984e-07
3.34859e-06
2.19547e-07
3.3352e-06
1.57094e-07
3.32899e-06
1.0812e-07
3.32216e-06
8.33304e-08
3.3167e-06
8.94118e-08
3.31025e-06
7.9419e-08
3.31551e-06
7.45128e-08
8.05048e-08
3.31434e-06
3.45393e-06
2.01097e-07
3.45534e-06
-1.38547e-07
3.45197e-06
1.6272e-07
3.46432e-06
1.37803e-07
3.43213e-06
-6.05135e-07
3.41649e-06
-1.4619e-07
3.43795e-06
3.51976e-07
3.444e-06
4.64773e-07
3.44794e-06
3.89098e-07
3.45558e-06
3.50527e-07
3.46626e-06
4.26675e-07
3.46678e-06
2.65469e-07
3.47091e-06
2.15412e-07
3.47465e-06
1.53354e-07
3.47183e-06
1.10939e-07
3.47326e-06
8.1901e-08
3.47239e-06
9.02819e-08
3.46525e-06
8.65633e-08
3.44487e-06
9.48946e-08
8.4668e-08
3.4407e-06
3.58536e-06
1.99082e-07
3.58604e-06
-1.39228e-07
3.58358e-06
1.65178e-07
3.59402e-06
1.27365e-07
3.56442e-06
-5.75533e-07
3.54681e-06
-1.28582e-07
3.56883e-06
3.29954e-07
3.5755e-06
4.58109e-07
3.57903e-06
3.85562e-07
3.58666e-06
3.42896e-07
3.59955e-06
4.13784e-07
3.59579e-06
2.69235e-07
3.60464e-06
2.06556e-07
3.59328e-06
1.64716e-07
3.5859e-06
1.18324e-07
3.57644e-06
9.13537e-08
3.57249e-06
9.42321e-08
3.56892e-06
9.01417e-08
3.57378e-06
9.003e-08
8.52044e-08
3.57324e-06
3.72168e-06
1.96787e-07
3.72165e-06
-1.39195e-07
3.7204e-06
1.66422e-07
3.72868e-06
1.1909e-07
3.70142e-06
-5.48278e-07
3.68249e-06
-1.09646e-07
3.70423e-06
3.08216e-07
3.71249e-06
4.49846e-07
3.7145e-06
3.83551e-07
3.7237e-06
3.33695e-07
3.73645e-06
4.01032e-07
3.73293e-06
2.72754e-07
3.74352e-06
1.95975e-07
3.72958e-06
1.78655e-07
3.72122e-06
1.26685e-07
3.71164e-06
1.00926e-07
3.70751e-06
9.83681e-08
3.70434e-06
9.33101e-08
3.71076e-06
8.36137e-08
8.59127e-08
3.71005e-06
3.86311e-06
1.9427e-07
3.86234e-06
-1.38427e-07
3.86257e-06
1.66184e-07
3.86859e-06
1.13078e-07
3.84329e-06
-5.22986e-07
3.82377e-06
-9.01168e-08
3.84426e-06
2.87723e-07
3.85537e-06
4.38738e-07
3.85427e-06
3.84645e-07
3.86683e-06
3.21137e-07
3.87429e-06
3.93569e-07
3.87525e-06
2.71795e-07
3.87501e-06
1.96212e-07
3.89047e-06
1.63196e-07
3.88772e-06
1.29443e-07
3.88897e-06
9.96756e-08
3.88763e-06
9.97053e-08
3.88142e-06
9.95163e-08
3.85696e-06
1.08073e-07
9.18199e-08
3.85106e-06
4.0099e-06
1.9152e-07
4.00819e-06
-1.36708e-07
4.0104e-06
1.63968e-07
4.01367e-06
1.0981e-07
3.9907e-06
-5.00014e-07
3.9703e-06
-6.97216e-08
3.99023e-06
2.67799e-07
4.00155e-06
4.27415e-07
4.00268e-06
3.83518e-07
4.01066e-06
3.13157e-07
4.02791e-06
3.76318e-07
4.02581e-06
2.73895e-07
4.03414e-06
1.87879e-07
4.01716e-06
1.80173e-07
4.008e-06
1.38602e-07
3.99794e-06
1.09742e-07
3.99441e-06
1.03236e-07
3.99303e-06
1.00889e-07
4.0001e-06
1.01009e-07
9.23678e-08
3.99955e-06
4.16224e-06
1.88558e-07
4.15961e-06
-1.34078e-07
4.16368e-06
1.59903e-07
4.16463e-06
1.08858e-07
4.14324e-06
-4.78617e-07
4.12298e-06
-4.94704e-08
4.14109e-06
2.49695e-07
4.15426e-06
4.14241e-07
4.15534e-06
3.8244e-07
4.16161e-06
3.06888e-07
4.18103e-06
3.56895e-07
4.16622e-06
2.88707e-07
4.16875e-06
1.85348e-07
4.16702e-06
1.8191e-07
4.16017e-06
1.45451e-07
4.14971e-06
1.20199e-07
4.1457e-06
1.0725e-07
4.1442e-06
1.02383e-07
4.15324e-06
9.1974e-08
9.30916e-08
4.15251e-06
4.32037e-06
1.85377e-07
4.31686e-06
-1.30567e-07
4.32257e-06
1.54185e-07
4.32174e-06
1.09692e-07
4.30104e-06
-4.5792e-07
4.28221e-06
-3.06347e-08
4.29642e-06
2.3548e-07
4.31421e-06
3.96458e-07
4.31138e-06
3.85264e-07
4.32125e-06
2.97014e-07
4.33044e-06
3.47707e-07
4.34281e-06
2.76342e-07
4.34632e-06
1.8184e-07
4.35448e-06
1.73748e-07
4.35206e-06
1.47866e-07
4.35507e-06
1.1719e-07
4.35246e-06
1.09865e-07
4.34495e-06
1.09889e-07
4.31818e-06
1.18751e-07
1.01452e-07
4.30981e-06
4.48457e-06
1.81889e-07
4.47987e-06
-1.25861e-07
4.48766e-06
1.46392e-07
4.4845e-06
1.12857e-07
4.46534e-06
-4.38768e-07
4.44669e-06
-1.19834e-08
4.46031e-06
2.21859e-07
4.47554e-06
3.81232e-07
4.47914e-06
3.81662e-07
4.47979e-06
2.9637e-07
4.50437e-06
3.23122e-07
4.48927e-06
2.91448e-07
4.48886e-06
1.82244e-07
4.48525e-06
1.77357e-07
4.48095e-06
1.5217e-07
4.47137e-06
1.26764e-07
4.46773e-06
1.13512e-07
4.46664e-06
1.10974e-07
4.47651e-06
1.0888e-07
1.0208e-07
4.47588e-06
4.65498e-06
1.7812e-07
4.64931e-06
-1.20198e-07
4.65856e-06
1.37144e-07
4.65412e-06
1.173e-07
4.63493e-06
-4.19581e-07
4.61873e-06
4.2226e-09
4.62773e-06
2.12858e-07
4.64631e-06
3.62644e-07
4.64885e-06
3.79122e-07
4.6468e-06
2.98424e-07
4.66301e-06
3.06913e-07
4.65936e-06
2.95093e-07
4.65955e-06
1.8206e-07
4.65299e-06
1.83913e-07
4.65088e-06
1.54281e-07
4.64159e-06
1.36051e-07
4.6376e-06
1.17507e-07
4.63598e-06
1.12591e-07
4.64734e-06
9.75219e-08
1.02604e-07
4.64681e-06
4.83186e-06
1.74048e-07
4.82535e-06
-1.13685e-07
4.83562e-06
1.26875e-07
4.83079e-06
1.22128e-07
4.80993e-06
-3.98726e-07
4.79951e-06
1.46449e-08
4.79879e-06
2.13581e-07
4.82709e-06
3.34342e-07
4.82028e-06
3.85933e-07
4.8332e-06
2.85504e-07
4.83522e-06
3.04892e-07
4.84275e-06
2.87561e-07
4.83963e-06
1.85185e-07
4.86545e-06
1.5809e-07
4.87138e-06
1.48347e-07
4.87744e-06
1.29995e-07
4.87304e-06
1.21904e-07
4.86334e-06
1.22292e-07
4.8329e-06
1.27968e-07
1.13659e-07
4.82184e-06
5.01556e-06
1.69562e-07
5.00778e-06
-1.0591e-07
5.01966e-06
1.14992e-07
5.01333e-06
1.28458e-07
4.9935e-06
-3.78893e-07
4.98258e-06
2.55706e-08
4.98431e-06
2.11842e-07
5.00554e-06
3.13119e-07
5.00585e-06
3.85622e-07
5.00529e-06
2.8606e-07
5.01865e-06
2.91537e-07
5.01906e-06
2.87144e-07
5.01476e-06
1.89483e-07
5.01126e-06
1.616e-07
5.009e-06
1.50603e-07
5.00412e-06
1.34872e-07
4.99676e-06
1.29261e-07
4.99775e-06
1.21308e-07
5.00842e-06
1.17301e-07
1.14594e-07
5.00748e-06
5.20613e-06
1.64746e-07
5.19763e-06
-9.74078e-08
5.2101e-06
1.02522e-07
5.20367e-06
1.34885e-07
5.18312e-06
-3.5834e-07
5.17343e-06
3.52597e-08
5.17658e-06
2.08695e-07
5.19115e-06
2.98545e-07
5.20001e-06
3.76765e-07
5.19301e-06
2.93054e-07
5.20875e-06
2.75795e-07
5.20742e-06
2.88481e-07
5.20413e-06
1.92772e-07
5.20007e-06
1.65655e-07
5.20013e-06
1.50549e-07
5.19437e-06
1.40636e-07
5.19468e-06
1.2895e-07
5.19291e-06
1.23074e-07
5.19632e-06
1.13889e-07
1.11692e-07
5.19922e-06
5.40396e-06
1.59563e-07
5.39475e-06
-8.81954e-08
5.40751e-06
8.97584e-08
5.40186e-06
1.40532e-07
5.37872e-06
-3.35193e-07
5.37305e-06
4.0925e-08
5.37236e-06
2.0939e-07
5.38802e-06
2.8288e-07
5.39402e-06
3.70765e-07
5.39068e-06
2.96395e-07
5.40235e-06
2.64129e-07
5.40465e-06
2.86176e-07
5.40002e-06
1.97409e-07
5.39778e-06
1.67891e-07
5.39703e-06
1.513e-07
5.39399e-06
1.43673e-07
5.39363e-06
1.29311e-07
5.39434e-06
1.22364e-07
5.39372e-06
1.14505e-07
1.08087e-07
5.39733e-06
5.60931e-06
1.53992e-07
5.59937e-06
-7.82593e-08
5.61239e-06
7.67382e-08
5.60761e-06
1.45313e-07
5.58233e-06
-3.09907e-07
5.57873e-06
4.45184e-08
5.57686e-06
2.11264e-07
5.59149e-06
2.68243e-07
5.59819e-06
3.64069e-07
5.59539e-06
2.99196e-07
5.60454e-06
2.54981e-07
5.60921e-06
2.81505e-07
5.60433e-06
2.02283e-07
5.60247e-06
1.69752e-07
5.6016e-06
1.52175e-07
5.60015e-06
1.45116e-07
5.59849e-06
1.30976e-07
5.59751e-06
1.23345e-07
5.59921e-06
1.12801e-07
1.04904e-07
5.6024e-06
5.82237e-06
1.48105e-07
5.81214e-06
-6.80273e-08
5.8247e-06
6.41743e-08
5.82225e-06
1.47765e-07
5.79382e-06
-2.81479e-07
5.79211e-06
4.62312e-08
5.78894e-06
2.14428e-07
5.80262e-06
2.54571e-07
5.81017e-06
3.56513e-07
5.80804e-06
3.01329e-07
5.81485e-06
2.48166e-07
5.8214e-06
2.74957e-07
5.81671e-06
2.06979e-07
5.81503e-06
1.71431e-07
5.81394e-06
1.53257e-07
5.81388e-06
1.45186e-07
5.81285e-06
1.31998e-07
5.81333e-06
1.2287e-07
5.81288e-06
1.13251e-07
1.0259e-07
5.81519e-06
6.04351e-06
1.41895e-07
6.03303e-06
-5.75463e-08
6.045e-06
5.22054e-08
6.04535e-06
1.47411e-07
6.01421e-06
-2.50344e-07
6.01297e-06
4.74758e-08
6.0094e-06
2.18e-07
6.02154e-06
2.4243e-07
6.03027e-06
3.47783e-07
6.02884e-06
3.02759e-07
6.03376e-06
2.43242e-07
6.04129e-06
2.6743e-07
6.0375e-06
2.10773e-07
6.03562e-06
1.73311e-07
6.03468e-06
1.54197e-07
6.03502e-06
1.44841e-07
6.03266e-06
1.34355e-07
6.03212e-06
1.23415e-07
6.03441e-06
1.10957e-07
1.00789e-07
6.03621e-06
6.273e-06
1.35399e-07
6.26244e-06
-4.69854e-08
6.2736e-06
4.10447e-08
6.27599e-06
1.45016e-07
6.24357e-06
-2.17925e-07
6.24199e-06
4.90614e-08
6.23856e-06
2.21429e-07
6.24881e-06
2.32181e-07
6.25871e-06
3.37876e-07
6.25798e-06
3.03491e-07
6.26152e-06
2.39709e-07
6.26946e-06
2.5949e-07
6.26659e-06
2.13636e-07
6.26472e-06
1.75183e-07
6.26368e-06
1.55233e-07
6.26454e-06
1.43987e-07
6.26471e-06
1.34178e-07
6.26641e-06
1.21722e-07
6.26441e-06
1.12951e-07
9.95182e-08
6.26568e-06
6.51116e-06
1.28645e-07
6.50057e-06
-3.63957e-08
6.51084e-06
3.07703e-08
6.51461e-06
1.41249e-07
6.48226e-06
-1.8558e-07
6.47963e-06
5.16938e-08
6.47678e-06
2.24279e-07
6.48492e-06
2.24047e-07
6.49575e-06
3.27042e-07
6.49591e-06
3.03334e-07
6.49828e-06
2.37337e-07
6.50608e-06
2.51692e-07
6.50458e-06
2.15138e-07
6.50279e-06
1.76972e-07
6.50175e-06
1.56274e-07
6.50245e-06
1.4328e-07
6.50131e-06
1.3532e-07
6.50097e-06
1.22065e-07
6.503e-06
1.10921e-07
9.84907e-08
6.50403e-06
6.75832e-06
1.21668e-07
6.74775e-06
-2.58271e-08
6.75714e-06
2.13798e-08
6.76188e-06
1.3651e-07
6.73028e-06
-1.53985e-07
6.72669e-06
5.52904e-08
6.72433e-06
2.26637e-07
6.73049e-06
2.17884e-07
6.7418e-06
3.15735e-07
6.74278e-06
3.02349e-07
6.74434e-06
2.35783e-07
6.75193e-06
2.44099e-07
6.75142e-06
2.15649e-07
6.7498e-06
1.78585e-07
6.74859e-06
1.5749e-07
6.74965e-06
1.42214e-07
6.75088e-06
1.34094e-07
6.75238e-06
1.20569e-07
6.75084e-06
1.12453e-07
9.80412e-08
6.75129e-06
7.01481e-06
1.14503e-07
7.00421e-06
-1.52268e-08
7.01281e-06
1.27835e-08
7.01828e-06
1.31042e-07
6.98811e-06
-1.23811e-07
6.98358e-06
5.98207e-08
6.9815e-06
2.28715e-07
6.98579e-06
2.13591e-07
6.9971e-06
3.04426e-07
6.99907e-06
3.00381e-07
6.99996e-06
2.34891e-07
7.00709e-06
2.36969e-07
7.00759e-06
2.15152e-07
7.0065e-06
1.79674e-07
7.00537e-06
1.58616e-07
7.00619e-06
1.41397e-07
7.00608e-06
1.34204e-07
7.00565e-06
1.21002e-07
7.00792e-06
1.1018e-07
9.77719e-08
7.00819e-06
7.281e-06
1.07195e-07
7.27033e-06
-4.56064e-09
7.27831e-06
4.81012e-09
7.28432e-06
1.25029e-07
7.25777e-06
-9.72589e-08
7.25066e-06
6.69303e-08
7.24859e-06
2.30784e-07
7.25128e-06
2.10902e-07
7.26215e-06
2.93547e-07
7.26509e-06
2.97442e-07
7.26557e-06
2.3441e-07
7.27224e-06
2.303e-07
7.27349e-06
2.13901e-07
7.27278e-06
1.80384e-07
7.27175e-06
1.59651e-07
7.2723e-06
1.4085e-07
7.27391e-06
1.32589e-07
7.27559e-06
1.19324e-07
7.27486e-06
1.10908e-07
9.77754e-08
7.27486e-06
7.55723e-06
9.97969e-08
7.54664e-06
6.0252e-09
7.55377e-06
-2.31465e-09
7.56049e-06
1.18306e-07
7.53788e-06
-7.46462e-08
7.5273e-06
7.75071e-08
7.52617e-06
2.31919e-07
7.52729e-06
2.09774e-07
7.53724e-06
2.83604e-07
7.54122e-06
2.93457e-07
7.54137e-06
2.34261e-07
7.54749e-06
2.24178e-07
7.5494e-06
2.1199e-07
7.54927e-06
1.80513e-07
7.54858e-06
1.60348e-07
7.54875e-06
1.40679e-07
7.54965e-06
1.31691e-07
7.54936e-06
1.19614e-07
7.55174e-06
1.08521e-07
9.76262e-08
7.55189e-06
7.84381e-06
9.2439e-08
7.83388e-06
1.59541e-08
7.83923e-06
-7.66156e-09
7.8474e-06
1.10133e-07
7.81805e-06
-4.52893e-08
7.81256e-06
8.29966e-08
7.81478e-06
2.29696e-07
7.8141e-06
2.10451e-07
7.82301e-06
2.747e-07
7.82793e-06
2.88539e-07
7.82795e-06
2.34234e-07
7.83351e-06
2.18625e-07
7.83597e-06
2.09527e-07
7.83616e-06
1.80327e-07
7.83583e-06
1.60678e-07
7.83577e-06
1.40733e-07
7.8377e-06
1.29764e-07
7.83938e-06
1.17929e-07
7.83918e-06
1.0873e-07
9.73584e-08
7.83944e-06
8.14122e-06
8.51805e-08
8.13189e-06
2.52787e-08
8.13512e-06
-1.08864e-08
8.14594e-06
9.93158e-08
8.12661e-06
-2.5962e-08
8.12859e-06
8.1019e-08
8.11662e-06
2.41668e-07
8.11159e-06
2.15476e-07
8.11973e-06
2.66556e-07
8.12546e-06
2.82817e-07
8.1255e-06
2.34187e-07
8.13048e-06
2.13645e-07
8.13339e-06
2.06617e-07
8.13388e-06
1.79842e-07
8.13411e-06
1.60442e-07
8.13386e-06
1.40982e-07
8.135e-06
1.28628e-07
8.13473e-06
1.18199e-07
8.13745e-06
1.06006e-07
9.68172e-08
8.138e-06
8.44993e-06
7.80071e-08
8.44043e-06
3.47855e-08
8.4438e-06
-1.42586e-08
8.45319e-06
8.99244e-08
8.43409e-06
-6.85659e-09
8.42159e-06
9.35112e-08
8.42266e-06
2.40602e-07
8.42118e-06
2.16952e-07
8.42833e-06
2.59414e-07
8.43445e-06
2.76693e-07
8.43459e-06
2.34046e-07
8.43894e-06
2.09292e-07
8.44221e-06
2.0335e-07
8.4429e-06
1.79147e-07
8.44364e-06
1.59707e-07
8.44336e-06
1.41264e-07
8.4449e-06
1.27085e-07
8.4464e-06
1.16697e-07
8.44707e-06
1.05341e-07
9.59896e-08
8.4479e-06
8.77021e-06
7.10834e-08
8.76139e-06
4.36043e-08
8.76252e-06
-1.53909e-08
8.7707e-06
8.17436e-08
8.75105e-06
1.27955e-08
8.74115e-06
1.0341e-07
8.74273e-06
2.39027e-07
8.7423e-06
2.17373e-07
8.74886e-06
2.52863e-07
8.75518e-06
2.7037e-07
8.75549e-06
2.33732e-07
8.75923e-06
2.05552e-07
8.76285e-06
1.99729e-07
8.76369e-06