/*--------------------------------*- C++ -*----------------------------------*\
| =========                 |                                                 |
| \\      /  F ield         | OpenFOAM: The Open Source CFD Toolbox           |
|  \\    /   O peration     | Version:  v2012                                 |
|   \\  /    A nd           | Website:  www.openfoam.com                      |
|    \\/     M anipulation  |                                                 |
\*---------------------------------------------------------------------------*/
FoamFile
{
    version     2.0;
    format      ascii;
    class       volVectorField;
    location    "7.7";
    object      U;
}
// * * * * * * * * * * * * * * * * * * * * * * * * * * * * * * * * * * * * * //

dimensions      [0 1 -1 0 0 0 0];


internalField   nonuniform List<vector> 
7000
(
(0.971739 0.00220532 0)
(1.05311 -0.00302934 0)
(0.861709 0.00512815 0)
(1.24308 -0.00165674 0)
(0.561358 -0.0159931 0)
(1.30122 0.00643994 0)
(0.853377 0.00145123 0)
(1.0754 0.0167709 0)
(0.958151 0.00612851 0)
(1.0385 0.00937 0)
(0.948587 0.0184044 0)
(1.03569 0.0046964 0)
(0.911971 0.0157977 0)
(1.05416 0.000876479 0)
(0.900135 0.00689547 0)
(1.06934 -0.00729142 0)
(0.881834 -0.000241738 0)
(1.07804 -0.0109778 0)
(0.858841 -0.0037445 0)
(1.07747 -0.0126647 0)
(0.973487 0.00208609 0)
(1.04991 -0.00244309 0)
(0.867337 0.00397875 0)
(1.23081 0.000621107 0)
(0.594431 -0.0169251 0)
(1.29166 0.00470937 0)
(0.872116 0.00315082 0)
(1.07114 0.0163762 0)
(0.971139 0.00636804 0)
(1.03322 0.00963391 0)
(0.962406 0.0183856 0)
(1.01989 0.00534317 0)
(0.93688 0.0154202 0)
(1.02338 0.00132238 0)
(0.941718 0.00641931 0)
(1.02258 -0.00692096 0)
(0.941412 -0.000636186 0)
(1.01461 -0.0107954 0)
(0.937664 -0.0030689 0)
(0.996682 -0.0129331 0)
(0.976975 0.00197294 0)
(1.04412 -0.00188855 0)
(0.878967 0.00284876 0)
(1.20923 0.0023645 0)
(0.652041 -0.0178361 0)
(1.26719 0.00303064 0)
(0.909978 0.00475576 0)
(1.05956 0.0155459 0)
(0.992374 0.00671872 0)
(1.02237 0.00981086 0)
(0.985012 0.018563 0)
(1.00239 0.00579709 0)
(0.967733 0.0152309 0)
(1.00001 0.00118699 0)
(0.978109 0.00640042 0)
(0.996847 -0.00688275 0)
(0.980719 -0.000403092 0)
(0.988893 -0.0105306 0)
(0.976384 -0.00260689 0)
(0.975356 -0.0118826 0)
(0.981815 0.00188125 0)
(1.03654 -0.00141905 0)
(0.89579 0.00192638 0)
(1.1792 0.00374342 0)
(0.726705 -0.0185604 0)
(1.22528 0.00159449 0)
(0.957829 0.00620864 0)
(1.04349 0.0148579 0)
(1.01061 0.00708632 0)
(1.01102 0.0098504 0)
(1.0021 0.0188478 0)
(0.994322 0.00602062 0)
(0.986829 0.0152699 0)
(0.993995 0.000942573 0)
(0.995082 0.00662681 0)
(0.992569 -0.00710798 0)
(0.995397 7.6357e-05 0)
(0.98603 -0.0106221 0)
(0.988485 -0.00187041 0)
(0.974789 -0.011089 0)
(0.98737 0.00180211 0)
(1.02816 -0.00100981 0)
(0.915944 0.00115232 0)
(1.14298 0.00476505 0)
(0.805426 -0.0190523 0)
(1.17051 0.000200523 0)
(1.0015 0.00744557 0)
(1.0295 0.0145473 0)
(1.01917 0.00741961 0)
(1.00324 0.0099022 0)
(1.00743 0.0190867 0)
(0.994146 0.0062199 0)
(0.993257 0.0153052 0)
(0.996793 0.000730248 0)
(0.999953 0.00679489 0)
(0.996316 -0.00730316 0)
(0.998802 0.000524761 0)
(0.989909 -0.0106959 0)
(0.990608 -0.00109149 0)
(0.97911 -0.0103924 0)
(0.992916 0.00173529 0)
(1.02007 -0.000671139 0)
(0.936697 0.000541589 0)
(1.10498 0.00540862 0)
(0.874985 -0.0193031 0)
(1.11286 -0.00109475 0)
(1.0301 0.0083883 0)
(1.02154 0.0145834 0)
(1.01938 0.00772192 0)
(0.998981 0.0100312 0)
(1.00446 0.0192359 0)
(0.99617 0.0064028 0)
(0.993617 0.015261 0)
(1.00123 0.000519193 0)
(1.00134 0.00691308 0)
(1.00131 -0.00743211 0)
(0.999899 0.000931101 0)
(0.994616 -0.010644 0)
(0.991194 -0.000377269 0)
(0.983689 -0.00969818 0)
(0.997832 0.00168036 0)
(1.01321 -0.000410003 0)
(0.95535 0.000114148 0)
(1.07031 0.00572466 0)
(0.927822 -0.0193391 0)
(1.06258 -0.00215739 0)
(1.04054 0.00897063 0)
(1.01847 0.0148386 0)
(1.01604 0.00802827 0)
(0.99646 0.0102072 0)
(0.999312 0.0193055 0)
(0.997628 0.00651506 0)
(0.993357 0.0151531 0)
(1.00517 0.000265621 0)
(1.00333 0.00701407 0)
(1.00577 -0.0075377 0)
(1.00184 0.00131679 0)
(0.998766 -0.0104787 0)
(0.992807 0.000260772 0)
(0.987673 -0.0089433 0)
(1.00175 0.00163416 0)
(1.00806 -0.000218287 0)
(0.970227 -0.000145182 0)
(1.04264 0.00580285 0)
(0.963084 -0.0192131 0)
(1.02573 -0.0029362 0)
(1.0365 0.00919678 0)
(1.01665 0.0151586 0)
(1.01262 0.0083545 0)
(0.994557 0.010389 0)
(0.995825 0.0193171 0)
(0.99869 0.00654263 0)
(0.994542 0.0149865 0)
(1.00856 -4.15185e-05 0)
(1.00645 0.00710095 0)
(1.00944 -0.00762926 0)
(1.00459 0.0016938 0)
(1.00211 -0.0102155 0)
(0.995228 0.000838062 0)
(0.990998 -0.00812018 0)
(1.00458 0.00159292 0)
(1.00457 -8.08678e-05 0)
(0.98104 -0.000271896 0)
(1.02305 0.00573374 0)
(0.98408 -0.0189853 0)
(1.00295 -0.00345405 0)
(1.02471 0.0091572 0)
(1.01343 0.0154136 0)
(1.00994 0.00868392 0)
(0.993102 0.0105509 0)
(0.994908 0.0192844 0)
(1.00019 0.0064964 0)
(0.997017 0.0147682 0)
(1.01144 -0.000386968 0)
(1.00978 0.00717709 0)
(1.01213 -0.00768352 0)
(1.00719 0.002059 0)
(1.00448 -0.00986153 0)
(0.997593 0.00135955 0)
(0.993577 -0.00724627 0)
(1.00646 0.00155397 0)
(1.00229 1.70217e-05 0)
(0.988548 -0.000304088 0)
(1.01042 0.00558653 0)
(0.995358 -0.0187084 0)
(0.991244 -0.00375791 0)
(1.01136 0.00897772 0)
(1.00837 0.0155393 0)
(1.00751 0.00898489 0)
(0.992169 0.0106695 0)
(0.99585 0.0192056 0)
(1.00235 0.00639548 0)
(0.999933 0.0145232 0)
(1.01353 -0.000746733 0)
(1.01243 0.00724946 0)
(1.01361 -0.00767585 0)
(1.00894 0.00239721 0)
(1.00577 -0.00942162 0)
(0.999303 0.00181972 0)
(0.995324 -0.00634513 0)
(1.00761 0.00151646 0)
(1.00069 8.57275e-05 0)
(0.993908 -0.000272908 0)
(1.0026 0.00540477 0)
(1.00092 -0.0184191 0)
(0.986612 -0.00388652 0)
(1.00021 0.00876507 0)
(1.00253 0.0155367 0)
(1.00492 0.00923131 0)
(0.991688 0.0107206 0)
(0.997594 0.0190754 0)
(1.00477 0.00626069 0)
(1.00255 0.014283 0)
(1.01456 -0.00109124 0)
(1.01394 0.00732269 0)
(1.01383 -0.0075979 0)
(1.00959 0.00269551 0)
(1.00603 -0.00889439 0)
(1.00016 0.00221397 0)
(0.996275 -0.00543977 0)
(1.00821 0.0014813 0)
(0.999363 0.000130014 0)
(0.998117 -0.000199222 0)
(0.997582 0.00521191 0)
(1.00356 -0.0181377 0)
(0.985729 -0.00388989 0)
(0.992455 0.0085816 0)
(0.997181 0.0154398 0)
(1.00236 0.00941373 0)
(0.991521 0.0106913 0)
(0.999362 0.0188959 0)
(1.00689 0.00611116 0)
(1.00444 0.0140727 0)
(1.01445 -0.00139626 0)
(1.01427 0.00739224 0)
(1.01297 -0.0074402 0)
(1.00923 0.00293514 0)
(1.00546 -0.00829144 0)
(1.00025 0.0025338 0)
(0.996591 -0.00455209 0)
(1.00836 0.00145057 0)
(0.998136 0.000150391 0)
(1.00173 -9.4923e-05 0)
(0.994085 0.00501957 0)
(1.00491 -0.0178748 0)
(0.986446 -0.00381623 0)
(0.987729 0.0084502 0)
(0.993108 0.0152834 0)
(1.00036 0.00953975 0)
(0.99161 0.0105837 0)
(1.00078 0.0186792 0)
(1.00839 0.00596098 0)
(1.0055 0.0139079 0)
(1.01337 -0.00164397 0)
(1.0136 0.007448 0)
(1.01137 -0.0071928 0)
(1.00813 0.00310252 0)
(1.00439 -0.00763537 0)
(0.999791 0.00277816 0)
(0.99649 -0.00369567 0)
(1.0081 0.00142653 0)
(0.997045 0.000145726 0)
(1.00483 3.3163e-05 0)
(0.991613 0.00483272 0)
(1.00569 -0.0176331 0)
(0.987566 -0.00369501 0)
(0.985122 0.00836994 0)
(0.990486 0.0150879 0)
(0.999309 0.00962467 0)
(0.992 0.0104139 0)
(1.00176 0.0184427 0)
(1.00924 0.00582071 0)
(1.00587 0.0137922 0)
(1.01166 -0.00182366 0)
(1.01224 0.007474 0)
(1.00946 -0.00686044 0)
(1.00662 0.00319655 0)
(1.00313 -0.00694284 0)
(0.99902 0.00295385 0)
(0.996173 -0.00287851 0)
(1.00745 0.00141073 0)
(0.996255 0.000115883 0)
(1.00722 0.000179568 0)
(0.990191 0.00465197 0)
(1.00608 -0.017406 0)
(0.988484 -0.00354409 0)
(0.983806 0.00832864 0)
(0.989107 0.0148587 0)
(0.999313 0.00968216 0)
(0.992749 0.0102074 0)
(1.00238 0.0182007 0)
(1.0096 0.00569994 0)
(1.00582 0.0137186 0)
(1.0097 -0.00192119 0)
(1.01051 0.00744775 0)
(1.0076 -0.00645529 0)
(1.005 0.00321509 0)
(1.00194 -0.0062262 0)
(0.998154 0.00307135 0)
(0.995782 -0.00210855 0)
(1.00646 0.0014034 0)
(0.995937 6.35676e-05 0)
(1.00861 0.000337452 0)
(0.990014 0.00447602 0)
(1.00599 -0.0171806 0)
(0.988953 -0.00337609 0)
(0.983226 0.0083107 0)
(0.98861 0.0145928 0)
(1.00017 0.0097213 0)
(0.993847 0.00998949 0)
(1.00273 0.0179664 0)
(1.00963 0.00560262 0)
(1.00564 0.0136772 0)
(1.00786 -0.00192288 0)
(1.0087 0.00735359 0)
(1.00605 -0.00598493 0)
(1.00345 0.00316114 0)
(1.00093 -0.00549751 0)
(0.997338 0.00314662 0)
(0.995389 -0.00139013 0)
(1.00521 0.00140331 0)
(0.996155 -5.55126e-06 0)
(1.00889 0.000498326 0)
(0.991146 0.00430327 0)
(1.00528 -0.0169396 0)
(0.988974 -0.00320426 0)
(0.983095 0.00830191 0)
(0.988632 0.0142854 0)
(1.00152 0.00974803 0)
(0.995178 0.00977708 0)
(1.00292 0.0177515 0)
(1.00944 0.00552762 0)
(1.00548 0.013648 0)
(1.00639 -0.00181958 0)
(1.00699 0.0071874 0)
(1.0049 -0.00545806 0)
(1.00211 0.00304479 0)
(1.00015 -0.0047754 0)
(0.996648 0.00320039 0)
(0.995017 -0.000721031 0)
(1.00386 0.00140835 0)
(0.996811 -8.42386e-05 0)
(1.00821 0.000653247 0)
(0.993358 0.00413314 0)
(1.00391 -0.0166669 0)
(0.988709 -0.00304214 0)
(0.983302 0.00829313 0)
(0.988875 0.0139334 0)
(1.00299 0.00976523 0)
(0.996555 0.00958092 0)
(1.003 0.0175621 0)
(1.0091 0.00547292 0)
(1.00538 0.013602 0)
(1.00544 -0.00161313 0)
(1.00553 0.00695998 0)
(1.00413 -0.00488514 0)
(1.00101 0.00288842 0)
(0.999543 -0.00407455 0)
(0.996115 0.00325414 0)
(0.994674 -9.43774e-05 0)
(1.00258 0.00141637 0)
(0.997668 -0.000165885 0)
(1.00697 0.000794543 0)
(0.996155 0.00396675 0)
(1.00204 -0.0163514 0)
(0.988373 -0.00290234 0)
(0.983819 0.00827964 0)
(0.989146 0.0135425 0)
(1.0043 0.00976907 0)
(0.997784 0.00941047 0)
(1.00301 0.017393 0)
(1.00865 0.00544695 0)
(1.00528 0.0135167 0)
(1.00504 -0.00131331 0)
(1.00441 0.00667736 0)
(1.00364 -0.00427547 0)
(1.0002 0.00272923 0)
(0.999066 -0.00340379 0)
(0.995754 0.00330792 0)
(0.994369 0.000486747 0)
(1.00152 0.00142602 0)
(0.998453 -0.000246528 0)
(1.00566 0.000917712 0)
(0.998957 0.00380667 0)
(0.999969 -0.0159898 0)
(0.98814 -0.0027963 0)
(0.98461 0.00826083 0)
(0.989351 0.0131207 0)
(1.00533 0.00976298 0)
(0.998738 0.00926342 0)
(1.00297 0.0172342 0)
(1.00816 0.0054634 0)
(1.00515 0.0133768 0)
(1.00508 -0.000922093 0)
(1.00368 0.00635027 0)
(1.00336 -0.00364434 0)
(0.999677 0.00259106 0)
(0.998685 -0.00275644 0)
(0.995569 0.00336971 0)
(0.99413 0.00101894 0)
(1.00075 0.00143705 0)
(0.998972 -0.000325335 0)
(1.00464 0.00102186 0)
(1.00132 0.00365601 0)
(0.998018 -0.0155852 0)
(0.988087 -0.00273049 0)
(0.985594 0.008241 0)
(0.989484 0.0126762 0)
(1.00602 0.00974899 0)
(0.999378 0.00913931 0)
(1.00289 0.0170771 0)
(1.00774 0.0055283 0)
(1.00501 0.013163 0)
(1.00541 -0.000457636 0)
(1.00332 0.006012 0)
(1.00323 -0.00301813 0)
(0.999447 0.00247097 0)
(0.998401 -0.00212798 0)
(0.995548 0.00346722 0)
(0.993985 0.00152143 0)
(1.00029 0.00144988 0)
(0.999164 -0.000403567 0)
(1.00406 0.00110855 0)
(1.00306 0.00351739 0)
(0.996422 -0.0151454 0)
(0.988199 -0.00270431 0)
(0.98666 0.00822296 0)
(0.989585 0.0122207 0)
(1.00639 0.00972222 0)
(0.999745 0.00904294 0)
(1.0028 0.0169067 0)
(1.00742 0.00564469 0)
(1.00492 0.0128629 0)
(1.00586 3.88486e-05 0)
(1.00331 0.00569154 0)
(1.00319 -0.00239598 0)
(0.999468 0.00237737 0)
(0.998233 -0.00153627 0)
(0.995664 0.00358632 0)
(0.993952 0.00200062 0)
(1.00008 0.00146519 0)
(0.999094 -0.000483351 0)
(1.00384 0.00118091 0)
(1.00423 0.00339111 0)
(0.995282 -0.014678 0)
(0.988416 -0.00271233 0)
(0.98771 0.00820516 0)
(0.989706 0.0117663 0)
(1.00644 0.00968637 0)
(0.999908 0.00897077 0)
(1.00272 0.0166981 0)
(1.00721 0.00580819 0)
(1.00496 0.0124943 0)
(1.0063 0.000561528 0)
(1.00355 0.00538459 0)
(1.00322 -0.00177075 0)
(0.999664 0.00234425 0)
(0.998187 -0.000967823 0)
(0.995872 0.00371499 0)
(0.994032 0.00244572 0)
(1.00004 0.00148343 0)
(0.998888 -0.000566133 0)
(1.0038 0.00124182 0)
(1.00499 0.00327583 0)
(0.994589 -0.0141897 0)
(0.988665 -0.00274663 0)
(0.988678 0.00818754 0)
(0.989893 0.0113199 0)
(1.00615 0.00963965 0)
(0.999925 0.00892749 0)
(1.00269 0.0164369 0)
(1.00706 0.00600373 0)
(1.00515 0.0120796 0)
(1.00661 0.00110736 0)
(1.00394 0.00509715 0)
(1.00328 -0.00115881 0)
(0.999948 0.00236751 0)
(0.998247 -0.000428086 0)
(0.996119 0.00386779 0)
(0.994204 0.0028886 0)
(1.00009 0.00150424 0)
(0.998672 -0.000650945 0)
(1.00376 0.00129204 0)
(1.00551 0.00316969 0)
(0.994284 -0.0136859 0)
(0.988892 -0.00279635 0)
(0.989533 0.00816693 0)
(0.990176 0.0108958 0)
(1.00555 0.00957601 0)
(0.999838 0.00890292 0)
(1.00269 0.016131 0)
(1.00691 0.00623777 0)
(1.00545 0.0116104 0)
(1.00676 0.00165016 0)
(1.00436 0.00487158 0)
(1.00334 -0.000548286 0)
(1.00024 0.00244859 0)
(0.998381 8.38836e-05 0)
(0.996373 0.00397782 0)
(0.994441 0.00331366 0)
(1.00017 0.00152665 0)
(0.998538 -0.000736011 0)
(1.00358 0.00133315 0)
(1.00589 0.00306669 0)
(0.994301 -0.0131674 0)
(0.989072 -0.00285755 0)
(0.990263 0.00812997 0)
(0.990564 0.0105071 0)
(1.00468 0.00949946 0)
(0.999679 0.00889118 0)
(1.00272 0.0157724 0)
(1.0067 0.00650052 0)
(1.00577 0.0111283 0)
(1.00673 0.00216538 0)
(1.00474 0.00467199 0)
(1.00336 5.93777e-05 0)
(1.00049 0.00260454 0)
(0.99854 0.000635883 0)
(0.996604 0.00408791 0)
(0.99472 0.00366301 0)
(1.00022 0.00154991 0)
(0.99854 -0.000820068 0)
(1.00321 0.00136681 0)
(1.00616 0.00296258 0)
(0.994573 -0.0126392 0)
(0.9892 -0.00291736 0)
(0.990867 0.0080694 0)
(0.991053 0.0101633 0)
(1.00362 0.00938519 0)
(0.999483 0.00891917 0)
(1.00272 0.015361 0)
(1.00642 0.00676053 0)
(1.00605 0.0106378 0)
(1.00655 0.00271883 0)
(1.00502 0.00447159 0)
(1.00334 0.000598509 0)
(1.00068 0.00276358 0)
(0.9987 0.00119672 0)
(0.996793 0.00432547 0)
(0.995002 0.00409804 0)
(1.00023 0.00157315 0)
(0.998696 -0.000900441 0)
(1.00267 0.0013946 0)
(1.00631 0.0028508 0)
(0.995035 -0.0120969 0)
(0.98929 -0.00296942 0)
(0.991347 0.00798857 0)
(0.991621 0.00986752 0)
(1.00251 0.00927245 0)
(0.999292 0.00889214 0)
(1.00268 0.0149603 0)
(1.00607 0.00701974 0)
(1.00625 0.0101496 0)
(1.00625 0.00320903 0)
(1.00519 0.00442508 0)
(1.00328 0.00108472 0)
(1.0008 0.00293584 0)
(0.998864 0.00155079 0)
(0.99698 0.00445584 0)
(0.995283 0.00450748 0)
(1.0002 0.0015937 0)
(0.998999 -0.000973605 0)
(1.002 0.00142148 0)
(1.00632 0.00272375 0)
(0.995621 -0.0115458 0)
(0.989363 -0.00300702 0)
(0.991715 0.00787759 0)
(0.992239 0.00959936 0)
(1.00144 0.0091819 0)
(0.999144 0.00886304 0)
(1.00258 0.0144955 0)
(1.00568 0.0072592 0)
(1.00632 0.00975502 0)
(1.00589 0.00358331 0)
(1.00525 0.00437275 0)
(1.00318 0.00161347 0)
(1.00085 0.00315304 0)
(0.998986 0.00194336 0)
(0.997157 0.00453935 0)
(0.995556 0.00480318 0)
(1.00012 0.00161015 0)
(0.999423 -0.00103691 0)
(1.00127 0.00143913 0)
(1.00617 0.00260029 0)
(0.996261 -0.0110152 0)
(0.98944 -0.00299856 0)
(0.991989 0.00769593 0)
(0.992869 0.00944332 0)
(1.0005 0.00895865 0)
(0.999066 0.00896979 0)
(1.00243 0.0139227 0)
(1.0053 0.00754579 0)
(1.00629 0.00919651 0)
(1.0055 0.00422257 0)
(1.00522 0.00414038 0)
(1.00307 0.0021943 0)
(1.00087 0.00344804 0)
(0.999098 0.00265776 0)
(0.997332 0.00468255 0)
(0.99582 0.00517154 0)
(1.00001 0.00162759 0)
(0.999925 -0.0010995 0)
(1.00055 0.00147234 0)
(1.00589 0.00244076 0)
(0.996892 -0.0104542 0)
(0.989535 -0.00298997 0)
(0.992199 0.00750917 0)
(0.993477 0.00925658 0)
(0.999746 0.0088816 0)
(0.999075 0.00882666 0)
(1.00223 0.0136019 0)
(1.00493 0.00761141 0)
(1.00618 0.00894936 0)
(1.00513 0.00443153 0)
(1.00512 0.00430413 0)
(1.00301 0.0025152 0)
(1.00089 0.00371681 0)
(0.999194 0.00297384 0)
(0.99752 0.00477836 0)
(0.996116 0.00539198 0)
(0.999874 0.00162926 0)
(1.00045 -0.00113386 0)
(0.999901 0.00149245 0)
(1.0055 0.00229294 0)
(0.997463 -0.00994158 0)
(0.989656 -0.00289464 0)
(0.992367 0.00723115 0)
(0.994045 0.00916123 0)
(0.999175 0.00868931 0)
(0.999177 0.00885676 0)
(1.00202 0.0130545 0)
(1.00463 0.00784855 0)
(1.00598 0.00853402 0)
(1.00481 0.00483981 0)
(1.00501 0.00427774 0)
(1.00292 0.00280722 0)
(1.00089 0.00397247 0)
(0.999272 0.00351127 0)
(0.997724 0.00510972 0)
(0.996366 0.005765 0)
(0.999732 0.00163304 0)
(1.00096 -0.00117531 0)
(0.99936 0.00152181 0)
(1.00506 0.00213727 0)
(0.997947 -0.00944333 0)
(0.989799 -0.00278817 0)
(0.992532 0.00698731 0)
(0.994534 0.00902668 0)
(0.99879 0.00854261 0)
(0.999342 0.00882197 0)
(1.00183 0.0126167 0)
(1.00438 0.0078702 0)
(1.0058 0.0083333 0)
(1.00454 0.00508039 0)
(1.00485 0.00445672 0)
(1.00294 0.00304177 0)
(1.001 0.00419776 0)
(0.999419 0.00382694 0)
(0.997969 0.00543439 0)
(0.996661 0.00620727 0)
(0.999598 0.0016419 0)
(1.00139 -0.00122461 0)
(0.998947 0.00158936 0)
(1.00461 0.00193019 0)
(0.998329 -0.00889082 0)
(0.989964 -0.00271115 0)
(0.992701 0.00673903 0)
(0.994956 0.00886361 0)
(0.998537 0.00855162 0)
(0.999569 0.00854706 0)
(1.00166 0.0124609 0)
(1.00422 0.00777381 0)
(1.0056 0.00817492 0)
(1.00434 0.00530052 0)
(1.00475 0.00459058 0)
(1.00293 0.00319163 0)
(1.00106 0.00452061 0)
(0.999569 0.00418688 0)
(0.998292 0.0055466 0)
(0.99693 0.00628061 0)
(0.999484 0.00161345 0)
(1.00173 -0.00120664 0)
(0.998662 0.00158445 0)
(1.00419 0.00183147 0)
(0.998616 -0.00851205 0)
(0.990144 -0.00244179 0)
(0.992898 0.00625023 0)
(0.995289 0.0089555 0)
(0.998389 0.00816395 0)
(0.999827 0.00876064 0)
(1.00154 0.0117448 0)
(1.00407 0.00823945 0)
(1.00548 0.00739087 0)
(1.00418 0.00598704 0)
(1.00461 0.0043657 0)
(1.00303 0.00404263 0)
(1.00125 0.00478219 0)
(0.99969 0.00521658 0)
(0.99851 0.00561463 0)
(0.997228 0.0062841 0)
(0.999395 0.00161431 0)
(1.00196 -0.0012468 0)
(0.998481 0.00163618 0)
(1.00384 0.00166135 0)
(0.998814 -0.00807138 0)
(0.990349 -0.00223633 0)
(0.993104 0.00597405 0)
(0.995561 0.00871534 0)
(0.998311 0.00822371 0)
(1.00008 0.00844681 0)
(1.00147 0.0115533 0)
(1.00396 0.00802299 0)
(1.00536 0.00750611 0)
(1.0041 0.00589664 0)
(1.00459 0.00476014 0)
(1.00315 0.00415448 0)
(1.00145 0.00502968 0)
(0.999893 0.00518356 0)
(0.99875 0.00594468 0)
(0.997564 0.00662932 0)
(0.99934 0.00161137 0)
(1.00209 -0.00128029 0)
(0.99838 0.00171323 0)
(1.00356 0.00146543 0)
(0.998942 -0.00756411 0)
(0.990578 -0.00210663 0)
(0.993324 0.00575269 0)
(0.995779 0.0085257 0)
(0.998239 0.0082995 0)
(1.00034 0.0080195 0)
(1.00142 0.011542 0)
(1.00388 0.00783131 0)
(1.00528 0.00739415 0)
(1.00402 0.00620618 0)
(1.00451 0.0051505 0)
(1.00328 0.00393751 0)
(1.00164 0.00514562 0)
(1.00007 0.00520253 0)
(0.999073 0.00627511 0)
(0.99786 0.00686023 0)
(0.999319 0.0015641 0)
(1.00213 -0.00122444 0)
(0.998342 0.00166015 0)
(1.00333 0.00146046 0)
(0.999035 -0.00734048 0)
(0.99082 -0.00168551 0)
(0.993565 0.005125 0)
(0.995934 0.00863356 0)
(0.998189 0.00789144 0)
(1.00058 0.00831434 0)
(1.0014 0.0106682 0)
(1.00377 0.00851462 0)
(1.00526 0.00655168 0)
(1.00401 0.00666601 0)
(1.00444 0.00521963 0)
(1.00337 0.00504691 0)
(1.00189 0.00523203 0)
(1.00032 0.0061916 0)
(0.999346 0.00636247 0)
(0.998162 0.00675127 0)
(0.999317 0.00156456 0)
(1.00211 -0.00125679 0)
(0.998338 0.00168985 0)
(1.00316 0.00133168 0)
(0.999094 -0.00696194 0)
(0.991082 -0.00142745 0)
(0.993803 0.00489244 0)
(0.996073 0.00829167 0)
(0.998146 0.00807815 0)
(1.00076 0.0077549 0)
(1.00143 0.0106813 0)
(1.00363 0.00821355 0)
(1.0052 0.00672305 0)
(1.00404 0.00662552 0)
(1.00446 0.00557295 0)
(1.00352 0.00492286 0)
(1.00214 0.00550171 0)
(1.00057 0.00606089 0)
(0.999508 0.00672977 0)
(0.998477 0.00708705 0)
(0.999338 0.00155722 0)
(1.00205 -0.00127757 0)
(0.998353 0.00174 0)
(1.00303 0.00120655 0)
(0.999125 -0.00652753 0)
(0.991376 -0.00127758 0)
(0.994043 0.00476147 0)
(0.996199 0.00792915 0)
(0.998049 0.00833557 0)
(1.00096 0.00722017 0)
(1.00143 0.0106034 0)
(1.00349 0.00805796 0)
(1.00518 0.00683687 0)
(1.00404 0.00646472 0)
(1.00434 0.00599614 0)
(1.00359 0.0047617 0)
(1.00236 0.00569389 0)
(1.00084 0.00581202 0)
(0.999869 0.0071091 0)
(0.998727 0.0075008 0)
(0.999375 0.00149647 0)
(1.00197 -0.00117923 0)
(0.998397 0.00160917 0)
(1.00289 0.00131321 0)
(0.999161 -0.00642827 0)
(0.991666 -0.000787075 0)
(0.994305 0.00407711 0)
(0.996314 0.00804688 0)
(0.997981 0.00784292 0)
(1.00108 0.00766463 0)
(1.00148 0.0095777 0)
(1.00333 0.00873394 0)
(1.00508 0.00610228 0)
(1.00407 0.00710283 0)
(1.00433 0.00600237 0)
(1.00366 0.00610449 0)
(1.00254 0.00581071 0)
(1.00109 0.00685515 0)
(1.00013 0.00703314 0)
(0.998975 0.00728751 0)
(0.999405 0.0014945 0)
(1.00189 -0.00119739 0)
(0.998445 0.00159368 0)
(1.00275 0.00124165 0)
(0.999188 -0.00607888 0)
(0.991973 -0.000549584 0)
(0.994564 0.00398128 0)
(0.996438 0.0075589 0)
(0.997915 0.00810786 0)
(1.00118 0.00713088 0)
(1.00153 0.00944407 0)
(1.00314 0.00853538 0)
(1.00507 0.00626746 0)
(1.00414 0.00696106 0)
(1.00431 0.00641667 0)
(1.00371 0.00584314 0)
(1.00275 0.00597436 0)
(1.00137 0.00663169 0)
(1.00024 0.00743987 0)
(0.999234 0.00778632 0)
(0.999437 0.00149393 0)
(1.00182 -0.00120548 0)
(0.998501 0.00159786 0)
(1.00262 0.00120915 0)
(0.999195 -0.00570441 0)
(0.992299 -0.00043801 0)
(0.994814 0.00398835 0)
(0.996603 0.00702612 0)
(0.997825 0.00836876 0)
(1.00125 0.00675152 0)
(1.0016 0.00923648 0)
(1.00298 0.0084431 0)
(1.00493 0.00641256 0)
(1.00419 0.00646698 0)
(1.00422 0.00683022 0)
(1.0037 0.00566374 0)
(1.00289 0.00631738 0)
(1.00165 0.0063764 0)
(1.00066 0.00767297 0)
(0.999411 0.00828077 0)
(0.999476 0.00139551 0)
(1.00175 -0.00103662 0)
(0.998578 0.00137224 0)
(1.00246 0.00141888 0)
(0.999217 -0.00570521 0)
(0.992609 0.000118554 0)
(0.995091 0.00331479 0)
(0.996753 0.00721691 0)
(0.997786 0.00767939 0)
(1.0013 0.00746322 0)
(1.00168 0.00818348 0)
(1.00281 0.00904443 0)
(1.00483 0.00590585 0)
(1.00427 0.00716966 0)
(1.00421 0.00652885 0)
(1.0037 0.00695166 0)
(1.00301 0.00646502 0)
(1.00184 0.00756477 0)
(1.00091 0.00748397 0)
(0.999665 0.00798896 0)
(0.999488 0.00143029 0)
(1.00171 -0.00108954 0)
(0.998648 0.00136393 0)
(1.0023 0.00132577 0)
(0.999245 -0.00529363 0)
(0.992918 0.000129358 0)
(0.995351 0.00350644 0)
(0.996943 0.00649501 0)
(0.99778 0.00812313 0)
(1.0013 0.00687142 0)
(1.00179 0.00818084 0)
(1.00265 0.00884979 0)
(1.00471 0.00625737 0)
(1.00434 0.0066219 0)
(1.00426 0.00656182 0)
(1.00377 0.00664279 0)
(1.0032 0.00659383 0)
(1.00208 0.00739285 0)
(1.00099 0.00790909 0)
(0.999869 0.00854992 0)
(0.999494 0.00138096 0)
(1.00168 -0.00101091 0)
(0.998718 0.00126985 0)
(1.00215 0.00140904 0)
(0.999231 -0.00495494 0)
(0.993271 0.000147937 0)
(0.995595 0.00374749 0)
(0.99717 0.0057933 0)
(0.997746 0.00832938 0)
(1.00132 0.00657601 0)
(1.00192 0.00811554 0)
(1.00252 0.00859507 0)
(1.00451 0.00669318 0)
(1.00438 0.00595666 0)
(1.00427 0.00660882 0)
(1.00378 0.00608692 0)
(1.00332 0.0068946 0)
(1.00234 0.00710833 0)
(1.00143 0.00849457 0)
(1.00004 0.00933164 0)
(0.999516 0.00129833 0)
(1.00164 -0.000857365 0)
(0.998813 0.00103688 0)
(1.00197 0.00160176 0)
(0.999247 -0.00488568 0)
(0.993595 0.000568764 0)
(0.99584 0.00336199 0)
(0.997384 0.00577272 0)
(0.997802 0.00791794 0)
(1.00129 0.00701417 0)
(1.00205 0.00746008 0)
(1.00245 0.00889012 0)
(1.00429 0.00642629 0)
(1.00437 0.00633047 0)
(1.00433 0.00641264 0)
(1.00392 0.00682329 0)
(1.00353 0.00717451 0)
(1.00266 0.00776947 0)
(1.00181 0.00850166 0)
(1.00019 0.00921314 0)
(0.999525 0.00134513 0)
(1.00162 -0.000902632 0)
(0.998908 0.00101748 0)
(1.00178 0.00151747 0)
(0.999272 -0.00448656 0)
(0.993932 0.000552864 0)
(0.996071 0.00346207 0)
(0.99763 0.0054039 0)
(0.99784 0.00792257 0)
(1.00127 0.00692136 0)
(1.00221 0.00730315 0)
(1.00234 0.00867494 0)
(1.00411 0.00661159 0)
(1.00442 0.00647563 0)
(1.00445 0.00652625 0)
(1.00404 0.00713554 0)
(1.00367 0.00719802 0)
(1.00287 0.00782281 0)
(1.00206 0.0081784 0)
(1.00036 0.00874057 0)
(0.999527 0.00121541 0)
(1.0016 -0.000715698 0)
(0.999004 0.000826586 0)
(1.00161 0.00168195 0)
(0.999285 -0.00417549 0)
(0.99427 0.000603546 0)
(0.996297 0.00347786 0)
(0.997873 0.00514685 0)
(0.997935 0.00767682 0)
(1.00123 0.00717795 0)
(1.00232 0.00686581 0)
(1.00233 0.00857827 0)
(1.00394 0.00693476 0)
(1.00441 0.00649577 0)
(1.00455 0.00659128 0)
(1.00416 0.00714764 0)
(1.00382 0.00725856 0)
(1.00307 0.00782328 0)
(1.00226 0.00802776 0)
(1.00051 0.00841848 0)
(0.999528 0.00122472 0)
(1.00159 -0.000665143 0)
(0.9991 0.000708764 0)
(1.00144 0.00169131 0)
(0.999293 -0.00385623 0)
(0.994616 0.000661137 0)
(0.996517 0.00353612 0)
(0.998118 0.00483021 0)
(0.998051 0.0076095 0)
(1.00117 0.00711543 0)
(1.00245 0.0067349 0)
(1.00235 0.00845029 0)
(1.00376 0.00697781 0)
(1.00441 0.00654623 0)
(1.00467 0.00668741 0)
(1.00429 0.00715946 0)
(1.00397 0.00736325 0)
(1.00322 0.00779495 0)
(1.0024 0.00789839 0)
(1.0007 0.0082252 0)
(0.999528 0.00115343 0)
(1.00157 -0.000569935 0)
(0.999199 0.000581273 0)
(1.00128 0.00170727 0)
(0.999307 -0.00343553 0)
(0.994961 0.000683282 0)
(0.996722 0.00355192 0)
(0.998371 0.004597 0)
(0.998189 0.0074099 0)
(1.00112 0.00721965 0)
(1.00256 0.00658434 0)
(1.00238 0.0081831 0)
(1.00362 0.00716609 0)
(1.00441 0.00669265 0)
(1.00477 0.00667329 0)
(1.00442 0.00709871 0)
(1.00412 0.00744721 0)
(1.00336 0.0077351 0)
(1.00255 0.00790828 0)
(1.00089 0.00811436 0)
(0.999528 0.0011036 0)
(1.00155 -0.000457337 0)
(0.999296 0.000467742 0)
(1.00114 0.00168617 0)
(0.999311 -0.0030286 0)
(0.995296 0.000691523 0)
(0.996935 0.00363469 0)
(0.998612 0.00441988 0)
(0.998367 0.0072091 0)
(1.00106 0.00721216 0)
(1.00264 0.00643849 0)
(1.00247 0.00795159 0)
(1.0035 0.00728802 0)
(1.00436 0.00673127 0)
(1.00486 0.0067022 0)
(1.0046 0.00712335 0)
(1.00428 0.00751567 0)
(1.00349 0.00770362 0)
(1.00267 0.00793928 0)
(1.00104 0.00800245 0)
(0.99953 0.00105958 0)
(1.00152 -0.000378335 0)
(0.999391 0.000357635 0)
(1.00101 0.00164349 0)
(0.999324 -0.002601 0)
(0.995635 0.000731004 0)
(0.997135 0.0036911 0)
(0.99885 0.00422432 0)
(0.998545 0.00698198 0)
(1.00102 0.00720302 0)
(1.00273 0.00640237 0)
(1.00255 0.00772641 0)
(1.00341 0.00735291 0)
(1.00434 0.0068193 0)
(1.00496 0.00678811 0)
(1.00476 0.00706434 0)
(1.00441 0.00747223 0)
(1.00363 0.00766347 0)
(1.00279 0.00796451 0)
(1.00117 0.00791471 0)
(0.999532 0.00099331 0)
(1.00149 -0.000274387 0)
(0.999488 0.000258254 0)
(1.0009 0.00160667 0)
(0.999332 -0.00218487 0)
(0.995955 0.0007737 0)
(0.997337 0.00372214 0)
(0.999073 0.00410099 0)
(0.998771 0.00674742 0)
(1.00099 0.00724003 0)
(1.00278 0.00633119 0)
(1.00268 0.00748741 0)
(1.00335 0.00738158 0)
(1.00429 0.0068728 0)
(1.00501 0.00681007 0)
(1.00491 0.00697651 0)
(1.00459 0.00747666 0)
(1.0038 0.00766962 0)
(1.0029 0.00795956 0)
(1.00125 0.0078458 0)
(0.999535 0.000946973 0)
(1.00146 -0.000181585 0)
(0.999579 0.00017118 0)
(1.00081 0.00152026 0)
(0.999351 -0.00178808 0)
(0.996279 0.000864519 0)
(0.997534 0.00378204 0)
(0.999292 0.00400777 0)
(0.998994 0.00650989 0)
(1.00097 0.00713446 0)
(1.00283 0.00630276 0)
(1.0028 0.00726198 0)
(1.00332 0.0073601 0)
(1.00428 0.00695014 0)
(1.00508 0.00690402 0)
(1.00508 0.00696101 0)
(1.00477 0.00748244 0)
(1.00395 0.00761261 0)
(1.00299 0.00790215 0)
(1.00134 0.00782059 0)
(0.999538 0.000881253 0)
(1.00143 -9.36679e-05 0)
(0.999668 8.27295e-05 0)
(1.00074 0.00147899 0)
(0.999373 -0.00140896 0)
(0.996585 0.000924537 0)
(0.99773 0.00378846 0)
(0.999492 0.00396315 0)
(0.999241 0.00626822 0)
(1.00097 0.00712244 0)
(1.00286 0.00629161 0)
(1.00295 0.00705183 0)
(1.00333 0.00735163 0)
(1.00425 0.00699776 0)
(1.0051 0.00693726 0)
(1.00522 0.00690205 0)
(1.00494 0.00739256 0)
(1.00411 0.00753092 0)
(1.00312 0.00785347 0)
(1.00142 0.0078113 0)
(0.999542 0.000836471 0)
(1.00139 1.29516e-06 0)
(0.999753 1.78585e-05 0)
(1.00067 0.00138806 0)
(0.999401 -0.00111254 0)
(0.996892 0.00104342 0)
(0.997931 0.00380913 0)
(0.999691 0.00389842 0)
(0.999493 0.00605457 0)
(1.00099 0.00701922 0)
(1.00287 0.00629748 0)
(1.00309 0.0068736 0)
(1.00336 0.00727644 0)
(1.00425 0.00697555 0)
(1.00514 0.00700048 0)
(1.00536 0.00691642 0)
(1.00513 0.00732699 0)
(1.00429 0.00750195 0)
(1.00326 0.00780364 0)
(1.0015 0.00782535 0)
(0.999547 0.000749679 0)
(1.00134 0.000113629 0)
(0.999834 -6.88065e-05 0)
(1.00064 0.0013354 0)
(0.999439 -0.000774197 0)
(0.997184 0.00121081 0)
(0.99812 0.00386228 0)
(0.999874 0.00390772 0)
(0.999762 0.0058189 0)
(1.00105 0.00689108 0)
(1.00289 0.00626262 0)
(1.00324 0.00667191 0)
(1.00342 0.00718811 0)
(1.00427 0.00698428 0)
(1.00518 0.00704318 0)
(1.00546 0.00690909 0)
(1.0053 0.00722687 0)
(1.00447 0.00744535 0)
(1.00342 0.00770435 0)
(1.00157 0.00779721 0)
(0.99955 0.000717889 0)
(1.0013 0.000177793 0)
(0.999911 -9.15173e-05 0)
(1.00061 0.00118901 0)
(0.999485 -0.000446748 0)
(0.997477 0.00122159 0)
(0.99831 0.00390035 0)
(1.00004 0.00396575 0)
(1.00001 0.00568471 0)
(1.00111 0.00677948 0)
(1.00289 0.00628467 0)
(1.00338 0.00652392 0)
(1.00351 0.00709827 0)
(1.0043 0.0069601 0)
(1.00521 0.00702938 0)
(1.00555 0.00692967 0)
(1.00549 0.00715844 0)
(1.00465 0.00740135 0)
(1.00359 0.00759704 0)
(1.00167 0.00775575 0)
(0.999555 0.000653154 0)
(1.00125 0.000270583 0)
(0.999975 -0.000123325 0)
(1.0006 0.00107486 0)
(0.999539 -0.000189568 0)
(0.997758 0.00123698 0)
(0.998527 0.00391811 0)
(1.00021 0.00403652 0)
(1.00028 0.00556419 0)
(1.0012 0.00668137 0)
(1.0029 0.00630787 0)
(1.00352 0.00640841 0)
(1.00361 0.00700765 0)
(1.00434 0.0069434 0)
(1.00527 0.0070253 0)
(1.00563 0.00698066 0)
(1.00564 0.00709028 0)
(1.00482 0.00734881 0)
(1.00376 0.00748761 0)
(1.00177 0.00770591 0)
(0.999559 0.000583511 0)
(1.0012 0.00036866 0)
(1.00004 -0.000165666 0)
(1.0006 0.000997788 0)
(0.999591 3.08201e-05 0)
(0.998038 0.00140811 0)
(0.998748 0.00398358 0)
(1.00038 0.00410223 0)
(1.00053 0.00543341 0)
(1.0013 0.00651482 0)
(1.0029 0.00627293 0)
(1.00364 0.00625328 0)
(1.00374 0.00686399 0)
(1.0044 0.0068827 0)
(1.00533 0.00694952 0)
(1.0057 0.00697471 0)
(1.00579 0.00702325 0)
(1.005 0.0072984 0)
(1.00395 0.00738594 0)
(1.0019 0.00762294 0)
(0.999563 0.000547192 0)
(1.00115 0.00042642 0)
(1.00009 -0.000145606 0)
(1.00061 0.000879262 0)
(0.999669 0.000286934 0)
(0.998313 0.0015856 0)
(0.998955 0.00396062 0)
(1.00052 0.00405954 0)
(1.00077 0.0052521 0)
(1.00143 0.00634738 0)
(1.00291 0.0062571 0)
(1.00377 0.00616474 0)
(1.00388 0.00675619 0)
(1.00448 0.00685632 0)
(1.00541 0.0068876 0)
(1.00578 0.00699889 0)
(1.00593 0.00699945 0)
(1.00515 0.00723993 0)
(1.00411 0.00728773 0)
(1.00203 0.0075149 0)
(0.999567 0.000487283 0)
(1.0011 0.000498969 0)
(1.00014 -9.36468e-05 0)
(1.00064 0.000832253 0)
(0.999753 0.000506352 0)