/*--------------------------------*- C++ -*----------------------------------*\
| =========                 |                                                 |
| \\      /  F ield         | OpenFOAM: The Open Source CFD Toolbox           |
|  \\    /   O peration     | Version:  v2012                                 |
|   \\  /    A nd           | Website:  www.openfoam.com                      |
|    \\/     M anipulation  |                                                 |
\*---------------------------------------------------------------------------*/
FoamFile
{
    version     2.0;
    format      ascii;
    class       volScalarField;
    location    "1";
    object      p;
}
// * * * * * * * * * * * * * * * * * * * * * * * * * * * * * * * * * * * * * //

dimensions      [0 2 -2 0 0 0 0];


internalField   nonuniform List<scalar> 
7000
(
-1.47158e-10
9.29879e-05
0.00109902
0.00352983
-0.000569745
0.00413626
-0.00481108
0.000445069
0.00401024
0.00376295
0.0049195
0.0071678
0.00722344
0.00874916
0.0105102
0.0131105
0.0154252
0.0189654
0.0225907
0.029117
5.35828e-07
9.22146e-05
0.00109984
0.0035191
-0.00055053
0.0040583
-0.00470112
0.000468791
0.00397734
0.00379799
0.00491699
0.00717811
0.00722044
0.00874269
0.0105127
0.0130914
0.0154377
0.018918
0.0226229
0.0288386
1.22368e-06
9.10455e-05
0.00110031
0.00350473
-0.000525563
0.00396841
-0.00462457
0.00050496
0.00395896
0.00384951
0.00490261
0.00718502
0.00721294
0.00873359
0.0105086
0.0130672
0.0154361
0.0188524
0.0226376
0.0283663
1.72253e-06
8.98157e-05
0.00110056
0.00348754
-0.000508962
0.00387893
-0.00453756
0.000554464
0.00392948
0.00388512
0.00487376
0.00718422
0.00720065
0.00871932
0.0104987
0.013037
0.0154239
0.0187777
0.0226101
0.0278818
2.01124e-06
8.85605e-05
0.00110072
0.00346621
-0.000499132
0.00379185
-0.00443492
0.000608757
0.00388665
0.00390426
0.00483537
0.00717499
0.00718488
0.00869876
0.0104861
0.0129987
0.0154101
0.0186881
0.0225506
0.0274243
2.119e-06
8.72595e-05
0.00110077
0.0034405
-0.000491755
0.00371194
-0.00431762
0.000655003
0.00382882
0.00391414
0.00479368
0.00716327
0.00716742
0.0086726
0.0104732
0.0129533
0.0153958
0.0185837
0.0224678
0.0269912
2.05876e-06
8.58977e-05
0.0011007
0.00341094
-0.000484439
0.00364006
-0.00419064
0.000689317
0.00376042
0.00392007
0.00475286
0.00714753
0.00715012
0.00864136
0.0104615
0.0129011
0.0153795
0.0184675
0.0223626
0.0265722
1.8475e-06
8.44619e-05
0.00110055
0.00337823
-0.000476159
0.0035737
-0.00405884
0.000714269
0.00368621
0.00392505
0.00471509
0.00712788
0.00713433
0.00860506
0.0104517
0.0128424
0.01536
0.018342
0.0222331
0.0261602
1.50905e-06
8.2932e-05
0.00110033
0.00334305
-0.000466408
0.00350952
-0.00392513
0.000733545
0.00360932
0.00393055
0.00468113
0.00710394
0.00712081
0.00856352
0.0104437
0.0127777
0.0153353
0.0182086
0.0220779
0.0257518
1.0681e-06
8.12815e-05
0.00110006
0.00330592
-0.000454986
0.00344484
-0.00379072
0.00074996
0.00353142
0.00393679
0.00465088
0.00707518
0.00710995
0.00851657
0.010437
0.0127076
0.0153037
0.0180684
0.0218961
0.0253444
5.4841e-07
7.94816e-05
0.00109975
0.00326707
-0.000441867
0.00337799
-0.00365584
0.000765183
0.00345339
0.00394309
0.004624
0.00703985
0.00710183
0.00846426
0.0104306
0.0126328
0.0152633
0.017922
0.0216876
0.0249354
-2.58241e-08
7.75034e-05
0.0010994
0.00322651
-0.000427079
0.0033081
-0.00352034
0.000779943
0.00337572
0.00394826
0.00460013
0.00700054
0.00709622
0.00840687
0.0104231
0.0125543
0.0152125
0.0177692
0.0214528
0.0245222
-6.2936e-07
7.53179e-05
0.00109905
0.00318402
-0.000410649
0.00323479
-0.0033839
0.000794305
0.00329878
0.00395098
0.00457894
0.00695572
0.00709253
0.00834494
0.010413
0.0124727
0.0151497
0.0176093
0.0211925
0.024102
-1.23786e-06
7.28964e-05
0.00109871
0.00313936
-0.000392585
0.00315807
-0.00324625
0.000807939
0.00322291
0.00395002
0.00456014
0.0069046
0.00708985
0.00827928
0.010399
0.0123884
0.015073
0.0174416
0.0209081
0.0236722
-1.83155e-06
7.021e-05
0.0010984
0.00309229
-0.000372859
0.00307812
-0.00310709
0.00082037
0.00314842
0.00394436
0.00454358
0.00684769
0.00708697
0.0082108
0.0103795
0.0123018
0.0149816
0.0172648
0.0206007
0.0232307
-2.3984e-06
6.72285e-05
0.00109815
0.00304275
-0.000351382
0.00299525
-0.00296617
0.000831171
0.00307561
0.00393327
0.00452917
0.00678609
0.00708266
0.00814039
0.0103526
0.0122127
0.0148749
0.0170781
0.0202714
0.0227758
-2.93548e-06
6.39187e-05
0.00109793
0.00299083
-0.000328029
0.00290973
-0.00282329
0.000840026
0.00300477
0.00391639
0.00451674
0.00671998
0.00707557
0.008069
0.0103169
0.0121203
0.0147525
0.0168809
0.0199219
0.0223062
-3.44846e-06
6.0245e-05
0.00109773
0.00293685
-0.000302674
0.00282172
-0.00267827
0.000846783
0.00293617
0.00389368
0.00450588
0.00665001
0.00706422
0.00799737
0.0102715
0.0120239
0.0146135
0.0166724
0.0195542
0.021822
-3.94989e-06
5.61719e-05
0.00109751
0.00288122
-0.00027522
0.00273117
-0.00253107
0.000851513
0.00286998
0.0038653
0.00449597
0.00657728
0.00704734
0.00792562
0.010216
0.0119228
0.0144569
0.0164509
0.0191706
0.0213242
-4.45669e-06
5.16674e-05
0.00109724
0.00282437
-0.000245608
0.00263794
-0.00238175
0.000854418
0.00280623
0.0038316
0.00448597
0.00650288
0.00702408
0.00785336
0.0101503
0.0118162
0.014283
0.0162154
0.0187724
0.020814
-4.98718e-06
4.67032e-05
0.00109693
0.0027666
-0.000213821
0.00254184
-0.00222872
0.000855697
0.0027449
0.00379324
0.00447441
0.00642767
0.00699379
0.00777991
0.0100742
0.0117029
0.0140916
0.0159657
0.0183613
0.0202925
-5.55807e-06
4.12532e-05
0.00109655
0.00270804
-0.000179901
0.00244276
-0.00207622
0.000855561
0.00268568
0.00375101
0.00445981
0.00635258
0.00695608
0.00770439
0.00998857
0.0115814
0.0138817
0.0157015
0.0179398
0.0197617
-6.18291e-06
3.52895e-05
0.00109612
0.00264865
-0.000143933
0.00234078
-0.00192322
0.000854195
0.00262804
0.00370591
0.00444085
0.00627831
0.00691075
0.00762524
0.00989423
0.0114519
0.0136522
0.0154213
0.0175104
0.0192236
-6.87031e-06
2.87786e-05
0.00109561
0.00258831
-0.000106036
0.0022361
-0.00177054
0.000851742
0.00257135
0.00365928
0.00441629
0.00620507
0.00685827
0.00753995
0.00979118
0.0113159
0.0134034
0.0151223
0.0170751
0.0186807
-7.62195e-06
2.16781e-05
0.00109501
0.00252685
-6.63619e-05
0.00212906
-0.00161909
0.000848602
0.00251469
0.00361242
0.0043852
0.00613252
0.00680006
0.00744641
0.00967731
0.0111749
0.0131385
0.0148016
0.0166326
0.0181354
-8.43486e-06
1.39405e-05
0.00109429
0.00246414
-2.50971e-05
0.00202002
-0.00146982
0.000845473
0.00245682
0.0035665
0.00434718
0.00605953
0.0067374
0.00734419
0.00955067
0.0110271
0.012862
0.0144607
0.0161804
0.0175878
-9.30196e-06
5.51259e-06
0.00109344
0.0024001
1.75079e-05
0.0019095
-0.00132368
0.00084312
0.00239658
0.00352232
0.00430242
0.00598502
0.00667075
0.0072327
0.00941074
0.010869
0.0125739
0.0141045
0.0157206
0.0170359
-1.02065e-05
-3.67167e-06
0.00109239
0.0023347
6.11511e-05
0.00179816
-0.00118183
0.000842364
0.00233321
0.0034802
0.00425134
0.00590798
0.00660187
0.00711064
0.00925562
0.0107014
0.0122709
0.0137336
0.015259
0.016481
-1.11257e-05
-1.36823e-05
0.00109114
0.00226796
0.000105521
0.00168679
-0.00104543
0.000843959
0.00226616
0.00344038
0.00419469
0.00582581
0.00653249
0.00697974
0.00907963
0.0105245
0.0119544
0.0133438
0.0147973
0.0159262
-1.20446e-05
-2.45785e-05
0.00108958
0.00219998
0.000150241
0.00157624
-0.000915646
0.000848577
0.00219477
0.00340316
0.0041326
0.00573783
0.00646049
0.00684399
0.00887999
0.0103329
0.0116287
0.0129372
0.0143321
0.0153721
-1.2938e-05
-3.64243e-05
0.00108763
0.00213097
0.000194809
0.00146757
-0.000793642
0.000856761
0.00211879
0.00336784
0.00406585
0.00564269
0.00638675
0.00670389
0.0086586
0.010121
0.0112956
0.0125054
0.0138675
0.0148223
-1.37567e-05
-4.93089e-05
0.00108518
0.0020611
0.000238749
0.00136164
-0.000680299
0.000868827
0.00203863
0.0033321
0.00400201
0.00552883
0.00631695
0.00655931
0.0084183
0.00988757
0.0109567
0.0120454
0.0133506
0.0142872
-1.44731e-05
-6.32984e-05
0.00108211
0.00199068
0.000281583
0.00125927
-0.000576318
0.000884575
0.00195478
0.00329399
0.00394457
0.0053974
0.00625139
0.0064133
0.00816136
0.00963225
0.0106108
0.0115522
0.0127662
0.0137735
-1.50684e-05
-7.84312e-05
0.00107818
0.00192019
0.00032262
0.00116155
-0.000482478
0.000903752
0.00186746
0.00325257
0.0038922
0.00525327
0.00617434
0.00627419
0.0078876
0.00935212
0.0102461
0.0110215
0.0121727
0.0132727
-1.54846e-05
-9.47815e-05
0.00107322
0.00184999
0.00036114
0.00106931
-0.000399547
0.000926394
0.00177721
0.00320661
0.00384533
0.00509875
0.00608214
0.0061411
0.00759403
0.00902862
0.00985844
0.010503
0.0116015
0.0127696
-1.56635e-05
-0.000112413
0.00106702
0.00178051
0.000396615
0.000982927
-0.000327683
0.00095176
0.00168613
0.00315377
0.00380385
0.0049352
0.00597563
0.00600227
0.00728106
0.00867532
0.00946274
0.0100029
0.0110356
0.0122569
-1.56105e-05
-0.000131315
0.00105919
0.00171236
0.00042849
0.000902803
-0.000267112
0.000978659
0.00159624
0.00309164
0.00376768
0.00476518
0.00584813
0.00585598
0.00695685
0.0082932
0.00906035
0.00953589
0.0104747
0.0117287
-1.53125e-05
-0.00015147
0.00104933
0.00164616
0.000456093
0.000829402
-0.000217951
0.00100576
0.00150952
0.00301858
0.00373616
0.0045906
0.00569015
0.00570205
0.00662561
0.00788633
0.00865897
0.00908651
0.0099219
0.011183
-1.46671e-05
-0.000172899
0.00103709
0.00158229
0.000478926
0.000762776
-0.000179393
0.00103103
0.00142823
0.00293362
0.00371081
0.00441046
0.00549978
0.0055389
0.00629614
0.00747083
0.00824951
0.00863852
0.00937203
0.0106391
-1.36758e-05
-0.000195573
0.00102205
0.00152123
0.000496738
0.000702616
-0.000150184
0.00105211
0.00135348
0.0028362
0.00367609
0.00422397
0.00528401
0.0053664
0.00597487
0.00705064
0.00781844
0.00818506
0.00883366
0.0101077
-1.23881e-05
-0.000219368
0.00100359
0.00146363
0.00050931
0.000648468
-0.00012944
0.00106671
0.00128626
0.00272597
0.00363141
0.0040374
0.00504034
0.00518424
0.00566506
0.00661937
0.00736191
0.00773228
0.00833278
0.00958649
-1.07242e-05
-0.000244209
0.000981194
0.00140988
0.000516572
0.0005993
-0.000115221
0.0010733
0.00122572
0.0026032
0.00357536
0.00385324
0.00477607
0.0049882
0.00536062
0.00618134
0.00689011
0.00727971
0.00784762
0.00907503
-8.71284e-06
-0.000269956
0.000954384
0.00136012
0.000518861
0.000553682
-0.000105274
0.0010708
0.00117
0.00246959
0.00350569
0.00367288
0.00450022
0.00477209
0.00505916
0.00574744
0.0064087
0.00682517
0.00736697
0.00857927
-6.45345e-06
-0.000296352
0.000922444
0.00131453
0.000516701
0.000510132
-9.86634e-05
0.00105825
0.00111752
0.0023267
0.0034198
0.003499
0.0042035
0.00453555
0.00476226
0.00531781
0.00591682
0.00635402
0.00690476
0.00809834
-3.87472e-06
-0.0003232
0.000884726
0.00127313
0.000510948
0.000467014
-9.492e-05
0.0010359
0.00106576
0.00217532
0.00331763
0.00333073
0.00390279
0.00427884
0.00446372
0.00489311
0.00542366
0.00586915
0.00645979
0.00763019
-1.04885e-06
-0.000350333
0.000840852
0.00123562
0.000502648
0.000422811
-9.37658e-05
0.00100442
0.00101268
0.00201678
0.00319778
0.00316712
0.00360427
0.00399705
0.00416066
0.00447968
0.00493142
0.00539719
0.00597414
0.00717214
1.85151e-06
-0.000377415
0.000790453
0.00120148
0.000493008
0.000376394
-9.58858e-05
0.000964274
0.00095726
0.00185218
0.00305913
0.00300745
0.00329952
0.00369077
0.0038524
0.00407472
0.00443652
0.00489849
0.00552381
0.00672536
4.8214e-06
-0.000404147
0.000733104
0.0011699
0.00048344
0.000326946
-0.000102766
0.000916246
0.00089863
0.00168179
0.00290282
0.00284849
0.00298896
0.00336487
0.00353206
0.00367496
0.00395195
0.00440164
0.00506405
0.00628506
7.69244e-06
-0.000430295
0.000668671
0.00113993
0.000475027
0.000274044
-0.000115897
0.000860716
0.000836351
0.00150711
0.0027285
0.00268858
0.00268009
0.00302129
0.003199
0.00328252
0.00347783
0.00389929
0.00460023
0.00584877
1.03358e-05
-0.000455554
0.000597149
0.00111006
0.000468565
0.000218053
-0.000136482
0.000797868
0.000770162
0.00132925
0.002536
0.00252459
0.00239268
0.00266169
0.00285296
0.00291097
0.00300324
0.00339495
0.00413008
0.00541699
1.26558e-05
-0.000479688
0.000518861
0.00107867
0.000464352
0.000159628
-0.000165437
0.000727675
0.00069999
0.00114902
0.00232596
0.00235344
0.00211431
0.00229087
0.00248019
0.0025229
0.00255429
0.00289525
0.00365374
0.00498788
1.43823e-05
-0.000502416
0.000434333
0.00104434
0.000462141
9.9615e-05
-0.000203357
0.000649529
0.000625744
0.000967633
0.00209879
0.00217179
0.00184303
0.00191477
0.00209001
0.0021308
0.00211637
0.00240599
0.00317611
0.00455589
1.53947e-05
-0.000523453
0.000344158
0.00100543
0.000461521
3.90538e-05
-0.00025086
0.000563236
0.000546959
0.00078594
0.00185634
0.00197593
0.00157866
0.00153916
0.00168297
0.00172979
0.00168827
0.00193084
0.00269761
0.00412067
1.54682e-05
-0.000542632
0.000249191
0.000961589
0.000461569
-2.1083e-05
-0.000307996
0.000468337
0.000463328
0.000605508
0.0016005
0.00176299
0.00131904
0.00116758
0.00126142
0.0013168
0.00126675
0.00147042
0.00222588
0.00368681
1.43143e-05
-0.000559589
0.000150401
0.000909018
0.000460901
-7.99147e-05
-0.000374521
0.00036415
0.000374665
0.000426884
0.00133276
0.00153093
0.00106113
0.000803815
0.000830414
0.000891011
0.000848569
0.00102579
0.00176576
0.00325484
1.16075e-05
-0.000573989
4.89226e-05
0.000846931
0.000458236
-0.000137011
-0.000450446
0.00025017
0.000280389
0.0002505
0.00105603
0.00127932
0.000801044
0.000450421
0.000396216
0.000451921
0.00042817
0.000593919
0.00132001
0.00282867
6.84257e-06
-0.000585502
-5.38443e-05
0.00077401
0.000451699
-0.000192007
-0.000535015
0.00012551
0.000179929
7.73235e-05
0.000773267
0.00100857
0.000533637
0.000107131
-3.49587e-05
1.62925e-06
2.2369e-06
0.00017097
0.000889714
0.00241235
-3.36784e-07
-0.000593971
-0.000156512
0.000689076
0.000439336
-0.000244483
-0.000627355
-1.06332e-05
7.23074e-05
-9.24897e-05
0.000487012
0.000720354
0.00025564
-0.000228638
-0.000458416
-0.000455405
-0.000430249
-0.000246344
0.000473012
0.00200634
-1.02482e-05
-0.000599309
-0.000257784
0.000591525
0.000419123
-0.000294801
-0.000726294
-0.000158366
-4.37955e-05
-0.000259012
0.000199721
0.000417139
-3.56368e-05
-0.000560872
-0.000870574
-0.000914262
-0.000870392
-0.000661011
6.78121e-05
0.0016102
-2.31252e-05
-0.000601516
-0.00035667
0.000480946
0.00038884
-0.000343678
-0.000829933
-0.000317579
-0.000169894
-0.000422795
-8.66228e-05
0.000101334
-0.00034087
-0.000892952
-0.00127118
-0.0013702
-0.00131616
-0.00107549
-0.000330371
0.00122169
-3.90208e-05
-0.000601364
-0.000452474
0.000358543
0.000346555
-0.000391846
-0.000936522
-0.00048813
-0.000308015
-0.000584788
-0.000370265
-0.000224195
-0.000659145
-0.00122848
-0.00166224
-0.0018194
-0.00176453
-0.00149211
-0.00072486
0.000839921
-5.80056e-05
-0.000599972
-0.000544581
0.000225957
0.000290471
-0.00044003
-0.00104407
-0.000669675
-0.000460349
-0.000746537
-0.000650032
-0.000556511
-0.000989252
-0.00156977
-0.00204574
-0.00225959
-0.00221331
-0.00191222
-0.00111697
0.00046408
-8.02939e-05
-0.00059815
-0.000632468
8.39965e-05
0.000219246
-0.000488556
-0.0011503
-0.000861341
-0.000629398
-0.00091069
-0.000925174
-0.000892796
-0.00132916
-0.00191861
-0.00242412
-0.00268953
-0.00266017
-0.00233601
-0.00150827
9.3194e-05
-0.000106221
-0.000596286
-0.000715672
-6.66734e-05
0.000132146
-0.000538253
-0.00125362
-0.0010613
-0.000817375
-0.00108041
-0.00119504
-0.00123116
-0.00167637
-0.00227581
-0.00280016
-0.00310941
-0.00310313
-0.00276272
-0.00190103
-0.000273536
-0.000136024
-0.000592528
-0.000793682
-0.000224295
2.86351e-05
-0.000591218
-0.00135325
-0.00126696
-0.001025
-0.00125908
-0.00145968
-0.00157019
-0.00202849
-0.0026399
-0.00317607
-0.0035212
-0.00354067
-0.00319025
-0.00229681
-0.000638247
-0.000169905
-0.000594764
-0.0008658
-0.000386872
-9.19422e-05
-0.000650504
-0.00144911
-0.00147505
-0.0012514
-0.00145033
-0.00171999
-0.00190856
-0.00238385
-0.00300878
-0.00355375
-0.00392677
-0.00397171
-0.00361642
-0.00269569
-0.00100313
-0.00020802
-0.000600546
-0.000931572
-0.000552063
-0.000229715
-0.00071938
-0.00154188
-0.00168226
-0.0014947
-0.00165782
-0.00197727
-0.00224469
-0.0027412
-0.00338062
-0.00393442
-0.00432736
-0.00439657
-0.00403995
-0.00309607
-0.00136911
-0.000250332
-0.000610836
-0.000991086
-0.000717322
-0.000384144
-0.00080103
-0.00163306
-0.00188568
-0.00175212
-0.0018842
-0.00223368
-0.00257721
-0.00309975
-0.00375381
-0.00431739
-0.00472356
-0.00481547
-0.00446038
-0.00349771
-0.00173694
-0.000296646
-0.000626554
-0.00104519
-0.000880353
-0.000553768
-0.000898268
-0.00172481
-0.00208336
-0.00201974
-0.00213067
-0.00249299
-0.00290537
-0.00345907
-0.00412692
-0.00470103
-0.00511531
-0.00522779
-0.0048782
-0.00390033
-0.00210626
-0.000346662
-0.000648362
-0.00109563
-0.00103941
-0.000736215
-0.001013
-0.00182017
-0.00227456
-0.00229293
-0.00239697
-0.00275974
-0.00322848
-0.00381733
-0.00449912
-0.00508482
-0.00550339
-0.00563302
-0.00529273
-0.00430284
-0.00247674
-0.000399922
-0.000676769
-0.00114469
-0.00119339
-0.000928622
-0.00114633
-0.0019225
-0.0024592
-0.00256742
-0.00268131
-0.00303778
-0.0035468
-0.00417233
-0.00487037
-0.00546916
-0.00588967
-0.00603101
-0.0057014
-0.00470342
-0.00284804
-0.000456051
-0.00071214
-0.00119437
-0.00134158
-0.00112816
-0.00129838
-0.00203486
-0.00263838
-0.00283989
-0.00298023
-0.00332966
-0.00386295
-0.00452285
-0.00523987
-0.00585357
-0.00627547
-0.00642166
-0.0061015
-0.00509993
-0.00321973
-0.000514982
-0.000754535
-0.00124598
-0.00148384
-0.00133219
-0.00146849
-0.00216003
-0.00281417
-0.00310776
-0.00328916
-0.00363666
-0.00418109
-0.00486836
-0.00560547
-0.00623648
-0.00666148
-0.00680665
-0.00649247
-0.00549017
-0.00359076
-0.000576813
-0.000803831
-0.00130101
-0.00162039
-0.00153838
-0.00165551
-0.0023004
-0.002989
-0.00336934
-0.00360357
-0.00395831
-0.00450514
-0.00520947
-0.00596555
-0.00661615
-0.00704822
-0.00718946
-0.00687578
-0.00587198
-0.00395828
-0.000641613
-0.00085985
-0.0013602
-0.00175174
-0.00174483
-0.00185762
-0.00245748
-0.00316584
-0.00362443
-0.00391942
-0.00429201
-0.00483773
-0.00554821
-0.00631977
-0.00699112
-0.00743507
-0.00757245
-0.00725343
-0.00624504
-0.00432046
-0.000709379
-0.000922375
-0.00142402
-0.00187873
-0.00195003
-0.00207269
-0.00263195
-0.00334749
-0.00387377
-0.00423356
-0.0046339
-0.0051802
-0.00588812
-0.00666866
-0.00735999
-0.00781983
-0.00795582
-0.00762818
-0.00661193
-0.00467789
-0.000780016
-0.000991174
-0.0014933
-0.00200219
-0.00215263
-0.00229838
-0.00282347
-0.0035366
-0.00411885
-0.00454406
-0.00498025
-0.00553169
-0.00623243
-0.00701384
-0.00772198
-0.00820036
-0.0083394
-0.00800291
-0.00697588
-0.00503157
-0.000853379
-0.00106595
-0.00156878
-0.00212314
-0.00235177
-0.00253202
-0.00303077
-0.00373557
-0.00436173
-0.00484965
-0.00532814
-0.00589002
-0.00658279
-0.00735788
-0.00807724
-0.00857475
-0.00872225
-0.00837955
-0.00734039
-0.00538367
-0.000929325
-0.00114634
-0.00165102
-0.00224276
-0.00254686
-0.00277102
-0.00325222
-0.0039458
-0.00460451
-0.00514955
-0.00567547
-0.00625324
-0.00693961
-0.00770315
-0.00842694
-0.0089419
-0.00910243
-0.00875798
-0.00770757
-0.00573681
-0.00100768
-0.00123189
-0.00174044
-0.00236219
-0.00273762
-0.00301315
-0.00348551
-0.00416755
-0.00485019
-0.00544411
-0.00601978
-0.00661868
-0.00730232
-0.0080523
-0.00877427
-0.00930322
-0.00947828
-0.00913628
-0.0080767
-0.0060911
-0.00108836
-0.00132201
-0.00183691
-0.00248289
-0.0029243
-0.00325643
-0.00372844
-0.00440015
-0.00510155
-0.00573422
-0.00635804
-0.00698363
-0.00766961
-0.00840761
-0.00912218
-0.00965993
-0.00984944
-0.00951385
-0.00844782
-0.00644681
-0.00117137
-0.00141609
-0.00193995
-0.00260604
-0.0031074
-0.00349897
-0.00397903
-0.00464225
-0.0053599
-0.00602232
-0.00668901
-0.00734645
-0.0080395
-0.00876816
-0.00947163
-0.0100128
-0.0102154
-0.00988984
-0.00882149
-0.00680657
-0.00125671
-0.00151358
-0.00204882
-0.00273217
-0.00328786
-0.00373954
-0.00423512
-0.00489168
-0.00562497
-0.00631192
-0.00701329
-0.00770512
-0.00840989
-0.00913315
-0.00982432
-0.010364
-0.0105755
-0.0102606
-0.00919464
-0.00717063
-0.00134429
-0.00161398
-0.00216264
-0.00286152
-0.00346649
-0.00397707
-0.00449503
-0.00514742
-0.00589528
-0.00660468
-0.00733136
-0.00805697
-0.00877887
-0.00950333
-0.0101838
-0.0107176
-0.0109324
-0.0106252
-0.00956323
-0.00753443
-0.00143396
-0.00171672
-0.00228048
-0.00299418
-0.00364405
-0.00421052
-0.00475675
-0.00540887
-0.00616951
-0.00690159
-0.00764467
-0.00839985
-0.00914296
-0.00987525
-0.0105513
-0.0110785
-0.011293
-0.0109896
-0.00993
-0.00789706
-0.00152544
-0.00182128
-0.00240142
-0.00312987
-0.00382126
-0.00443958
-0.00501819
-0.00567469
-0.00644486
-0.00720236
-0.00795803
-0.00873479
-0.0094994
-0.0102424
-0.0109199
-0.0114444
-0.0116597
-0.01136
-0.0103034
-0.0082674
-0.00161834
-0.00192705
-0.0025243
-0.00326787
-0.00399855
-0.00466432
-0.00527817
-0.00594502
-0.00671961
-0.00750117
-0.00827233
-0.00906578
-0.00985036
-0.0106057
-0.011287
-0.0118101
-0.0120267
-0.0117322
-0.0106817
-0.00864769
-0.00171257
-0.00203353
-0.00264792
-0.00340693
-0.00417497
-0.00488454
-0.00553472
-0.00621926
-0.00699661
-0.00779541
-0.00858217
-0.00939142
-0.0101962
-0.010967
-0.0116567
-0.0121802
-0.012398
-0.0121077
-0.0110633
-0.00903258
-0.00180754
-0.0021391
-0.00277167
-0.00354691
-0.00435048
-0.00510078
-0.00578621
-0.00649274
-0.00727494
-0.00808751
-0.00888754
-0.0097079
-0.0105315
-0.0113202
-0.0120232
-0.0125524
-0.0127743
-0.0124901
-0.0114536
-0.00943047
-0.00190377
-0.00224316
-0.00289258
-0.00368534
-0.00452399
-0.00531599
-0.0060355
-0.00676306
-0.00754943
-0.00837362
-0.00919144
-0.0100208
-0.0108581
-0.0116648
-0.0123832
-0.0129222
-0.0131512
-0.0128745
-0.0118477
-0.00983705
-0.00200013
-0.00234336
-0.00300926
-0.00382292
-0.00469556
-0.00552883
-0.00628217
-0.00702918
-0.00782089
-0.00864951
-0.0094854
-0.0103299
-0.0111826
-0.0120097
-0.0127451
-0.0132967
-0.013537
-0.0132707
-0.0122527
-0.0102482
-0.00209729
-0.00243742
-0.003114
-0.00395658
-0.0048725
-0.00574137
-0.00652311
-0.00728322
-0.00808206
-0.00891584
-0.0097633
-0.0106224
-0.0114948
-0.0123471
-0.0131076
-0.0136836
-0.0139424
-0.0136883
-0.0126779
-0.0106772
-0.00219725
-0.00252872
-0.00321014
-0.0040804
-0.00505191
-0.00595515
-0.00675271
-0.0075213
-0.0083205
-0.00915948
-0.0100117
-0.0108868
-0.0117857
-0.0126679
-0.0134657
-0.0140816
-0.0143782
-0.0141591
-0.0131845
-0.0112202
-0.00226424
-0.00261351
-0.00331856
-0.00423003
-0.00524838
-0.00617148
-0.00697875
-0.00774619
-0.00854316
-0.00937274
-0.010202
-0.0110584
-0.011944
-0.0128192
-0.013632
-0.0142907
-0.0146577
-0.0145388
-0.0136839
-0.011856
-0.00237188
-0.00266297
-0.00337598
-0.00436408
-0.00543213
-0.00634657
-0.00721503
-0.00801918
-0.00888289
-0.00974037
-0.0105957
-0.0114412
-0.0123097
-0.0131361
-0.0138564
-0.0143844
-0.0146311
-0.0144284
-0.0135182
-0.0116914
-0.00233232
-0.00281929
-0.00359475
-0.00454791
-0.00554685
-0.00643816
-0.00725059
-0.00804586
-0.00883287
-0.00962098
-0.0104571
-0.0113564
-0.0123528
-0.0134226
-0.0144988
-0.0154691
-0.0161698
-0.0164135
-0.0156149
-0.0140691
-0.00221917
-0.00298878
-0.00376722
-0.00467944
-0.00567427
-0.00672367
-0.0077678
-0.0088508
-0.00972802
-0.0103648
-0.0109411
-0.0116125
-0.0122022
-0.0125164
-0.0124269
-0.0119785
-0.0113414
-0.0107905
-0.0110191
-0.011851
-0.00230341
-0.00303086
-0.00386416
-0.0047455
-0.00565159
-0.00646534
-0.00719592
-0.00799316
-0.00884354
-0.00976024
-0.0108327
-0.0120376
-0.0133354
-0.0146805
-0.0160026
-0.0171917
-0.0181034
-0.0185287
-0.0182132
-0.0168581
-0.00218938
-0.00313407
-0.00397347
-0.00488281
-0.00579587
-0.00672386
-0.0077377
-0.00886602
-0.0098534
-0.0105617
-0.0112815
-0.012156
-0.0129861
-0.0135669
-0.0137768
-0.0136467
-0.013297
-0.0130028
-0.0131415
-0.0140795
-0.00224321
-0.00318998
-0.00405919
-0.00489317
-0.00561906
-0.00630745
-0.00690747
-0.00769221
-0.00856227
-0.00967005
-0.0111142
-0.0129115
-0.0149327
-0.0169838
-0.0188756
-0.0204473
-0.0215202
-0.0219145
-0.0214137
-0.0198266
0.0393479
0.0117293
0.000434898
-0.00218614
-0.00393964
-0.00623948
-0.00818349
-0.00910258
-0.00973857
-0.0108215
-0.0120759
-0.0132039
-0.0142807
-0.0154224
-0.0168088
-0.0184061
-0.019791
-0.0209149
-0.0220802
-0.0233769
-0.0246978
-0.0260358
-0.0274277
-0.0288394
-0.0302927
-0.0317825
-0.0333252
-0.034941
-0.0365769
-0.0382854
-0.0399963
-0.0418038
-0.0437405
-0.0456855
-0.0477195
-0.0497936
-0.0519668
-0.0542544
-0.0566169
-0.0589719
-0.0615057
-0.0641014
-0.0667306
-0.0695512
-0.0723395
-0.0754117
-0.0784673
-0.0815826
-0.0851052
-0.0885189
0.0382754
0.0117772
0.000481763
-0.00216567
-0.00392897
-0.0062331
-0.00817942
-0.00909962
-0.0097359
-0.010819
-0.0120737
-0.0132019
-0.014279
-0.0154209
-0.0168074
-0.0184049
-0.0197901
-0.0209141
-0.0220795
-0.0233762
-0.0246972
-0.0260353
-0.0274272
-0.028839
-0.0302923
-0.0317821
-0.0333249
-0.0349407
-0.0365767
-0.0382852
-0.0399961
-0.0418036
-0.0437403
-0.0456853
-0.0477194
-0.0497935
-0.0519667
-0.0542543
-0.0566168
-0.0589719
-0.0615056
-0.0641014
-0.0667305
-0.0695512
-0.0723395
-0.0754116
-0.0784673
-0.0815826
-0.0851052
-0.0885189
0.0374161
0.0118825
0.000552984
-0.00214139
-0.00391668
-0.00622608
-0.00817531
-0.00909673
-0.00973341
-0.0108169
-0.0120718
-0.0132002
-0.0142774
-0.0154194
-0.0168062
-0.018404
-0.0197894
-0.0209134
-0.0220788
-0.0233757
-0.0246967
-0.0260348
-0.0274268
-0.0288386
-0.030292
-0.0317818
-0.0333246
-0.0349405
-0.0365764
-0.038285
-0.0399959
-0.0418034
-0.0437402
-0.0456851
-0.0477192
-0.0497934
-0.0519666
-0.0542542
-0.0566167
-0.0589718
-0.0615056
-0.0641013
-0.0667305
-0.0695511
-0.0723395
-0.0754116
-0.0784672
-0.0815826
-0.0851052
-0.088519
0.0366528
0.0120108
0.000650124
-0.0021078
-0.00389918
-0.00621592
-0.00816943
-0.00909297
-0.00973067
-0.0108148
-0.01207
-0.0131985
-0.0142759
-0.0154179
-0.0168048
-0.018403
-0.0197886
-0.0209126
-0.0220781
-0.0233751
-0.0246962
-0.0260344
-0.0274264
-0.0288382
-0.0302917
-0.0317815
-0.0333243
-0.0349402
-0.0365762
-0.0382847
-0.0399957
-0.0418032
-0.04374
-0.045685
-0.0477191
-0.0497933
-0.0519665
-0.0542541
-0.0566166
-0.0589717
-0.0615055
-0.0641013
-0.0667304
-0.0695511
-0.0723395
-0.0754116
-0.0784672
-0.0815826
-0.0851053
-0.0885191
0.0358897
0.0121407
0.000765164
-0.00206518
-0.00387503
-0.00620072
-0.00816019
-0.00908736
-0.00972725
-0.0108125
-0.0120681
-0.0131968
-0.0142743
-0.0154163
-0.0168032
-0.0184018
-0.0197877
-0.0209117
-0.0220773
-0.0233744
-0.0246957
-0.0260339
-0.027426
-0.0288379
-0.0302913
-0.0317812
-0.033324
-0.03494
-0.0365759
-0.0382845
-0.0399955
-0.041803
-0.0437398
-0.0456848
-0.047719
-0.0497931
-0.0519664
-0.054254
-0.0566165
-0.0589717
-0.0615054
-0.0641012
-0.0667304
-0.0695511
-0.0723394
-0.0754116
-0.0784672
-0.0815825
-0.0851053
-0.0885192
0.035111
0.012267
0.000888912
-0.00201799
-0.00384591
-0.00618052
-0.00814706
-0.00907943
-0.00972287
-0.0108098
-0.012066
-0.0131951
-0.0142728
-0.0154145
-0.0168014
-0.0184004
-0.0197866
-0.0209107
-0.0220764
-0.0233737
-0.024695
-0.0260333
-0.0274255
-0.0288374
-0.0302909
-0.0317808
-0.0333237
-0.0349397
-0.0365757
-0.0382843
-0.0399953
-0.0418028
-0.0437396
-0.0456846
-0.0477188
-0.049793
-0.0519662
-0.0542539
-0.0566164
-0.0589716
-0.0615054
-0.0641012
-0.0667303
-0.069551
-0.0723394
-0.0754115
-0.0784672
-0.0815825
-0.0851054
-0.0885194
0.0343199
0.0123881
0.00101649
-0.00196966
-0.00381445
-0.00615676
-0.00813063
-0.00906937
-0.00971749
-0.0108066
-0.0120634
-0.0131932
-0.0142714
-0.0154128
-0.0167993
-0.0183986
-0.0197851
-0.0209094
-0.0220752
-0.0233727
-0.0246943
-0.0260327
-0.0274249
-0.0288369
-0.0302905
-0.0317804
-0.0333233
-0.0349393
-0.0365754
-0.038284
-0.0399951
-0.0418025
-0.0437394
-0.0456844
-0.0477186
-0.0497928
-0.0519661
-0.0542538
-0.0566163
-0.0589715
-0.0615053
-0.0641011
-0.0667303
-0.069551
-0.0723393
-0.0754115
-0.0784672
-0.0815825
-0.0851054
-0.0885196
0.03352
0.0125024
0.00114666
-0.0019213
-0.00378231
-0.00613103
-0.00811204
-0.00905778
-0.00971133
-0.0108027
-0.01206
-0.0131908
-0.0142701
-0.0154113
-0.0167972
-0.0183965
-0.0197833
-0.0209076
-0.0220738
-0.0233716
-0.0246933
-0.0260319
-0.0274242
-0.0288363
-0.0302899
-0.0317799
-0.0333229
-0.0349389
-0.036575
-0.0382837
-0.0399948
-0.0418023
-0.0437391
-0.0456842
-0.0477184
-0.0497926
-0.0519659
-0.0542536
-0.0566162
-0.0589713
-0.0615052
-0.064101
-0.0667302
-0.0695509
-0.0723393
-0.0754114
-0.0784671
-0.0815824
-0.0851055
-0.0885199
0.032713
0.0126086
0.00127979
-0.00187273
-0.00375005
-0.00610434
-0.00809226
-0.00904529
-0.00970473
-0.0107983
-0.0120557
-0.0131878
-0.0142689
-0.0154102
-0.0167952
-0.0183942
-0.0197809
-0.0209054
-0.0220721
-0.0233703
-0.0246922
-0.0260309
-0.0274234
-0.0288356
-0.0302893
-0.0317793
-0.0333223
-0.0349385
-0.0365746
-0.0382834
-0.0399945
-0.041802
-0.0437388
-0.0456839
-0.0477181
-0.0497924
-0.0519657
-0.0542534
-0.056616
-0.0589712
-0.061505
-0.0641009
-0.0667301
-0.0695508
-0.0723392
-0.0754114
-0.0784671
-0.0815824
-0.0851056
-0.0885203
0.0318998
0.0127059
0.00141658
-0.00182357
-0.00371783
-0.00607714
-0.00807183
-0.0090323
-0.00969793
-0.0107937
-0.0120509
-0.0131841
-0.0142675
-0.0154094
-0.0167936
-0.018392
-0.0197783
-0.0209028
-0.0220699
-0.0233686
-0.0246909
-0.0260298
-0.0274225
-0.0288348
-0.0302885
-0.0317786
-0.0333217
-0.0349379
-0.0365741
-0.038283
-0.0399942
-0.0418017
-0.0437385
-0.0456835
-0.0477178
-0.0497921
-0.0519654
-0.0542531
-0.0566157
-0.058971
-0.0615049
-0.0641007
-0.06673
-0.0695507
-0.0723391
-0.0754113
-0.078467
-0.0815823
-0.0851056
-0.0885206
0.0310815
0.0127936
0.0015573
-0.00177363
-0.00368579
-0.00604964
-0.00805098
-0.00901894
-0.00969102
-0.0107892
-0.0120458
-0.0131799
-0.014266
-0.0154091
-0.0167925
-0.0183902
-0.0197756
-0.0208997
-0.0220673
-0.0233667
-0.0246894
-0.0260286
-0.0274214
-0.0288338
-0.0302876
-0.0317778
-0.0333209
-0.0349372
-0.0365735
-0.0382826
-0.0399939
-0.0418013
-0.0437381
-0.0456831
-0.0477175
-0.0497918
-0.0519651
-0.0542528
-0.0566154
-0.0589707
-0.0615047
-0.0641005
-0.0667298
-0.0695506
-0.072339
-0.0754112
-0.078467
-0.0815822
-0.0851056
-0.0885211
0.0302593
0.0128709
0.00170181
-0.00172287
-0.00365411
-0.00602195
-0.00802981
-0.0090053
-0.00968403
-0.0107848
-0.0120408
-0.0131755
-0.0142646
-0.0154092
-0.0167921
-0.0183888
-0.019773
-0.0208964
-0.0220643
-0.0233644