/*--------------------------------*- C++ -*----------------------------------*\
| =========                 |                                                 |
| \\      /  F ield         | OpenFOAM: The Open Source CFD Toolbox           |
|  \\    /   O peration     | Version:  v2012                                 |
|   \\  /    A nd           | Website:  www.openfoam.com                      |
|    \\/     M anipulation  |                                                 |
\*---------------------------------------------------------------------------*/
FoamFile
{
    version     2.0;
    format      ascii;
    class       surfaceScalarField;
    location    "1";
    object      phi;
}
// * * * * * * * * * * * * * * * * * * * * * * * * * * * * * * * * * * * * * //

dimensions      [0 3 -1 0 0 0 0];
oriented        oriented;


internalField   nonuniform List<scalar> 
13830
(
9.41725e-07
2.82737e-07
9.33439e-07
-3.82363e-07
9.33652e-07
-4.51539e-07
8.96364e-07
-7.7424e-07
1.0009e-06
1.31832e-06
8.28353e-07
3.61681e-07
9.08381e-07
-1.45654e-08
9.076e-07
9.87966e-07
8.56888e-07
-5.70898e-08
9.44401e-07
5.88569e-07
9.30282e-07
-4.16682e-07
9.48622e-07
4.57329e-08
9.37984e-07
-3.08482e-07
9.38319e-07
-1.55115e-07
9.4059e-07
-2.59815e-07
9.30466e-07
-2.85751e-07
9.41667e-07
-1.99507e-07
9.22664e-07
-3.42585e-07
9.33709e-07
-1.7376e-07
-2.92957e-07
9.03822e-07
9.768e-07
2.78468e-07
9.6848e-07
-3.74043e-07
9.68937e-07
-4.51996e-07
9.30464e-07
-7.35768e-07
1.03734e-06
1.21145e-06
8.65906e-07
5.33111e-07
9.46549e-07
-9.52092e-08
9.69524e-07
9.64992e-07
9.06249e-07
6.18456e-09
9.95077e-07
4.99741e-07
9.78367e-07
-3.99971e-07
9.98185e-07
2.59145e-08
9.78814e-07
-2.89111e-07
9.82753e-07
-1.59054e-07
9.71368e-07
-2.4843e-07
9.71766e-07
-2.8615e-07
9.66452e-07
-1.94193e-07
9.61284e-07
-3.37417e-07
9.56244e-07
-1.6872e-07
-2.8199e-07
9.45277e-07
1.01287e-06
2.75048e-07
1.00455e-06
-3.65722e-07
1.0054e-06
-4.52847e-07
9.68532e-07
-6.98896e-07
1.06918e-06
1.11079e-06
9.20036e-07
6.82259e-07
9.83675e-07
-1.58847e-07
1.0395e-06
9.09161e-07
9.61269e-07
8.44208e-08
1.03097e-06
4.30036e-07
1.01599e-06
-3.8499e-07
1.03242e-06
9.4834e-09
1.01125e-06
-2.67943e-07
1.01192e-06
-1.59725e-07
9.97462e-07
-2.33967e-07
9.99423e-07
-2.8811e-07
9.90943e-07
-1.85713e-07
9.90612e-07
-3.37086e-07
9.83255e-07
-1.61363e-07
-2.76989e-07
9.78253e-07
1.05018e-06
2.72642e-07
1.0419e-06
-3.57439e-07
1.04305e-06
-4.54002e-07
1.0101e-06
-6.6594e-07
1.09885e-06
1.02204e-06
9.85025e-07
7.96085e-07
1.02303e-06
-1.96855e-07
1.09622e-06
8.35971e-07
1.01688e-06
1.63767e-07
1.05812e-06
3.88796e-07
1.04804e-06
-3.74911e-07
1.05764e-06
-1.2047e-10
1.04034e-06
-2.50639e-07
1.03739e-06
-1.5678e-07
1.02468e-06
-2.21251e-07
1.02625e-06
-2.89683e-07
1.01834e-06
-1.77801e-07
1.0192e-06
-3.37948e-07
1.01239e-06
-1.54556e-07
-2.73194e-07
1.0086e-06
1.08894e-06
2.71256e-07
1.0806e-06
-3.49098e-07
1.08202e-06
-4.55418e-07
1.05477e-06
-6.38692e-07
1.1271e-06
9.49706e-07
1.05297e-06
8.70216e-07
1.06448e-06
-2.08362e-07
1.13635e-06
7.64106e-07
1.07105e-06
2.29067e-07
1.08736e-06
3.72477e-07
1.08062e-06
-3.68164e-07
1.08444e-06
-3.94514e-09
1.07122e-06
-2.37417e-07
1.06758e-06
-1.53136e-07
1.05702e-06
-2.10692e-07
1.05826e-06
-2.9092e-07
1.05147e-06
-1.71018e-07
1.05181e-06
-3.38286e-07
1.04608e-06
-1.48826e-07
-2.68809e-07
1.0417e-06
1.12935e-06
2.70745e-07
1.12071e-06
-3.40458e-07
1.12249e-06
-4.5719e-07
1.10154e-06
-6.17751e-07
1.1556e-06
8.95651e-07
1.11718e-06
9.08639e-07
1.10821e-06
-1.99397e-07
1.16687e-06
7.05446e-07
1.1233e-06
2.72633e-07
1.12415e-06
3.71628e-07
1.11717e-06
-3.61179e-07
1.11778e-06
-4.55253e-09
1.10681e-06
-2.26454e-07
1.10455e-06
-1.50869e-07
1.09531e-06
-2.01452e-07
1.09639e-06
-2.92003e-07
1.09006e-06
-1.64692e-07
1.08917e-06
-3.37394e-07
1.08405e-06
-1.43709e-07
-2.63328e-07
1.07857e-06
1.17157e-06
2.70871e-07
1.16234e-06
-3.31223e-07
1.16465e-06
-4.595e-07
1.14927e-06
-6.02374e-07
1.18629e-06
8.58631e-07
1.17508e-06
9.19848e-07
1.15448e-06
-1.78792e-07
1.19668e-06
6.6324e-07
1.17397e-06
2.95344e-07
1.16882e-06
3.76775e-07
1.15902e-06
-3.51377e-07
1.15828e-06
-3.8119e-09
1.14785e-06
-2.16021e-07
1.14744e-06
-1.50465e-07
1.13856e-06
-1.92564e-07
1.13941e-06
-2.92858e-07
1.1329e-06
-1.58176e-07
1.13044e-06
-3.34933e-07
1.12551e-06
-1.38783e-07
-2.56641e-07
1.11882e-06
1.21568e-06
2.71376e-07
1.20563e-06
-3.21179e-07
1.20862e-06
-4.62487e-07
1.19719e-06
-5.90947e-07
1.22059e-06
8.3523e-07
1.22751e-06
9.12934e-07
1.20301e-06
-1.543e-07
1.23166e-06
6.34592e-07
1.22414e-06
3.02864e-07
1.21929e-06
3.81624e-07
1.20601e-06
-3.38093e-07
1.20471e-06
-2.51242e-09
1.19365e-06
-2.04965e-07
1.19466e-06
-1.51475e-07
1.18547e-06
-1.83373e-07
1.18578e-06
-2.93168e-07
1.17891e-06
-1.51302e-07
1.17464e-06
-3.30659e-07
1.16978e-06
-1.33933e-07
-2.48709e-07
1.16185e-06
1.2617e-06
2.72033e-07
1.2508e-06
-3.1028e-07
1.25443e-06
-4.66116e-07
1.24521e-06
-5.81729e-07
1.25896e-06
8.21481e-07
1.27653e-06
8.95358e-07
1.25306e-06
-1.30826e-07
1.27359e-06
6.14064e-07
1.27505e-06
3.01402e-07
1.27318e-06
3.835e-07
1.25702e-06
-3.21939e-07
1.25543e-06
-9.22782e-10
1.24315e-06
-1.92688e-07
1.24492e-06
-1.53239e-07
1.23522e-06
-1.73677e-07
1.23459e-06
-2.92531e-07
1.22755e-06
-1.44261e-07
1.2213e-06
-3.2441e-07
1.21656e-06
-1.29194e-07
-2.39544e-07
1.20739e-06
1.30965e-06
2.72659e-07
1.29803e-06
-2.98664e-07
1.30204e-06
-4.70121e-07
1.29382e-06
-5.73513e-07
1.30114e-06
8.14167e-07
1.32413e-06
8.72368e-07
1.30392e-06
-1.10617e-07
1.32137e-06
5.96617e-07
1.32729e-06
2.95479e-07
1.32872e-06
3.8207e-07
1.31065e-06
-3.0387e-07
1.30902e-06
7.08811e-10
1.29544e-06
-1.79111e-07
1.29751e-06
-1.55305e-07
1.28747e-06
-1.63636e-07
1.28556e-06
-2.90622e-07
1.27864e-06
-1.37342e-07
1.2704e-06
-3.16172e-07
1.26578e-06
-1.24577e-07
-2.29235e-07
1.25547e-06
1.35957e-06
2.73108e-07
1.34753e-06
-2.86621e-07
1.35142e-06
-4.74007e-07
1.34382e-06
-5.65916e-07
1.34672e-06
8.11264e-07
1.37173e-06
8.47363e-07
1.35537e-06
-9.42637e-08
1.3729e-06
5.79086e-07
1.38067e-06
2.87718e-07
1.38486e-06
3.77874e-07
1.36568e-06
-2.84687e-07
1.36438e-06
2.0067e-09
1.34986e-06
-1.64591e-07
1.3521e-06
-1.57541e-07
1.34206e-06
-1.53597e-07
1.33872e-06
-2.87285e-07
1.33218e-06
-1.30798e-07
1.32209e-06
-3.06083e-07
1.31755e-06
-1.20035e-07
-2.17931e-07
1.30624e-06
1.41151e-06
2.73247e-07
1.39945e-06
-2.74559e-07
1.40251e-06
-4.7706e-07
1.39592e-06
-5.59331e-07
1.3955e-06
8.11689e-07
1.42038e-06
8.22474e-07
1.40768e-06
-8.15576e-08
1.42646e-06
5.60308e-07
1.43465e-06
2.79521e-07
1.44104e-06
3.7149e-07
1.4213e-06
-2.64949e-07
1.42079e-06
2.51666e-09
1.40594e-06
-1.49741e-07
1.40845e-06
-1.60057e-07
1.39881e-06
-1.43951e-07
1.39409e-06
-2.82563e-07
1.38814e-06
-1.24857e-07
1.37646e-06
-2.94398e-07
1.37195e-06
-1.15527e-07
-2.05822e-07
1.35984e-06
1.46553e-06
2.72965e-07
1.45395e-06
-2.62977e-07
1.45527e-06
-4.78389e-07
1.45056e-06
-5.54614e-07
1.44747e-06
8.14781e-07
1.47098e-06
7.98962e-07
1.46135e-06
-7.19321e-08
1.48108e-06
5.40584e-07
1.48889e-06
2.71711e-07
1.49705e-06
3.63321e-07
1.47714e-06
-2.45034e-07
1.47785e-06
1.81052e-09
1.46334e-06
-1.35232e-07
1.46631e-06
-1.63025e-07
1.45741e-06
-1.35058e-07
1.4515e-06
-2.76648e-07
1.4464e-06
-1.19758e-07
1.43345e-06
-2.81455e-07
1.42901e-06
-1.11083e-07
-1.93134e-07
1.41632e-06
1.52166e-06
2.7218e-07
1.51111e-06
-2.52432e-07
1.50973e-06
-4.77003e-07
1.50779e-06
-5.52672e-07
1.50268e-06
8.1989e-07
1.52429e-06
7.77353e-07
1.51697e-06
-6.46188e-08
1.53654e-06
5.21016e-07
1.54344e-06
2.64812e-07
1.55314e-06
3.53619e-07
1.53328e-06
-2.25175e-07
1.5355e-06
-4.07721e-10
1.52191e-06
-1.21644e-07
1.52538e-06
-1.66489e-07
1.51753e-06
-1.27214e-07
1.51068e-06
-2.69796e-07
1.50666e-06
-1.15735e-07
1.49285e-06
-2.67648e-07
1.48857e-06
-1.06796e-07
-1.80143e-07
1.47558e-06
1.57993e-06
2.70858e-07
1.57096e-06
-2.43461e-07
1.56597e-06
-4.72006e-07
1.56735e-06
-5.54053e-07
1.56106e-06
8.26173e-07
1.58095e-06
7.57468e-07
1.57503e-06
-5.86952e-08
1.59313e-06
5.02915e-07
1.59886e-06
2.5908e-07
1.60992e-06
3.42557e-07
1.59022e-06
-2.05471e-07
1.59403e-06
-4.22205e-09
1.58176e-06
-1.09373e-07
1.58551e-06
-1.70235e-07
1.57892e-06
-1.20629e-07
1.57137e-06
-2.6225e-07
1.56856e-06
-1.12924e-07
1.55432e-06
-2.53401e-07
1.55029e-06
-1.02774e-07
-1.67177e-07
1.53733e-06
1.64039e-06
2.69014e-07
1.63338e-06
-2.36455e-07
1.62423e-06
-4.62852e-07
1.62882e-06
-5.58648e-07
1.62243e-06
8.32566e-07
1.64133e-06
7.38562e-07
1.63574e-06
-5.3102e-08
1.65136e-06
4.87292e-07
1.65594e-06
2.54507e-07
1.6682e-06
3.30298e-07
1.64865e-06
-1.85927e-07
1.6539e-06
-9.46777e-09
1.64315e-06
-9.86305e-08
1.64669e-06
-1.73774e-07
1.64146e-06
-1.15392e-07
1.63341e-06
-2.54199e-07
1.63175e-06
-1.11271e-07
1.61748e-06
-2.39125e-07
1.61378e-06
-9.90748e-08
-1.54576e-07
1.60117e-06
1.70306e-06
2.66703e-07
1.69815e-06
-2.31543e-07
1.68486e-06
-4.49564e-07
1.69181e-06
-5.65592e-07
1.68652e-06
8.37853e-07
1.70545e-06
7.19632e-07
1.69902e-06
-4.6677e-08
1.71185e-06
4.74462e-07
1.71545e-06
2.50908e-07
1.72869e-06
3.17056e-07
1.70932e-06
-1.66553e-07
1.7156e-06
-1.57448e-08
1.70645e-06
-8.94851e-08
1.70914e-06
-1.76462e-07
1.70521e-06
-1.11462e-07
1.69679e-06
-2.45775e-07
1.69602e-06
-1.10499e-07
1.68206e-06
-2.25165e-07
1.67865e-06
-9.56702e-08
-1.4263e-07
1.66671e-06
1.76802e-06
2.63998e-07
1.76504e-06
-2.28559e-07
1.74825e-06
-4.32773e-07
1.75609e-06
-5.73433e-07
1.75313e-06
8.40806e-07
1.77297e-06
6.99793e-07
1.76455e-06
-3.82582e-08
1.77509e-06
4.63922e-07
1.77792e-06
2.48081e-07
1.79183e-06
3.0315e-07
1.77276e-06
-1.47488e-07
1.77949e-06
-2.24755e-08
1.77194e-06
-8.19288e-08
1.7732e-06
-1.77726e-07
1.7704e-06
-1.08663e-07
1.76171e-06
-2.37081e-07
1.76138e-06
-1.10173e-07
1.74798e-06
-2.11763e-07
1.74477e-06
-9.24623e-08
-1.31521e-07
1.73366e-06
1.83536e-06
2.60976e-07
1.83391e-06
-2.27111e-07
1.81465e-06
-4.13518e-07
1.82173e-06
-5.80504e-07
1.82214e-06
8.40394e-07
1.84339e-06
6.78545e-07
1.83201e-06
-2.68842e-08
1.84137e-06
4.54567e-07
1.84353e-06
2.45921e-07
1.85766e-06
2.89014e-07
1.83924e-06
-1.29068e-07
1.84576e-06
-2.89908e-08
1.83974e-06
-7.59103e-08
1.83929e-06
-1.77272e-07
1.83734e-06
-1.06714e-07
1.82846e-06
-2.28203e-07
1.82816e-06
-1.09876e-07
1.8154e-06
-1.99001e-07
1.81228e-06
-8.9339e-08
-1.21297e-07
1.80205e-06
1.90517e-06
2.5771e-07
1.90479e-06
-2.26733e-07
1.88418e-06
-3.92909e-07
1.88905e-06
-5.85375e-07
1.89344e-06
8.36006e-07
1.91618e-06
6.55808e-07
1.90133e-06
-1.20352e-08
1.91072e-06
4.45171e-07
1.91224e-06
2.44404e-07
1.9261e-06
2.75154e-07
1.90882e-06
-1.11792e-07
1.91447e-06
-3.46346e-08
1.90991e-06
-7.13492e-08
1.90779e-06
-1.75159e-07
1.90637e-06
-1.05296e-07
1.89737e-06
-2.19204e-07
1.89683e-06
-1.09333e-07
1.88467e-06
-1.86837e-07
1.88154e-06
-8.62111e-08
-1.11898e-07
1.87214e-06
1.97754e-06
2.54274e-07
1.97784e-06
-2.27037e-07
1.95676e-06
-3.7183e-07
1.95857e-06
-5.87179e-07
1.96698e-06
8.27592e-07
1.99101e-06
6.31778e-07
1.97277e-06
6.20696e-09
1.98306e-06
4.34881e-07
1.98399e-06
2.43476e-07
1.99707e-06
2.62072e-07
1.98148e-06
-9.61996e-08
1.98573e-06
-3.88862e-08
1.98248e-06
-6.80965e-08
1.97904e-06
-1.71718e-07
1.97785e-06
-1.04108e-07
1.96875e-06
-2.10109e-07
1.96788e-06
-1.08464e-07
1.9562e-06
-1.75155e-07
1.95301e-06
-8.30241e-08
-1.03216e-07
1.94433e-06
2.05258e-06
2.50741e-07
2.05332e-06
-2.27775e-07
2.03231e-06
-3.50825e-07
2.03082e-06
-5.85686e-07
2.04277e-06
8.15643e-07
2.0678e-06
6.06748e-07
2.04683e-06
2.71761e-08
2.05826e-06
4.23451e-07
2.05879e-06
2.42941e-07
2.07066e-06
2.50208e-07
2.05719e-06
-8.2735e-08
2.05976e-06
-4.145e-08
2.05757e-06
-6.59113e-08
2.05323e-06
-1.67378e-07
2.05205e-06
-1.0292e-07
2.04284e-06
-2.00905e-07
2.04169e-06
-1.07314e-07
2.03039e-06
-1.63852e-07
2.02711e-06
-7.97401e-08
-9.51396e-08
2.01903e-06
2.13039e-06
2.47187e-07
2.13145e-06
-2.28829e-07
2.11078e-06
-3.3016e-07
2.10624e-06
-5.81142e-07
2.12088e-06
8.01007e-07
2.14662e-06
5.81007e-07
2.12399e-06
4.98016e-08
2.13627e-06
4.11174e-07
2.13676e-06
2.42452e-07
2.14704e-06
2.39923e-07
2.13594e-06
-7.16288e-08
2.13677e-06
-4.22871e-08
2.13536e-06
-6.44991e-08
2.13051e-06
-1.62529e-07
2.12918e-06
-1.01589e-07
2.11983e-06
-1.9155e-07
2.11849e-06
-1.05974e-07
2.10749e-06
-1.52858e-07
2.10409e-06
-7.63412e-08
-8.75746e-08
2.09653e-06
2.21109e-06
2.43676e-07
2.21241e-06
-2.30142e-07
2.19222e-06
-3.09969e-07
2.1851e-06
-5.74027e-07
2.20146e-06
7.84652e-07
2.22763e-06
5.54835e-07
2.20457e-06
7.28597e-08
2.21712e-06
3.98621e-07
2.21801e-06
2.41564e-07
2.22644e-06
2.31499e-07
2.21769e-06
-6.28879e-08
2.21699e-06
-4.15787e-08
2.21605e-06
-6.35603e-08
2.21094e-06
-1.57421e-07
2.20941e-06
-1.0006e-07
2.19985e-06
-1.81988e-07
2.19837e-06
-1.04493e-07
2.18767e-06
-1.42161e-07
2.18414e-06
-7.28141e-08
-8.04411e-08
2.17701e-06
2.2948e-06
2.40266e-07
2.29633e-06
-2.31667e-07
2.27672e-06
-2.90357e-07
2.26755e-06
-5.64859e-07
2.28473e-06
7.67465e-07
2.31102e-06
5.28553e-07
2.28868e-06
9.51907e-08
2.3009e-06
3.86406e-07
2.30266e-06
2.39809e-07
2.30902e-06
2.25134e-07
2.30251e-06
-5.63819e-08
2.30057e-06
-3.96295e-08
2.29979e-06
-6.27901e-08
2.29459e-06
-1.52215e-07
2.29284e-06
-9.83123e-08
2.28301e-06
-1.72153e-07
2.28143e-06
-1.02918e-07
2.27103e-06
-1.31755e-07
2.26737e-06
-6.91533e-08
-7.3673e-08
2.2606e-06
2.38165e-06
2.37002e-07
2.38332e-06
-2.33335e-07
2.3644e-06
-2.71436e-07
2.35365e-06
-5.54109e-07
2.37098e-06
7.50133e-07
2.39698e-06
5.02554e-07
2.37634e-06
1.15828e-07
2.38769e-06
3.75057e-07
2.39073e-06
2.36764e-07
2.39499e-06
2.2088e-07
2.39047e-06
-5.18616e-08
2.38763e-06
-3.67939e-08
2.38676e-06
-6.19178e-08
2.38155e-06
-1.47004e-07
2.37961e-06
-9.63746e-08
2.36937e-06
-1.61914e-07
2.36772e-06
-1.01267e-07
2.35768e-06
-1.21712e-07
2.35387e-06
-6.53414e-08
-6.72158e-08
2.34741e-06
2.47176e-06
2.33916e-07
2.47349e-06
-2.35063e-07
2.45537e-06
-2.53314e-07
2.44345e-06
-5.42186e-07
2.46048e-06
7.33105e-07
2.48574e-06
4.77295e-07
2.46752e-06
1.3404e-07
2.47757e-06
3.65005e-07
2.48224e-06
2.32096e-07
2.48455e-06
2.18569e-07
2.48162e-06
-4.89291e-08
2.47831e-06
-3.3479e-08
2.47705e-06
-6.06652e-08
2.47193e-06
-1.41882e-07
2.46989e-06
-9.43299e-08
2.45904e-06
-1.51062e-07
2.45707e-06
-9.92967e-08
2.44766e-06
-1.12308e-07
2.44379e-06
-6.14659e-08
-6.09915e-08
2.43756e-06
2.56529e-06
2.31026e-07
2.56699e-06
-2.36762e-07
2.54974e-06
-2.36061e-07
2.53699e-06
-5.29445e-07
2.5535e-06
7.16595e-07
2.57754e-06
4.53255e-07
2.56226e-06
1.49329e-07
2.57068e-06
3.56583e-07
2.57716e-06
2.25616e-07
2.57783e-06
2.179e-07
2.57603e-06
-4.71323e-08
2.5727e-06
-3.01474e-08
2.57078e-06
-5.87512e-08
2.56587e-06
-1.36971e-07
2.56384e-06
-9.22973e-08
2.55225e-06
-1.39473e-07
2.54933e-06
-9.63778e-08
2.54091e-06
-1.03889e-07
2.53731e-06
-5.78638e-08
-5.48376e-08
2.53116e-06
2.66237e-06
2.28332e-07
2.66396e-06
-2.38349e-07
2.6476e-06
-2.19698e-07
2.63432e-06
-5.16167e-07
2.65031e-06
7.00604e-07
2.67268e-06
4.30886e-07
2.6606e-06
1.6141e-07
2.66719e-06
3.49995e-07
2.67548e-06
2.17328e-07
2.67493e-06
2.18449e-07
2.67376e-06
-4.59633e-08
2.67092e-06
-2.73082e-08
2.66806e-06
-5.58906e-08
2.66359e-06
-1.32503e-07
2.66159e-06
-9.03009e-08
2.64958e-06
-1.27464e-07
2.64533e-06
-9.21288e-08
2.63756e-06
-9.61173e-08
2.63467e-06
-5.4972e-08
-4.84762e-08
2.62831e-06
2.76316e-06
2.25821e-07
2.76458e-06
-2.39764e-07
2.74908e-06
-2.04194e-07
2.73546e-06
-5.02549e-07
2.7511e-06
6.84961e-07
2.77142e-06
4.10569e-07
2.76264e-06
1.70186e-07
2.76733e-06
3.45311e-07
2.77724e-06
2.07409e-07
2.776e-06
2.19696e-07
2.77485e-06
-4.48138e-08
2.77312e-06
-2.5586e-08
2.76893e-06
-5.16996e-08
2.76534e-06
-1.28906e-07
2.76325e-06
-8.82183e-08
2.75241e-06
-1.16618e-07
2.74799e-06
-8.77081e-08
2.73855e-06
-8.66806e-08
2.73606e-06
-5.2479e-08
-4.1592e-08
2.72917e-06
2.86781e-06
2.23468e-07
2.86902e-06
-2.40968e-07
2.85431e-06
-1.89487e-07
2.84044e-06
-4.88681e-07
2.85603e-06
6.69371e-07
2.87401e-06
3.92587e-07
2.8685e-06
1.75703e-07
2.87131e-06
3.42499e-07
2.88254e-06
1.96173e-07
2.88117e-06
2.21068e-07
2.87943e-06
-4.30722e-08
2.87938e-06
-2.55397e-08
2.87363e-06
-4.59461e-08
2.87118e-06
-1.26452e-07
2.86906e-06
-8.60989e-08
2.86186e-06
-1.09417e-07
2.85695e-06
-8.27987e-08
2.85084e-06
-8.05732e-08
2.84161e-06
-4.32518e-08
-3.39139e-08
2.83393e-06
2.97647e-06
2.21246e-07
2.97745e-06
-2.41949e-07
2.96347e-06
-1.75506e-07
2.94932e-06
-4.74531e-07
2.96523e-06
6.53453e-07
2.9807e-06
3.77125e-07
2.97829e-06
1.7811e-07
2.97933e-06
3.41454e-07
2.99155e-06
1.83959e-07
2.99049e-06
2.22128e-07
2.98786e-06
-4.04405e-08
2.98951e-06
-2.71963e-08
2.98272e-06
-3.91498e-08
2.98069e-06
-1.24431e-07
2.97929e-06
-8.46907e-08
2.9738e-06
-1.0393e-07
2.96913e-06
-7.81328e-08
2.96273e-06
-7.41711e-08
2.9506e-06
-3.11243e-08
-2.62002e-08
2.94289e-06
3.08927e-06
2.19133e-07
3.09004e-06
-2.42718e-07
3.07673e-06
-1.62192e-07
3.06216e-06
-4.5997e-07
3.0788e-06
6.36819e-07
3.09168e-06
3.6424e-07
3.09215e-06
1.77642e-07
3.09163e-06
3.41981e-07
3.10444e-06
1.71147e-07
3.10402e-06
2.22541e-07
3.10042e-06
-3.68342e-08
3.10331e-06
-3.00912e-08
3.09667e-06
-3.25079e-08
3.09375e-06
-1.21506e-07
3.09375e-06
-8.46952e-08
3.08785e-06
-9.80321e-08
3.07903e-06
-6.93084e-08
3.06771e-06
-6.2848e-08
3.06281e-06
-2.62261e-08
-1.96029e-08
3.05621e-06
3.20638e-06
2.17111e-07
3.20696e-06
-2.43297e-07
3.19428e-06
-1.49509e-07
3.17912e-06
-4.44809e-07
3.19679e-06
6.19147e-07
3.20717e-06
3.5386e-07
3.2102e-06
1.74616e-07
3.20844e-06
3.4374e-07
3.22134e-06
1.58249e-07
3.22202e-06
2.21863e-07
3.21726e-06
-3.2084e-08
3.22095e-06
-3.37738e-08
3.21525e-06
-2.6815e-08
3.21044e-06
-1.16689e-07
3.21015e-06
-8.44121e-08
3.1951e-06
-8.29784e-08
3.18631e-06
-6.05147e-08
3.17888e-06
-5.54174e-08
3.17914e-06
-2.64844e-08
-1.43511e-08
3.17388e-06
3.32796e-06
2.15159e-07
3.32837e-06
-2.43703e-07
3.31632e-06
-1.37459e-07
3.30034e-06
-4.2883e-07
3.3193e-06
6.00192e-07
3.32732e-06
3.45836e-07
3.33254e-06
1.69398e-07
3.33001e-06
3.46265e-07
3.34239e-06
1.45872e-07
3.34471e-06
2.19546e-07
3.33848e-06
-2.58564e-08
3.34279e-06
-3.80823e-08
3.33786e-06
-2.18849e-08
3.32887e-06
-1.077e-07
3.32419e-06
-7.97324e-08
3.31487e-06
-7.36593e-08
3.30854e-06
-5.41841e-08
3.30273e-06
-4.96064e-08
3.30019e-06
-2.3948e-08
-1.01195e-08
3.29596e-06
3.45418e-06
2.13263e-07
3.45441e-06
-2.43939e-07
3.44304e-06
-1.26082e-07
3.42601e-06
-4.11805e-07
3.44643e-06
5.79774e-07
3.4523e-06
3.39971e-07
3.45932e-06
1.62373e-07
3.45651e-06
3.49075e-07
3.46781e-06
1.34576e-07
3.47223e-06
2.15121e-07
3.46428e-06
-1.79019e-08
3.46873e-06
-4.25386e-08
3.46443e-06
-1.75786e-08
3.45211e-06
-9.53772e-08
3.44827e-06
-7.59014e-08
3.44038e-06
-6.57678e-08
3.43471e-06
-4.8509e-08
3.42885e-06
-4.37524e-08
3.42594e-06
-2.10384e-08
-6.7026e-09
3.42253e-06
3.5852e-06
2.11406e-07
3.58526e-06
-2.43994e-07
3.57462e-06
-1.15445e-07
3.55636e-06
-3.93542e-07
3.57832e-06
5.57812e-07
3.58229e-06
3.36001e-07
3.59067e-06
1.53991e-07
3.58814e-06
3.51609e-07
3.59777e-06
1.24944e-07
3.60461e-06
2.08281e-07
3.59487e-06
-8.16229e-09
3.59868e-06
-4.63521e-08
3.5937e-06
-1.25977e-08
3.58158e-06
-8.32595e-08
3.5776e-06
-7.19159e-08
3.57085e-06
-5.90184e-08
3.56477e-06
-4.24304e-08
3.55677e-06
-3.57552e-08
3.55645e-06
-2.07142e-08
-4.00171e-09
3.55375e-06
3.72122e-06
2.0957e-07
3.72106e-06
-2.43838e-07
3.71126e-06
-1.05637e-07
3.69162e-06
-3.73902e-07
3.71509e-06
5.34334e-07
3.71751e-06
3.33581e-07
3.72671e-06
1.448e-07
3.72511e-06
3.53203e-07
3.73244e-06
1.17613e-07
3.74182e-06
1.98907e-07
3.73036e-06
3.29006e-09
3.7327e-06
-4.86846e-08
3.7274e-06
-7.30381e-09
3.71631e-06
-7.21704e-08
3.71202e-06
-6.7625e-08
3.70612e-06
-5.31203e-08
3.70081e-06
-3.7114e-08
3.69426e-06
-2.92099e-08
3.6921e-06
-1.8548e-08
-1.81505e-09
3.68991e-06
3.86242e-06
2.07735e-07
3.862e-06
-2.43413e-07
3.85314e-06
-9.67782e-08
3.83201e-06
-3.52772e-07
3.85691e-06
5.09437e-07
3.85816e-06
3.32333e-07
3.86761e-06
1.35344e-07
3.86755e-06
3.53263e-07
3.87214e-06
1.13027e-07
3.88372e-06
1.87325e-07
3.87106e-06
1.59472e-08
3.87163e-06
-4.92528e-08
3.86758e-06
-3.25392e-09
3.85656e-06
-6.11514e-08
3.85174e-06
-6.2803e-08
3.8464e-06
-4.77746e-08
3.84178e-06
-3.24986e-08
3.83685e-06
-2.42791e-08
3.83297e-06
-1.46633e-08
-6.27627e-11
3.83121e-06
4.00901e-06
2.05875e-07
4.00825e-06
-2.42646e-07
4.00046e-06
-8.89929e-08
3.97779e-06
-3.30099e-07
4.00392e-06
4.83303e-07
4.00442e-06
3.31839e-07
4.01357e-06
1.26191e-07
4.01557e-06
3.51258e-07
4.01727e-06
1.11329e-07
4.03033e-06
1.74269e-07
4.0173e-06
2.89754e-08
4.01594e-06
-4.78922e-08
4.01332e-06
-6.39103e-10
4.0024e-06
-5.02265e-08
3.99703e-06
-5.74307e-08
3.99203e-06
-4.27811e-08
3.98729e-06
-2.77509e-08
3.98003e-06
-1.70195e-08
3.97916e-06
-1.38007e-08
1.31674e-09
3.97778e-06
4.1612e-06
2.03963e-07
4.16001e-06
-2.4146e-07
4.1534e-06
-8.23877e-08
4.12922e-06
-3.05915e-07
4.15629e-06
4.56235e-07
4.15652e-06
3.31605e-07
4.16473e-06
1.17982e-07
4.16922e-06
3.46766e-07
4.1682e-06
1.12354e-07
4.18191e-06
1.60556e-07
4.16904e-06
4.18488e-08
4.166e-06
-4.48522e-08
4.16442e-06
9.3305e-10
4.15403e-06
-3.98288e-08
4.148e-06
-5.14014e-08
4.14322e-06
-3.80024e-08
4.13936e-06
-2.38909e-08
4.13443e-06
-1.20905e-08
4.13115e-06
-1.05237e-08
2.6351e-09
4.12983e-06
4.31919e-06
2.01963e-07
4.31748e-06
-2.39758e-07
4.31216e-06
-7.70672e-08
4.28655e-06
-2.803e-07
4.31419e-06
4.28596e-07
4.31467e-06
3.31129e-07
4.32132e-06
1.11329e-07
4.32845e-06
3.39633e-07
4.32525e-06
1.1555e-07
4.3387e-06
1.47115e-07
4.32658e-06
5.39672e-08
4.32188e-06
-4.01583e-08
4.32117e-06
1.64294e-09
4.31154e-06
-3.02003e-08
4.30497e-06
-4.48276e-08
4.30024e-06
-3.32699e-08
4.29705e-06
-2.07075e-08
4.29351e-06
-8.54711e-09
4.28897e-06
-5.97816e-09
3.99169e-09
4.28761e-06
4.48321e-06
1.9984e-07
4.48089e-06
-2.37443e-07
4.47694e-06
-7.3113e-08
4.45004e-06
-2.53397e-07
4.47785e-06
4.00782e-07
4.47903e-06
3.29953e-07
4.48376e-06
1.06599e-07
4.49323e-06
3.30158e-07
4.48863e-06
1.20146e-07
4.50105e-06
1.34702e-07
4.49031e-06
6.47041e-08
4.48389e-06
-3.37364e-08
4.48386e-06
1.67342e-09
4.47509e-06
-2.14308e-08
4.46815e-06
-3.7888e-08
4.46333e-06
-2.84498e-08
4.45994e-06
-1.73223e-08
4.45506e-06
-3.65847e-09
4.45273e-06
-3.65532e-09
5.35679e-09
4.45137e-06
4.65349e-06
1.97558e-07
4.65047e-06
-2.34427e-07
4.64792e-06
-7.05543e-08
4.61997e-06
-2.25455e-07
4.64748e-06
3.73272e-07
4.64983e-06
3.27609e-07
4.65244e-06
1.0399e-07
4.66374e-06
3.18852e-07
4.6584e-06
1.25492e-07
4.66948e-06
1.23613e-07
4.66027e-06
7.39148e-08
4.65244e-06
-2.58983e-08
4.65264e-06
1.47024e-09
4.64485e-06
-1.36435e-08
4.6377e-06
-3.07367e-08
4.63273e-06
-2.34778e-08
4.62953e-06
-1.41195e-08
4.62579e-06
7.39279e-11
4.62283e-06
-6.89808e-10
6.84461e-09
4.62134e-06
4.83027e-06
1.95078e-07
4.82647e-06
-2.30627e-07
4.8253e-06
-6.93836e-08
4.79665e-06
-1.96806e-07
4.82333e-06
3.46588e-07
4.82725e-06
3.23691e-07
4.82778e-06
1.03464e-07
4.84022e-06
3.06406e-07
4.83459e-06
1.31122e-07
4.84427e-06
1.13933e-07
4.83666e-06
8.15238e-08
4.82774e-06
-1.69717e-08
4.82777e-06
1.43384e-09
4.8211e-06
-6.97414e-09
4.81385e-06
-2.34873e-08
4.80871e-06
-1.83294e-08
4.80581e-06
-1.12247e-08
4.80365e-06
2.23173e-09
4.79947e-06
3.49092e-09
8.50835e-09
4.79781e-06
5.01379e-06
1.92357e-07
5.00912e-06
-2.25958e-07
5.0093e-06
-6.95588e-08
4.98033e-06
-1.67841e-07
5.00566e-06
3.21261e-07
5.0114e-06
3.17947e-07
5.01015e-06
1.04723e-07
5.0229e-06
2.93656e-07
5.01739e-06
1.36624e-07
5.02561e-06
1.0572e-07
5.0197e-06
8.74261e-08
5.00999e-06
-7.25847e-09
5.00961e-06
1.81518e-09
5.00399e-06
-1.3514e-09
4.99684e-06
-1.63404e-08
4.99152e-06
-1.301e-08
4.98836e-06
-8.06758e-09
4.98497e-06
5.62567e-09
4.98271e-06
5.75295e-09
1.01733e-08
4.98104e-06
5.20431e-06
1.89359e-07
5.19871e-06
-2.20361e-07
5.20014e-06
-7.09832e-08
5.17131e-06
-1.39014e-07
5.19472e-06
2.97854e-07
5.20237e-06
3.10291e-07
5.19977e-06
1.07331e-07
5.21215e-06
2.8127e-07
5.20705e-06
1.41728e-07
5.21381e-06
9.89605e-08
5.20961e-06
9.16265e-08
5.19945e-06
2.90349e-09
5.19845e-06
2.81273e-09
5.19371e-06
3.38881e-09
5.18689e-06
-9.52276e-09
5.18142e-06
-7.53572e-09
5.1784e-06
-5.04716e-09
5.17649e-06
7.53312e-09
5.17306e-06
9.18586e-09
1.2032e-08
5.1712e-06
5.40209e-06
1.86046e-07
5.39551e-06
-2.13783e-07
5.39807e-06
-7.35406e-08
5.36987e-06
-1.10815e-07
5.39081e-06
2.76911e-07
5.40022e-06
3.00887e-07
5.39681e-06
1.10743e-07
5.40847e-06
2.69611e-07
5.40387e-06
1.46328e-07
5.4093e-06
9.35216e-08
5.40663e-06
9.43043e-08
5.39635e-06
1.31791e-08
5.39454e-06
4.6195e-09
5.39059e-06
7.34698e-09
5.38429e-06
-3.22794e-09
5.37871e-06
-1.95557e-09
5.37513e-06
-1.4638e-09
5.37251e-06
1.01519e-08
5.37049e-06
1.12093e-08
1.38822e-08
5.36864e-06
5.6074e-06
1.82381e-07
5.59981e-06
-2.06191e-07
5.60335e-06
-7.70786e-08
5.57637e-06
-8.38354e-08
5.59434e-06
2.58937e-07
5.60513e-06
2.90101e-07
5.60138e-06
1.14487e-07
5.61228e-06
2.58717e-07
5.60815e-06
1.50455e-07
5.61242e-06
8.92564e-08
5.61104e-06
9.56789e-08
5.60095e-06
2.32716e-08
5.59825e-06
7.3136e-09
5.59491e-06
1.06899e-08
5.58913e-06
2.54884e-09
5.58358e-06
3.60368e-09
5.57999e-06
2.12517e-09
5.57799e-06
1.21463e-08
5.57553e-06
1.36748e-08
1.57543e-08
5.57365e-06
5.82053e-06
1.78334e-07
5.8119e-06
-1.97566e-07
5.81626e-06
-8.14387e-08
5.79114e-06
-5.87113e-08
5.80586e-06
2.44212e-07
5.81738e-06
2.78588e-07
5.81373e-06
1.18131e-07
5.82391e-06
2.48536e-07
5.82026e-06
1.5411e-07
5.82341e-06
8.60998e-08
5.82313e-06
9.59663e-08
5.81349e-06
3.29118e-08
5.80989e-06
1.09098e-08
5.80692e-06
1.36626e-08
5.80178e-06
7.68775e-09
5.79636e-06
9.01829e-09
5.79279e-06
5.70188e-09
5.79102e-06
1.3911e-08
5.78841e-06
1.62888e-08
1.76491e-08
5.78651e-06
6.04176e-06
1.73873e-07
6.03209e-06
-1.87893e-07
6.03711e-06
-8.64619e-08
6.01438e-06
-3.59838e-08
6.02585e-06
2.32748e-07
6.03744e-06
2.67001e-07
6.03417e-06
1.21392e-07
6.04367e-06
2.39044e-07
6.04047e-06
1.57311e-07
6.04256e-06
8.40061e-08
6.04321e-06
9.53201e-08
6.0342e-06
4.19175e-08
6.0298e-06
1.53119e-08
6.02693e-06
1.65359e-08
6.02255e-06
1.20586e-08
6.01733e-06
1.42421e-08
6.01322e-06
9.81098e-09
6.0107e-06
1.64284e-08
6.0093e-06
1.76919e-08
1.94275e-08
6.00752e-06
6.2714e-06
1.68973e-07
6.26068e-06
-1.77171e-07
6.2662e-06
-9.19811e-08
6.2462e-06
-1.59808e-08
6.25459e-06
2.2435e-07
6.26588e-06
2.55717e-07
6.26305e-06
1.24218e-07
6.2719e-06
2.30191e-07
6.2691e-06
1.60118e-07
6.27017e-06
8.29335e-08
6.27157e-06
9.39223e-08
6.26341e-06
5.00742e-08
6.25827e-06
2.04506e-08
6.25535e-06
1.94592e-08
6.25159e-06
1.58135e-08
6.2467e-06
1.91296e-08
6.24268e-06
1.38327e-08
6.24073e-06
1.83852e-08
6.23866e-06
1.97556e-08
2.11111e-08
6.23698e-06
6.50976e-06
1.63615e-07
6.49797e-06
-1.65383e-07
6.50386e-06
-9.78635e-08
6.48675e-06
1.12637e-09
6.49248e-06
2.18618e-07
6.50314e-06
2.45063e-07
6.50078e-06
1.26578e-07
6.50896e-06
2.22006e-07
6.5065e-06
1.62576e-07
6.5066e-06
8.28359e-08
6.5085e-06
9.20249e-08
6.50136e-06
5.72149e-08
6.49566e-06
2.61499e-08
6.49251e-06
2.26051e-08
6.48925e-06
1.90805e-08
6.48485e-06
2.35266e-08
6.48067e-06
1.80071e-08
6.47809e-06
2.0971e-08
6.47672e-06
2.11249e-08
2.25617e-08
6.47527e-06
6.75716e-06
1.57791e-07
6.74427e-06
-1.52486e-07
6.75042e-06
-1.04018e-07
6.7363e-06
1.5246e-08
6.73997e-06
2.14948e-07
6.74961e-06
2.3542e-07
6.74768e-06
1.28511e-07
6.7552e-06
2.14488e-07
6.75301e-06
1.64767e-07
6.75221e-06
8.36353e-08
6.75434e-06
8.98954e-08
6.74832e-06
6.32352e-08
6.74239e-06
3.20764e-08
6.73876e-06
2.62334e-08
6.73587e-06
2.19756e-08
6.73206e-06
2.73298e-08
6.72812e-06
2.19493e-08
6.72583e-06
2.32608e-08
6.72387e-06
2.30874e-08
2.38577e-08
6.72257e-06
7.01394e-06
1.51501e-07
6.99992e-06
-1.38468e-07
7.00625e-06
-1.10347e-07
6.99511e-06
2.63884e-08
6.9973e-06
2.1276e-07
7.00565e-06
2.27065e-07
7.00406e-06
1.30099e-07
7.01096e-06
2.07591e-07
7.00899e-06
1.66737e-07
7.00736e-06
8.52684e-08
7.00952e-06
8.77358e-08
7.00459e-06
6.81657e-08
6.9987e-06
3.79663e-08
6.99454e-06
3.03914e-08
6.99183e-06
2.46828e-08
6.9886e-06
3.05635e-08
6.98473e-06
2.5817e-08
6.98206e-06
2.59254e-08
6.98044e-06
2.47101e-08
2.4988e-08
6.97931e-06
7.28043e-06
1.44764e-07
7.26541e-06
-1.23451e-07
7.27171e-06
-1.16643e-07
7.26343e-06
3.46671e-08
7.26438e-06
2.11806e-07
7.27152e-06
2.19923e-07
7.27022e-06
1.31402e-07
7.2766e-06
2.01213e-07
7.27482e-06
1.68513e-07
7.27242e-06
8.76719e-08
7.27441e-06
8.57468e-08
7.27048e-06
7.2095e-08
7.26484e-06
4.36083e-08
7.2603e-06
3.49238e-08
7.25752e-06
2.74629e-08
7.25482e-06
3.32631e-08
7.25124e-06
2.94001e-08
7.24866e-06
2.85027e-08
7.24684e-06
2.65297e-08
2.60541e-08
7.24578e-06
7.55697e-06
1.37621e-07
7.5412e-06
-1.0768e-07
7.54715e-06
-1.22586e-07
7.54157e-06
4.02393e-08
7.54161e-06
2.11772e-07
7.54753e-06
2.13995e-07
7.54644e-06
1.32499e-07
7.55243e-06
1.95222e-07
7.55088e-06
1.70065e-07
7.54779e-06
9.07563e-08
7.54945e-06
8.40914e-08
7.54637e-06
7.51726e-08
7.54116e-06
4.88213e-08
7.53642e-06
3.96586e-08
7.53334e-06
3.0547e-08
7.53116e-06
3.54445e-08
7.52794e-06
3.26193e-08
7.52551e-06
3.09259e-08
7.52348e-06
2.85658e-08
2.71805e-08
7.52235e-06
7.84394e-06
1.30132e-07
7.82774e-06
-9.14737e-08
7.83293e-06
-1.27782e-07
7.82983e-06
4.33467e-08
7.82946e-06
2.12134e-07
7.83392e-06
2.09535e-07
7.83301e-06
1.33412e-07
7.8388e-06
1.8943e-07
7.83754e-06
1.71326e-07
7.83387e-06
9.44258e-08
7.83506e-06
8.29012e-08
7.83262e-06
7.76199e-08
7.82798e-06
5.34556e-08
7.82324e-06
4.43956e-08
7.81979e-06
3.39994e-08
7.8179e-06
3.73356e-08
7.81497e-06
3.55464e-08
7.81263e-06
3.32686e-08
7.81066e-06
3.0534e-08
2.83845e-08
7.80946e-06
8.14171e-06
1.22379e-07
8.12544e-06
-7.51989e-08
8.12926e-06
-1.31604e-07
8.12844e-06
4.41705e-08
8.12827e-06
2.12301e-07
8.13111e-06
2.06699e-07
8.13024e-06
1.3428e-07
8.13607e-06
1.83596e-07
8.13521e-06
1.72184e-07
8.13104e-06
9.86019e-08
8.13169e-06
8.22499e-08
8.12973e-06
7.95832e-08
8.12565e-06
5.7536e-08
8.1211e-06
4.89381e-08
8.11734e-06
3.77632e-08
8.1155e-06
3.91749e-08
8.11298e-06
3.8063e-08
8.11083e-06
3.54174e-08
8.1088e-06
3.25648e-08
2.97061e-08
8.10748e-06
8.45068e-06
1.1446e-07
8.43468e-06
-5.91961e-08
8.43625e-06
-1.33178e-07
8.43766e-06
4.27573e-08
8.43802e-06
2.11941e-07
8.43937e-06
2.05348e-07
8.43854e-06
1.35117e-07
8.44458e-06
1.77553e-07
8.4443e-06
1.72461e-07
8.4397e-06
1.03204e-07
8.43978e-06
8.21753e-08
8.43815e-06
8.12147e-08
8.4345e-06
6.11786e-08
8.43037e-06
5.30694e-08
8.42637e-06
4.17641e-08
8.42445e-06
4.10964e-08
8.42216e-06