/*--------------------------------*- C++ -*----------------------------------*\
| =========                 |                                                 |
| \\      /  F ield         | OpenFOAM: The Open Source CFD Toolbox           |
|  \\    /   O peration     | Version:  v2012                                 |
|   \\  /    A nd           | Website:  www.openfoam.com                      |
|    \\/     M anipulation  |                                                 |
\*---------------------------------------------------------------------------*/
FoamFile
{
    version     2.0;
    format      ascii;
    class       volVectorField;
    location    "1";
    object      U;
}
// * * * * * * * * * * * * * * * * * * * * * * * * * * * * * * * * * * * * * //

dimensions      [0 1 -1 0 0 0 0];


internalField   nonuniform List<vector> 
7000
(
(0.993631 0.00228162 0)
(1.01505 -0.00349062 0)
(0.979758 -0.00458644 0)
(1.01198 -0.00918998 0)
(0.903388 0.0179535 0)
(1.22585 0.00317912 0)
(0.568483 0.000633569 0)
(1.33597 0.0184796 0)
(0.638731 -0.00206408 0)
(1.1608 0.0152811 0)
(0.872167 -0.0114258 0)
(1.10289 0.00179989 0)
(0.927541 -0.010848 0)
(1.06988 -0.00592008 0)
(0.937457 -0.0113517 0)
(1.06572 -0.0142407 0)
(0.92396 -0.0107664 0)
(1.08054 -0.0219437 0)
(0.891618 -0.0120532 0)
(1.09469 -0.023768 0)
(0.994903 0.00224456 0)
(1.01263 -0.00341726 0)
(0.981038 -0.00460016 0)
(1.01061 -0.00868528 0)
(0.906296 0.0165893 0)
(1.2156 0.00663709 0)
(0.593732 -0.000879136 0)
(1.31406 0.0181311 0)
(0.714883 -0.000636968 0)
(1.12379 0.0132431 0)
(0.934092 -0.010883 0)
(1.0718 0.00114024 0)
(0.982566 -0.0102217 0)
(1.03036 -0.00601227 0)
(0.990427 -0.0110707 0)
(1.00849 -0.0140294 0)
(0.98742 -0.0108989 0)
(1.0019 -0.0215064 0)
(0.970831 -0.0116541 0)
(0.998997 -0.0241264 0)
(0.997372 0.00220803 0)
(1.00855 -0.00333439 0)
(0.983373 -0.00460363 0)
(1.00794 -0.00821541 0)
(0.913721 0.0150125 0)
(1.19516 0.00904898 0)
(0.651281 -0.00228191 0)
(1.26551 0.0176102 0)
(0.819605 0.000993275 0)
(1.0698 0.0109429 0)
(0.978148 -0.0105126 0)
(1.03398 0.000473031 0)
(1.00886 -0.00947627 0)
(0.99859 -0.00618379 0)
(1.00309 -0.0105017 0)
(0.977298 -0.014128 0)
(0.997673 -0.0106304 0)
(0.969915 -0.0210677 0)
(0.986569 -0.0117862 0)
(0.966958 -0.0227124 0)
(1.00073 0.0021839 0)
(1.00351 -0.00325802 0)
(0.986435 -0.00461267 0)
(1.00429 -0.00781979 0)
(0.925532 0.0137202 0)
(1.16523 0.0109348 0)
(0.731626 -0.00309514 0)
(1.1982 0.0164641 0)
(0.909997 0.00268724 0)
(1.02443 0.00950662 0)
(0.996445 -0.010215 0)
(1.00638 7.82439e-05 0)
(1.00777 -0.00884101 0)
(0.983149 -0.00616147 0)
(0.993204 -0.00991533 0)
(0.967025 -0.0142597 0)
(0.986689 -0.0100766 0)
(0.961097 -0.0211745 0)
(0.978989 -0.0112909 0)
(0.958111 -0.0219889 0)
(1.00456 0.00216932 0)
(0.998191 -0.00318406 0)
(0.989691 -0.00462645 0)
(1.00029 -0.00747783 0)
(0.939986 0.0126912 0)
(1.12926 0.0123115 0)
(0.816215 -0.00342592 0)
(1.12804 0.0149738 0)
(0.969218 0.00423065 0)
(0.999303 0.00887696 0)
(0.999419 -0.0100088 0)
(0.991614 -0.000100569 0)
(0.997296 -0.00835338 0)
(0.977843 -0.00601204 0)
(0.981708 -0.00941596 0)
(0.965926 -0.0143065 0)
(0.975605 -0.0096587 0)
(0.961124 -0.0212367 0)
(0.969268 -0.0107624 0)
(0.957747 -0.0215594 0)
(1.00842 0.00216217 0)
(0.993214 -0.0031085 0)
(0.992603 -0.00464235 0)
(0.996684 -0.00720227 0)
(0.954382 0.0118852 0)
(1.09279 0.0131315 0)
(0.888771 -0.00339958 0)
(1.06956 0.0136496 0)
(0.999583 0.00536439 0)
(0.992165 0.00875 0)
(0.997862 -0.00983568 0)
(0.985915 -0.000153043 0)
(0.988844 -0.00795052 0)
(0.977191 -0.00587704 0)
(0.976131 -0.00897987 0)
(0.967826 -0.0143515 0)
(0.970594 -0.00929841 0)
(0.963052 -0.0212118 0)
(0.964133 -0.0103451 0)
(0.958734 -0.0211836 0)
(1.01197 0.00216108 0)
(0.989015 -0.00302846 0)
(0.994862 -0.00466246 0)
(0.993938 -0.0069978 0)
(0.966287 0.0113084 0)
(1.06118 0.0134723 0)
(0.941521 -0.0031276 0)
(1.02982 0.0126786 0)
(1.01109 0.00603882 0)
(0.995307 0.00886035 0)
(0.99788 -0.00960418 0)
(0.985408 -0.000137911 0)
(0.985778 -0.00757869 0)
(0.978641 -0.00581726 0)
(0.976237 -0.0085774 0)
(0.970383 -0.0143966 0)
(0.970756 -0.0089418 0)
(0.964872 -0.0211068 0)
(0.963266 -0.00999304 0)
(0.959404 -0.0207331 0)
(1.01495 0.00216411 0)
(0.985787 -0.00294165 0)
(0.996458 -0.00468929 0)
(0.992122 -0.00684849 0)
(0.974515 0.0109364 0)
(1.03737 0.013472 0)
(0.974567 -0.00274125 0)
(1.00807 0.0120318 0)
(1.01375 0.00633267 0)
(1.00208 0.00901529 0)
(1.00091 -0.00927665 0)
(0.987771 -0.000101439 0)
(0.9871 -0.00720288 0)
(0.981208 -0.0058293 0)
(0.979535 -0.00817614 0)
(0.973074 -0.0144311 0)
(0.973467 -0.00857353 0)
(0.966695 -0.0208988 0)
(0.964532 -0.00966028 0)
(0.960166 -0.0201698 0)
(1.01727 0.00216919 0)
(0.98354 -0.00284691 0)
(0.997572 -0.0047233 0)
(0.990991 -0.00673226 0)
(0.979331 0.0107138 0)
(1.0213 0.013264 0)
(0.992304 -0.00233877 0)
(0.999102 0.011605 0)
(1.01408 0.00637911 0)
(1.00888 0.00911038 0)
(1.00579 -0.00886397 0)
(0.991655 -5.52835e-05 0)
(0.990744 -0.00679692 0)
(0.984459 -0.0058867 0)
(0.983952 -0.00775892 0)
(0.976044 -0.0144341 0)
(0.976844 -0.0081906 0)
(0.969016 -0.0205661 0)
(0.966442 -0.00933488 0)
(0.96156 -0.0194923 0)
(1.01885 0.00217462 0)
(0.98222 -0.00274474 0)
(0.998415 -0.00476289 0)
(0.990199 -0.00663193 0)
(0.981954 0.0105891 0)
(1.01097 0.0129472 0)
(1.00011 -0.00197858 0)
(0.997114 0.0112799 0)
(1.01462 0.00629343 0)
(1.01437 0.00911864 0)
(1.01085 -0.00839173 0)
(0.99605 -3.48031e-06 0)
(0.995062 -0.00634713 0)
(0.98812 -0.00596566 0)
(0.988433 -0.0073247 0)
(0.979474 -0.0143772 0)
(0.980141 -0.00780479 0)
(0.972043 -0.0201041 0)
(0.968526 -0.0090159 0)
(0.963721 -0.0187124 0)
(1.01965 0.00217915 0)
(0.981796 -0.0026372 0)
(0.999123 -0.00480434 0)
(0.989456 -0.00653918 0)
(0.983828 0.0105289 0)
(1.00408 0.0125834 0)
(1.00245 -0.00167808 0)
(0.997914 0.0109708 0)
(1.01543 0.00614543 0)
(1.01825 0.00905047 0)
(1.01489 -0.00788398 0)
(1.00012 4.40051e-05 0)
(0.999064 -0.00585668 0)
(0.991918 -0.00605396 0)
(0.992617 -0.00688342 0)
(0.983308 -0.0142429 0)
(0.983298 -0.00743341 0)
(0.97566 -0.0195188 0)
(0.97086 -0.00869764 0)
(0.966517 -0.0178446 0)
(1.01962 0.00218171 0)
(0.982265 -0.00252753 0)
(0.99976 -0.00484164 0)
(0.98856 -0.00645521 0)
(0.986081 0.0105151 0)
(0.998966 0.0122103 0)
(1.00239 -0.00143921 0)
(0.999245 0.0106368 0)
(1.01581 0.00597365 0)
(1.02046 0.00892194 0)
(1.01734 -0.00735765 0)
(1.00327 7.38672e-05 0)
(1.00225 -0.00534366 0)
(0.995525 -0.00614968 0)
(0.996388 -0.00645187 0)
(0.98725 -0.0140317 0)
(0.986427 -0.00709064 0)
(0.979596 -0.0188218 0)
(0.973586 -0.00837474 0)
(0.969769 -0.0169047 0)
(1.01874 0.00218135 0)
(0.983606 -0.00241988 0)
(1.00036 -0.0048665 0)
(0.987365 -0.0063883 0)
(0.989275 0.0105382 0)
(0.994834 0.0118518 0)
(1.00178 -0.00125584 0)
(1.0002 0.0102732 0)
(1.01524 0.00580147 0)
(1.02107 0.00874439 0)
(1.01812 -0.00682351 0)
(1.00522 7.32633e-05 0)
(1.00446 -0.00483209 0)
(0.998621 -0.00625597 0)
(0.999634 -0.00604912 0)
(0.990925 -0.013756 0)
(0.989518 -0.00678934 0)
(0.98356 -0.0180336 0)
(0.97668 -0.00805037 0)
(0.973319 -0.0159108 0)
(1.01705 0.00217729 0)
(0.985723 -0.00231909 0)
(1.00096 -0.00486887 0)
(0.985794 -0.00634964 0)
(0.993377 0.0105911 0)
(0.99149 0.0115216 0)
(1.00165 -0.00111841 0)
(1.00056 0.00989735 0)
(1.01368 0.0056442 0)
(1.02037 0.00852582 0)
(1.01752 -0.00628815 0)
(1.00596 2.68614e-05 0)
(1.00575 -0.00434486 0)
(1.00099 -0.00637604 0)
(1.00221 -0.0056908 0)
(0.994031 -0.0134304 0)
(0.992394 -0.00654319 0)
(0.987279 -0.0171825 0)
(0.979937 -0.00773323 0)
(0.976974 -0.0148828 0)
(1.01471 0.00216904 0)
(0.988424 -0.0022302 0)
(1.00156 -0.00483836 0)
(0.983913 -0.0063482 0)
(0.997858 0.0106655 0)
(0.989058 0.0112215 0)
(1.00246 -0.00101222 0)
(1.00042 0.00953557 0)
(1.01148 0.00551024 0)
(1.01882 0.00827379 0)
(1.01605 -0.00575495 0)
(1.00577 -7.0823e-05 0)
(1.00635 -0.00390073 0)
(1.00256 -0.00650916 0)
(1.00397 -0.0053856 0)
(0.996414 -0.0130652 0)
(0.994795 -0.00636096 0)
(0.990497 -0.0163009 0)
(0.98306 -0.00743409 0)
(0.98046 -0.0138434 0)
(1.01194 0.00215648 0)
(0.991437 -0.00215765 0)
(1.00212 -0.00476684 0)
(0.981984 -0.00638628 0)
(1.00189 0.0107501 0)
(0.987811 0.0109433 0)
(1.00412 -0.000920729 0)
(0.999988 0.00921317 0)
(1.00911 0.00540139 0)
(1.01699 0.00799441 0)
(1.01426 -0.00522393 0)
(1.00502 -0.000214524 0)
(1.00653 -0.00350956 0)
(1.00346 -0.0066451 0)
(1.00488 -0.00513863 0)
(0.99808 -0.0126693 0)
(0.996501 -0.00624002 0)
(0.992997 -0.0154151 0)
(0.985763 -0.00716304 0)
(0.983459 -0.0128202 0)
(1.00905 0.0021399 0)
(0.994461 -0.00210403 0)
(1.00252 -0.00465127 0)
(0.980415 -0.00645748 0)
(1.00461 0.0108303 0)
(0.988043 0.0106721 0)
(1.0061 -0.000826764 0)
(0.999472 0.00894522 0)
(1.00702 0.00531714 0)
(1.01527 0.00768619 0)
(1.01261 -0.00469602 0)
(1.00412 -0.000396844 0)
(1.00654 -0.00317493 0)
(1.00388 -0.00675946 0)
(1.00499 -0.00495265 0)
(0.999137 -0.0122553 0)
(0.997439 -0.00616997 0)
(0.994647 -0.0145391 0)
(0.987861 -0.0069193 0)
(0.985709 -0.011841 0)
(1.00633 0.00211981 0)
(0.997228 -0.00206918 0)
(1.00267 -0.00449551 0)
(0.979584 -0.00654702 0)
(1.00548 0.0108894 0)
(0.989886 0.010393 0)
(1.00766 -0.00070884 0)
(0.999048 0.00872989 0)
(1.0055 0.00525414 0)
(1.01383 0.00735605 0)
(1.01131 -0.00417508 0)
(1.00333 -0.000600129 0)
(1.00648 -0.00290117 0)
(1.00403 -0.00682487 0)
(1.00451 -0.0048198 0)
(0.99972 -0.0118336 0)
(0.997712 -0.00613769 0)
(0.995456 -0.0136847 0)
(0.98931 -0.00668869 0)
(0.987115 -0.0109241 0)
(1.004 0.0020968 0)
(0.999544 -0.0020503 0)
(1.00255 -0.00430893 0)
(0.979648 -0.00663598 0)
(1.00445 0.0109113 0)
(0.993136 0.0100943 0)
(1.00825 -0.000547803 0)
(0.998801 0.00855066 0)
(1.00463 0.00520405 0)
(1.01259 0.00702217 0)
(1.01037 -0.0036668 0)
(1.00276 -0.000800276 0)
(1.00635 -0.00268626 0)
(1.00403 -0.00682823 0)
(1.00369 -0.00472376 0)
(0.999942 -0.0114049 0)
(0.997548 -0.00612324 0)
(0.995578 -0.0128695 0)
(0.990191 -0.00646078 0)
(0.987789 -0.0100743 0)
(1.00219 0.00207147 0)
(1.00131 -0.0020431 0)
(1.00223 -0.00410343 0)
(0.98047 -0.00670601 0)
(1.00199 0.0108841 0)
(0.997202 0.00977159 0)
(1.00777 -0.000331399 0)
(0.998725 0.00838186 0)
(1.00431 0.0051682 0)
(1.01143 0.00668636 0)
(1.00968 -0.0031866 0)
(1.00241 -0.000978726 0)
(1.00611 -0.00252159 0)
(1.00395 -0.00677109 0)
(1.00281 -0.00465251 0)
(0.999888 -0.0109681 0)
(0.997201 -0.00609759 0)
(0.995272 -0.0121005 0)
(0.99066 -0.00623904 0)
(0.987988 -0.00929254 0)
(1.00091 0.00204444 0)
(1.00253 -0.00204349 0)
(1.00185 -0.0038896 0)
(0.981721 -0.00674393 0)
(0.998886 0.0108018 0)
(1.00129 0.00942743 0)
(1.00653 -5.35246e-05 0)
(0.998764 0.00819986 0)
(1.00434 0.0051474 0)
(1.01029 0.00635906 0)
(1.00913 -0.00274966 0)
(1.00221 -0.00111861 0)
(1.00576 -0.00240095 0)
(1.00379 -0.00665875 0)
(1.00206 -0.00459955 0)
(0.999642 -0.0105333 0)
(0.996857 -0.00604463 0)
(0.994808 -0.0113603 0)
(0.99088 -0.00601873 0)
(0.988002 -0.00857372 0)
(1.0001 0.00201635 0)
(1.00327 -0.0020486 0)
(1.00154 -0.00367446 0)
(0.983064 -0.00674453 0)
(0.995873 0.0106678 0)
(1.0047 0.00906653 0)
(1.00505 0.000277408 0)
(0.998866 0.00799553 0)
(1.00454 0.00513245 0)
(1.00919 0.00606336 0)
(1.00867 -0.00236609 0)
(1.00211 -0.00121072 0)
(1.00535 -0.00231759 0)
(1.00359 -0.00649979 0)
(1.00153 -0.00455206 0)
(0.999302 -0.0101069 0)
(0.996599 -0.00597485 0)
(0.994389 -0.0106306 0)
(0.990977 -0.00578821 0)
(0.988033 -0.00790654 0)
(0.999636 0.00198777 0)
(1.00363 -0.0020567 0)
(1.00136 -0.00346204 0)
(0.984301 -0.00670816 0)
(0.993412 0.0104918 0)
(1.00705 0.00869285 0)
(1.00375 0.000643334 0)
(0.999011 0.00777078 0)
(1.00479 0.0051233 0)
(1.00823 0.00579878 0)
(1.00829 -0.00204584 0)
(1.00206 -0.00125614 0)
(1.00496 -0.00226635 0)
(1.00337 -0.00631299 0)
(1.00118 -0.00448772 0)
(0.99896 -0.00967756 0)
(0.996431 -0.00590678 0)
(0.994109 -0.00991146 0)
(0.991029 -0.00555009 0)
(0.988164 -0.00728653 0)
(0.999417 0.00195932 0)
(1.00372 -0.00206733 0)
(1.00127 -0.00325382 0)
(0.985387 -0.00663967 0)
(0.991645 0.0102869 0)
(1.00831 0.00831004 0)
(1.00278 0.00102561 0)
(0.9992 0.00753431 0)
(1.00501 0.00511539 0)
(1.00745 0.00557359 0)
(1.00799 -0.00179059 0)
(1.00206 -0.00125138 0)
(1.00464 -0.00223707 0)
(1.00319 -0.00612324 0)
(1.00096 -0.00439294 0)
(0.998677 -0.00922492 0)
(0.996328 -0.00585596 0)
(0.993972 -0.00922047 0)
(0.991083 -0.00529384 0)
(0.988385 -0.00670371 0)
(0.999348 0.00193157 0)
(1.00365 -0.00208027 0)
(1.00123 -0.00305065 0)
(0.986365 -0.00654555 0)
(0.990505 0.0100673 0)
(1.00867 0.00792123 0)
(1.00212 0.0014059 0)
(0.999429 0.007301 0)
(1.0052 0.00508729 0)
(1.00686 0.00540407 0)
(1.00778 -0.00160004 0)
(1.00212 -0.00120098 0)
(1.00439 -0.00220988 0)
(1.00306 -0.00594161 0)
(1.0008 -0.0042894 0)
(0.99847 -0.00873011 0)
(0.996269 -0.00580088 0)
(0.993945 -0.00859057 0)
(0.991164 -0.00502031 0)
(0.988652 -0.00613942 0)
(0.999365 0.00190478 0)
(1.00347 -0.00209464 0)
(1.00119 -0.00285435 0)
(0.987288 -0.00643018 0)
(0.989859 0.00984168 0)
(1.00841 0.0075346 0)
(1.00163 0.00176654 0)
(0.999669 0.00707767 0)
(1.00535 0.0050336 0)
(1.00642 0.00528874 0)
(1.00762 -0.0014681 0)
(1.00223 -0.00112607 0)
(1.00419 -0.00217787 0)
(1.00301 -0.0057511 0)
(1.00068 -0.0042044 0)
(0.998338 -0.0082124 0)
(0.996248 -0.0056887 0)
(0.993992 -0.00800543 0)
(0.991291 -0.00477391 0)
(0.988937 -0.00559889 0)
(0.99943 0.00187925 0)
(1.00325 -0.00210988 0)
(1.0011 -0.00266599 0)
(0.988179 -0.00629851 0)
(0.989589 0.00961673 0)
(1.00777 0.00715735 0)
(1.00125 0.00209027 0)
(0.999883 0.0068757 0)
(1.00544 0.00494841 0)
(1.00609 0.00522109 0)
(1.00749 -0.0013733 0)
(1.00239 -0.00103031 0)
(1.00403 -0.00214988 0)
(1.00302 -0.00555792 0)
(1.0006 -0.00410914 0)
(0.998275 -0.00770988 0)
(0.99627 -0.00553551 0)
(0.994087 -0.00738938 0)
(0.991467 -0.00454626 0)
(0.989238 -0.00510543 0)
(0.999518 0.00185543 0)
(1.003 -0.00212597 0)
(1.00096 -0.00248526 0)
(0.989029 -0.00615697 0)
(0.989607 0.00939963 0)
(1.00694 0.00679374 0)
(1.00092 0.00236704 0)
(1.00004 0.0067084 0)
(1.00548 0.00482527 0)
(1.00583 0.00518632 0)
(1.00736 -0.00131091 0)
(1.00257 -0.000921871 0)
(1.00389 -0.0020949 0)
(1.00309 -0.00540948 0)
(1.00056 -0.00398881 0)
(0.998265 -0.00717846 0)
(0.996346 -0.00540654 0)
(0.994227 -0.00674326 0)
(0.991681 -0.004277 0)
(0.989556 -0.00463379 0)
(0.999612 0.00183337 0)
(1.00276 -0.00214153 0)
(1.00078 -0.00231305 0)
(0.989819 -0.00600952 0)
(0.98984 0.0091934 0)
(1.00606 0.00644923 0)
(1.00065 0.00259663 0)
(1.00012 0.00657018 0)
(1.00546 0.00467356 0)
(1.00563 0.00518299 0)
(1.0072 -0.00127737 0)
(1.00276 -0.000835882 0)
(1.00375 -0.00199067 0)
(1.00318 -0.00525752 0)
(1.00056 -0.0039307 0)
(0.998294 -0.00657956 0)
(0.996465 -0.00526917 0)
(0.99442 -0.00614126 0)
(0.99193 -0.00397644 0)
(0.989891 -0.00414297 0)
(0.999701 0.0018122 0)
(1.00254 -0.00215411 0)
(1.00056 -0.00215215 0)
(0.990528 -0.00585344 0)
(0.990218 0.00898662 0)
(1.00522 0.00613968 0)
(1.00043 0.0027624 0)
(1.00014 0.00647684 0)
(1.00538 0.00447206 0)
(1.00546 0.00522322 0)
(1.00702 -0.00128212 0)
(1.00294 -0.000733459 0)
(1.00361 -0.00191981 0)
(1.00328 -0.00503499 0)
(1.00059 -0.00394524 0)
(0.998362 -0.00597874 0)
(0.996611 -0.00509117 0)
(0.994661 -0.00557593 0)
(0.992221 -0.00366991 0)
(0.990251 -0.00363087 0)
(0.999776 0.00179284 0)
(1.00236 -0.00216626 0)
(1.00033 -0.00199912 0)
(0.991148 -0.0056942 0)
(0.990674 0.0087814 0)
(1.00448 0.00586373 0)
(1.00029 0.00286695 0)
(1.00011 0.00642105 0)
(1.00525 0.00423635 0)
(1.00529 0.00526205 0)
(1.00681 -0.00125761 0)
(1.0031 -0.000700684 0)
(1.00346 -0.00172661 0)
(1.00337 -0.00493689 0)
(1.00065 -0.00386025 0)
(0.998458 -0.00553171 0)
(0.996777 -0.00478793 0)
(0.994942 -0.00514696 0)
(0.992549 -0.00324986 0)
(0.990634 -0.00304473 0)
(0.999836 0.00177531 0)
(1.00222 -0.00217823 0)
(1.00011 -0.00185013 0)
(0.991677 -0.00553883 0)
(0.991148 0.00858686 0)
(1.00386 0.00561209 0)
(1.0002 0.00294276 0)
(1.00006 0.0063798 0)
(1.00509 0.00399638 0)
(1.00512 0.00527586 0)
(1.00657 -0.00115559 0)
(1.00324 -0.000814398 0)
(1.0033 -0.00136795 0)
(1.00344 -0.00497759 0)
(1.00073 -0.00366364 0)
(0.998576 -0.00525338 0)
(0.996944 -0.00438512 0)
(0.99525 -0.00487746 0)
(0.992927 -0.00266611 0)
(0.991003 -0.00236961 0)
(0.99988 0.00175753 0)
(1.00211 -0.00218511 0)
(0.999909 -0.00171217 0)
(0.99212 -0.0053726 0)
(0.991599 0.00837539 0)
(1.00337 0.00540837 0)
(1.00017 0.00295257 0)
(0.999995 0.00637573 0)
(1.00493 0.00374097 0)
(1.00493 0.00528777 0)
(1.0063 -0.00104625 0)
(1.00336 -0.000908435 0)
(1.00312 -0.00113169 0)
(1.00348 -0.00483377 0)
(1.00082 -0.00360569 0)
(0.998701 -0.00490878 0)
(0.99711 -0.00407045 0)
(0.99559 -0.00446964 0)
(0.993348 -0.00214143 0)
(0.991329 -0.0017427 0)
(0.999911 0.00174081 0)
(1.00202 -0.00219079 0)
(0.999745 -0.00158154 0)
(0.99249 -0.00519911 0)
(0.992005 0.00814652 0)
(1.00297 0.00524782 0)
(1.00017 0.00289893 0)
(0.999931 0.00640844 0)
(1.00479 0.00345204 0)
(1.00473 0.00531071 0)
(1.00603 -0.000945821 0)
(1.00345 -0.000999442 0)
(1.00295 -0.000965126 0)
(1.00348 -0.00453898 0)
(1.00091 -0.00369463 0)
(0.998832 -0.00442283 0)
(0.997278 -0.00370734 0)
(0.995933 -0.0038695 0)
(0.993766 -0.0018466 0)
(0.991633 -0.00127774 0)
(0.999928 0.00172545 0)
(1.00195 -0.00219761 0)
(0.999615 -0.00145328 0)
(0.992807 -0.00502549 0)
(0.992362 0.00791373 0)
(1.00265 0.00511518 0)
(1.00021 0.00282845 0)
(0.999875 0.00644947 0)
(1.00467 0.00317355 0)
(1.00454 0.00528513 0)
(1.00574 -0.000801894 0)
(1.00353 -0.00111406 0)
(1.00279 -0.000783298 0)
(1.00344 -0.00427191 0)
(1.00101 -0.00363 0)
(0.998986 -0.00392446 0)
(0.997445 -0.00329498 0)
(0.996247 -0.00330724 0)
(0.994173 -0.00167304 0)
(0.991951 -0.000923916 0)
(0.999933 0.00171117 0)
(1.0019 -0.00220305 0)
(0.999515 -0.00133145 0)
(0.993085 -0.00483894 0)
(0.992671 0.00766218 0)
(1.00239 0.00501271 0)
(1.00025 0.00273248 0)
(0.999831 0.00650023 0)
(1.00457 0.00293453 0)
(1.00436 0.00518456 0)
(1.00545 -0.000580548 0)
(1.00359 -0.00123673 0)
(1.00265 -0.000616033 0)
(1.00338 -0.00394606 0)
(1.00112 -0.00345197 0)
(0.999138 -0.00350801 0)
(0.997613 -0.00287298 0)
(0.99654 -0.00281595 0)
(0.994566 -0.00155282 0)
(0.992272 -0.000648928 0)
(0.999931 0.00169468 0)
(1.00185 -0.00220088 0)
(0.99944 -0.00122208 0)
(0.993334 -0.00463129 0)
(0.992943 0.00737775 0)
(1.00217 0.00494979 0)
(1.0003 0.0025959 0)
(0.999798 0.00656322 0)
(1.00449 0.00270527 0)
(1.0042 0.0050611 0)
(1.00516 -0.000329935 0)
(1.00365 -0.00134472 0)
(1.00253 -0.000490988 0)
(1.00329 -0.00349669 0)
(1.00124 -0.00332864 0)
(0.999314 -0.00309847 0)
(0.99779 -0.00241244 0)
(0.996782 -0.00238282 0)
(0.99493 -0.00152537 0)
(0.992595 -0.000451305 0)
(0.999924 0.00167984 0)
(1.00181 -0.00220079 0)
(0.999385 -0.00112046 0)
(0.993566 -0.00441042 0)
(0.99319 0.00707358 0)
(1.00197 0.00491101 0)
(1.00035 0.00243656 0)
(0.999775 0.00661228 0)
(1.00442 0.00252237 0)
(1.00406 0.00485255 0)
(1.00487 -4.49278e-05 0)
(1.00369 -0.00143506 0)
(1.00245 -0.000376846 0)
(1.00319 -0.00303164 0)
(1.00136 -0.00313968 0)
(0.999512 -0.00270607 0)
(0.997955 -0.00209799 0)
(0.99697 -0.00204738 0)
(0.99528 -0.00144279 0)
(0.992944 -0.000245318 0)
(0.999914 0.00166788 0)
(1.00178 -0.00220463 0)
(0.999342 -0.00102072 0)
(0.993787 -0.00418337 0)
(0.993421 0.00676681 0)
(1.00178 0.00487979 0)
(1.00041 0.00228934 0)
(0.999758 0.00661702 0)
(1.00434 0.00241019 0)
(1.00394 0.00458741 0)
(1.00459 0.000277276 0)
(1.00373 -0.00153906 0)
(1.00241 -0.000194629 0)
(1.00308 -0.00261532 0)
(1.00147 -0.0028575 0)
(0.999703 -0.00243357 0)
(0.99812 -0.00189685 0)
(0.997156 -0.00169343 0)
(0.99563 -0.00120925 0)
(0.993293 -5.47095e-05 0)
(0.999903 0.00165119 0)
(1.00175 -0.00219571 0)
(0.99931 -0.000937518 0)
(0.994 -0.00392711 0)
(0.993644 0.0064327 0)
(1.00161 0.00487203 0)
(1.00046 0.00213209 0)
(0.999747 0.0065963 0)
(1.00427 0.00235682 0)
(1.00385 0.00429031 0)
(1.00431 0.000613525 0)
(1.00376 -0.00153203 0)
(1.0024 -7.71292e-05 0)
(1.00297 -0.00214171 0)
(1.00157 -0.00261506 0)
(0.999886 -0.00222742 0)
(0.998309 -0.00166358 0)
(0.99735 -0.00126447 0)
(0.995949 -0.000992052 0)
(0.99362 5.85215e-05 0)
(0.999891 0.00163577 0)
(1.00172 -0.00218606 0)
(0.999286 -0.000866134 0)
(0.994207 -0.00365107 0)
(0.993865 0.00607309 0)
(1.00145 0.00487465 0)
(1.00051 0.00197648 0)
(0.999743 0.00653733 0)
(1.00419 0.00235338 0)
(1.00378 0.00395995 0)
(1.00405 0.000963454 0)
(1.00378 -0.00145032 0)
(1.00243 -2.00522e-05 0)
(1.00286 -0.00168453 0)
(1.00164 -0.00240034 0)
(1.00008 -0.00200353 0)
(0.998531 -0.00140421 0)
(0.997528 -0.000880456 0)
(0.996228 -0.000808929 0)
(0.993946 0.000151629 0)
(0.999879 0.00162299 0)
(1.00169 -0.00217896 0)
(0.999267 -0.000801504 0)
(0.994409 -0.0033688 0)
(0.994087 0.00571864 0)
(1.0013 0.00486562 0)
(1.00057 0.00186478 0)
(0.999747 0.00640761 0)
(1.0041 0.00240031 0)
(1.00373 0.00363903 0)
(1.00379 0.00129843 0)
(1.00379 -0.00134183 0)
(1.00248 3.87546e-05 0)
(1.00275 -0.0013424 0)
(1.0017 -0.00209243 0)
(1.00028 -0.00175591 0)
(0.998766 -0.001205 0)
(0.997704 -0.000605441 0)
(0.996481 -0.000578742 0)
(0.99426 0.000263952 0)
(0.999868 0.00160444 0)
(1.00166 -0.00215675 0)
(0.999256 -0.000755771 0)
(0.994606 -0.00306539 0)
(0.99431 0.00536004 0)
(1.00115 0.00485517 0)
(1.00063 0.00178336 0)
(0.99976 0.00623844 0)
(1.004 0.00248823 0)
(1.0037 0.00332643 0)
(1.00356 0.00159408 0)
(1.00378 -0.0011542 0)
(1.00254 4.49532e-05 0)
(1.00267 -0.000978734 0)
(1.00175 -0.00177133 0)
(1.00046 -0.0015349 0)
(0.999007 -0.00104645 0)
(0.997897 -0.000345348 0)
(0.996722 -0.000336526 0)
(0.994557 0.000374705 0)
(0.999859 0.00158619 0)
(1.00163 -0.00213077 0)
(0.999252 -0.000727726 0)
(0.994797 -0.00274147 0)
(0.994537 0.00499175 0)
(1.00102 0.00483472 0)
(1.00068 0.0017282 0)
(0.999782 0.00604251 0)
(1.00389 0.00259616 0)
(1.00369 0.00304691 0)
(1.00334 0.00186206 0)
(1.00374 -0.000927233 0)
(1.00263 2.64771e-05 0)
(1.00261 -0.000626044 0)
(1.00178 -0.00149528 0)
(1.00064 -0.00128414 0)
(0.999268 -0.000868479 0)
(0.998103 -9.73109e-05 0)
(0.99694 -0.000116565 0)
(0.994839 0.000487568 0)
(0.999849 0.00157111 0)
(1.00161 -0.00210782 0)
(0.999257 -0.000707254 0)
(0.994984 -0.00241598 0)
(0.994765 0.00464288 0)
(1.0009 0.00478179 0)
(1.00074 0.00171672 0)
(0.999815 0.00581438 0)
(1.00378 0.00270809 0)
(1.00368 0.00280914 0)
(1.00315 0.00209511 0)
(1.00369 -0.000676423 0)
(1.00273 4.12699e-05 0)
(1.00257 -0.000373018 0)
(1.00182 -0.00117491 0)
(1.0008 -0.0010139 0)
(0.999526 -0.000706248 0)
(0.998317 6.09691e-05 0)
(0.99715 0.000113172 0)
(0.99511 0.000621392 0)
(0.99984 0.00154721 0)
(1.00158 -0.00206485 0)
(0.99927 -0.00070216 0)
(0.995167 -0.00208472 0)
(0.994994 0.00430462 0)
(1.00079 0.00471023 0)
(1.00079 0.00172976 0)
(0.999857 0.00557736 0)
(1.00366 0.00282175 0)
(1.00369 0.00259554 0)
(1.00298 0.00226611 0)
(1.00362 -0.000368512 0)
(1.00283 4.1874e-05 0)
(1.00256 -0.000142604 0)
(1.00185 -0.000836228 0)
(1.00095 -0.000784425 0)
(0.999776 -0.000558562 0)
(0.998558 0.000256746 0)
(0.997369 0.000333412 0)
(0.995362 0.000754849 0)
(0.999832 0.0015247 0)
(1.00156 -0.0020176 0)
(0.999292 -0.000715489 0)
(0.995345 -0.00174984 0)
(0.995222 0.00398938 0)
(1.0007 0.0046059 0)
(1.00084 0.00176189 0)
(0.999909 0.00534234 0)
(1.00354 0.0029294 0)
(1.0037 0.00241549 0)
(1.00284 0.00240578 0)
(1.00352 -6.46587e-05 0)
(1.00293 5.58284e-05 0)
(1.00258 5.28898e-05 0)
(1.00188 -0.000538798 0)
(1.00108 -0.000520276 0)
(1.00004 -0.000356754 0)
(0.998809 0.000434268 0)
(0.997567 0.00053462 0)
(0.995605 0.000887767 0)
(0.999825 0.00150207 0)
(1.00153 -0.00196637 0)
(0.999324 -0.000736004 0)
(0.995521 -0.00142387 0)
(0.995447 0.00370586 0)
(1.00062 0.00447122 0)
(1.00089 0.00181505 0)
(0.999968 0.00512243 0)
(1.00342 0.00302675 0)
(1.00372 0.00227149 0)
(1.00273 0.0025084 0)
(1.00342 0.000237333 0)
(1.00302 0.00011603 0)
(1.00262 0.000221913 0)
(1.00194 -0.000251096 0)
(1.00121 -0.000223596 0)
(1.00029 -0.000163176 0)
(0.999067 0.000550397 0)
(0.997781 0.00072023 0)
(0.995834 0.00103439 0)
(0.999819 0.00147037 0)
(1.00151 -0.00189604 0)
(0.999367 -0.00077017 0)
(0.995694 -0.0011021 0)
(0.995669 0.00345278 0)
(1.00055 0.0043233 0)
(1.00094 0.00186967 0)
(1.00004 0.00491736 0)
(1.0033 0.00312039 0)
(1.00374 0.00216024 0)
(1.00264 0.00255462 0)
(1.00331 0.000562251 0)
(1.00311 0.000186668 0)
(1.00269 0.000366927 0)
(1.002 1.30155e-05 0)
(1.00133 4.60116e-05 0)
(1.00052 1.79932e-06 0)
(0.999336 0.000697868 0)
(0.998001 0.000890889 0)
(0.996063 0.00118962 0)
(0.999814 0.00144378 0)
(1.00148 -0.00182747 0)
(0.99942 -0.000812142 0)
(0.995868 -0.000805307 0)
(0.995884 0.0032549 0)
(1.0005 0.00415415 0)
(1.001 0.00193165 0)
(1.00011 0.00472105 0)
(1.00318 0.00319888 0)
(1.00376 0.00207214 0)
(1.00259 0.00258163 0)
(1.0032 0.000859722 0)
(1.00318 0.000301931 0)
(1.00278 0.000457099 0)
(1.00208 0.000236095 0)
(1.00144 0.000322109 0)
(1.00074 0.000213467 0)
(0.999615 0.000815848 0)
(0.998232 0.00106933 0)
(0.996285 0.00134866 0)
(0.999809 0.00140737 0)
(1.00146 -0.00174272 0)
(0.999483 -0.000859479 0)
(0.996041 -0.00053045 0)
(0.996092 0.00308872 0)
(1.00047 0.00398519 0)
(1.00106 0.00198694 0)
(1.0002 0.00453841 0)
(1.00307 0.00327498 0)
(1.00379 0.00200767 0)
(1.00257 0.00257056 0)
(1.00309 0.00114744 0)
(1.00323 0.000432285 0)
(1.00289 0.000573837 0)
(1.0022 0.000449291 0)
(1.00156 0.000594723 0)
(1.00094 0.000437567 0)
(0.999893 0.000947901 0)
(0.998481 0.00121012 0)
(0.996503 0.001486 0)
(0.999805 0.00137021 0)
(1.00143 -0.0016482 0)
(0.999557 -0.000917215 0)
(0.996215 -0.000286112 0)
(0.996293 0.00296198 0)
(1.00045 0.00381771 0)
(1.00113 0.00203253 0)
(1.00029 0.0043678 0)
(1.00295 0.00333994 0)
(1.0038 0.00196826 0)
(1.00257 0.00254477 0)
(1.00298 0.00141207 0)
(1.00327 0.000605869 0)
(1.003 0.000692536 0)
(1.00233 0.000622606 0)
(1.00168 0.000836344 0)
(1.00113 0.000659843 0)
(1.00016 0.00108411 0)
(0.99873 0.00132044 0)
(0.996727 0.00162264 0)
(0.999803 0.00133074 0)
(1.0014 -0.00155079 0)
(0.99964 -0.000973695 0)
(0.996394 -7.15531e-05 0)
(0.996486 0.00287656 0)
(1.00043 0.00365194 0)
(1.00121 0.00207693 0)
(1.0004 0.00421315 0)
(1.00284 0.00339376 0)
(1.00381 0.00196051 0)
(1.0026 0.0024953 0)
(1.0029 0.00163927 0)
(1.00328 0.000795017 0)
(1.00311 0.000800127 0)
(1.00248 0.000763343 0)
(1.00181 0.00106353 0)
(1.0013 0.000896137 0)
(1.00041 0.00123148 0)
(0.998996 0.00144435 0)
(0.996964 0.00175385 0)
(0.999801 0.00128386 0)
(1.00137 -0.00143744 0)
(0.999732 -0.00103416 0)
(0.996578 0.000111196 0)
(0.99667 0.0028168 0)
(1.00043 0.00351004 0)
(1.00129 0.00210947 0)
(1.00052 0.004068 0)
(1.00274 0.00344362 0)
(1.00382 0.00196721 0)
(1.00265 0.00242832 0)
(1.00283 0.00183797 0)
(1.00329 0.000994704 0)
(1.00321 0.00093699 0)
(1.00265 0.000895917 0)
(1.00196 0.00127037 0)
(1.00146 0.00112755 0)
(1.00065 0.00139574 0)
(0.999253 0.00156432 0)
(0.997198 0.00185618 0)
(0.9998 0.00123859 0)
(1.00134 -0.00131956 0)
(0.99983 -0.00109903 0)
(0.99677 0.000255188 0)
(0.996849 0.00278289 0)
(1.00043 0.00337697 0)
(1.00137 0.00213612 0)
(1.00064 0.0039361 0)
(1.00265 0.00348555 0)
(1.00381 0.00199669 0)
(1.00273 0.00237352 0)
(1.00278 0.00200655 0)
(1.00329 0.00121176 0)
(1.00331 0.00108435 0)
(1.00283 0.00101275 0)
(1.00213 0.00143927 0)
(1.00162 0.0013444 0)
(1.00087 0.00155302 0)
(0.999506 0.0016822 0)
(0.997441 0.00194884 0)
(0.999801 0.00118434 0)
(1.0013 -0.00118593 0)
(0.999935 -0.00116324 0)
(0.996972 0.0003675 0)
(0.997022 0.00276282 0)
(1.00043 0.00326074 0)
(1.00146 0.00216075 0)
(1.00078 0.00381595 0)
(1.00257 0.00352701 0)
(1.00379 0.00204884 0)
(1.00281 0.00231425 0)
(1.00276 0.00213615 0)
(1.00329 0.00140911 0)
(1.00339 0.00125806 0)
(1.00301 0.00112616 0)
(1.00233 0.0015771 0)
(1.00179 0.0015498 0)
(1.00108 0.00172267 0)
(0.999742 0.00182094 0)
(0.99768 0.00203966 0)
(0.999803 0.00112895 0)
(1.00126 -0.00104089 0)
(1.00004 -0.00122715 0)
(0.997183 0.000442015 0)
(0.997192 0.00275762 0)
(1.00044 0.00317047 0)
(1.00155 0.00217542 0)
(1.00092 0.0036997 0)
(1.00249 0.00356721 0)
(1.00377 0.00211148 0)
(1.00291 0.00226616 0)
(1.00277 0.00223496 0)
(1.0033 0.0015996 0)
(1.00346 0.00144238 0)
(1.00319 0.00125104 0)
(1.00254 0.00169096 0)
(1.00196 0.0017343 0)
(1.00128 0.00187474 0)
(0.999964 0.00196065 0)
(0.997913 0.00212741 0)
(0.999806 0.00106977 0)
(1.00121 -0.000893088 0)
(1.00015 -0.00128231 0)
(0.997406 0.00048468 0)
(0.997361 0.00276258 0)
(1.00044 0.00309446 0)
(1.00164 0.00218674 0)
(1.00108 0.00358999 0)
(1.00243 0.00360088 0)
(1.00373 0.00219716 0)
(1.00301 0.0022296 0)
(1.0028 0.00231578 0)
(1.00331 0.00176339 0)
(1.00353 0.00163066 0)
(1.00336 0.00139805 0)
(1.00276 0.00178771 0)
(1.00214 0.00190247 0)
(1.00147 0.00202463 0)
(1.00017 0.00210489 0)
(0.998138 0.00222123 0)
(0.99981 0.00100748 0)
(1.00116 -0.000739825 0)
(1.00025 -0.00132748 0)
(0.997638 0.000497991 0)
(0.997532 0.00276399 0)
(1.00045 0.00304347 0)
(1.00173 0.00220165 0)
(1.00124 0.0034789 0)
(1.00239 0.00362558 0)
(1.00369 0.00229153 0)
(1.00311 0.00220402 0)
(1.00285 0.00237659 0)
(1.00334 0.00190856 0)
(1.00359 0.00181654 0)
(1.00351 0.00155958 0)
(1.00299 0.00187578 0)
(1.00234 0.00205031 0)
(1.00166 0.00216492 0)
(1.00037 0.00224378 0)
(0.998352 0.00232255 0)
(0.999816 0.000944307 0)
(1.0011 -0.000592255 0)
(1.00035 -0.00135579 0)
(0.997881 0.000491924 0)
(0.997707 0.0027616 0)
(1.00046 0.00301493 0)
(1.00182 0.00221467 0)
(1.00141 0.00336626 0)
(1.00236 0.00363922 0)
(1.00364 0.00239944 0)
(1.00321 0.00219545 0)
(1.00291 0.00242874 0)
(1.00338 0.00203709 0)
(1.00365 0.00198185 0)
(1.00364 0.00173332 0)
(1.00322 0.00196889 0)
(1.00255 0.00218168 0)
(1.00186 0.0022912 0)
(1.00056 0.0023794 0)
(0.998561 0.00243163 0)
(0.999822 0.000881026 0)
(1.00104 -0.000451725 0)
(1.00044 -0.00135659 0)
(0.998131 0.000464704 0)
(0.997887 0.002752 0)
(1.00047 0.00299999 0)
(1.0019 0.00223022 0)
(1.00158 0.00325125 0)
(1.00235 0.00364078 0)
(1.00358 0.0025193 0)
(1.00331 0.00220261 0)
(1.003 0.00247677 0)
(1.00343 0.00215178 0)
(1.00372 0.00213336 0)
(1.00377 0.00191612 0)
(1.00344 0.00207291 0)
(1.00277 0.00230478 0)
(1.00205 0.00241396 0)
(1.00075 0.00251668 0)
(0.998762 0.00254569 0)
(0.99983 0.000818568 0)
(1.00098 -0.000317506 0)
(1.00053 -0.00133103 0)
(0.998387 0.000424114 0)
(0.998074 0.00273433 0)