/*--------------------------------*- C++ -*----------------------------------*\
| =========                 |                                                 |
| \\      /  F ield         | OpenFOAM: The Open Source CFD Toolbox           |
|  \\    /   O peration     | Version:  v2012                                 |
|   \\  /    A nd           | Website:  www.openfoam.com                      |
|    \\/     M anipulation  |                                                 |
\*---------------------------------------------------------------------------*/
FoamFile
{
    version     2.0;
    format      ascii;
    class       volScalarField;
    location    "7.3";
    object      p;
}
// * * * * * * * * * * * * * * * * * * * * * * * * * * * * * * * * * * * * * //

dimensions      [0 2 -2 0 0 0 0];


internalField   nonuniform List<scalar> 
7000
(
8.85809e-11
0.00310887
-0.00712848
0.00070385
0.00887435
0.0080654
0.0080806
0.00939113
0.00745571
0.0118721
0.0131602
0.0148654
0.0170789
0.0202184
0.0227003
0.0260909
0.029172
0.0327879
0.0364665
0.0428691
-1.61104e-06
0.00310801
-0.00710516
0.000702468
0.00886685
0.00807827
0.00808185
0.00938935
0.00745478
0.0118584
0.0131468
0.014866
0.0170775
0.0202283
0.022707
0.0260797
0.0291819
0.0327375
0.0364943
0.0425748
-3.53617e-06
0.00310671
-0.00707938
0.000693256
0.00886098
0.0081063
0.0080841
0.00937709
0.00745292
0.0118274
0.0131292
0.0148758
0.0170757
0.0202497
0.0227089
0.0260665
0.0291793
0.0326693
0.0365043
0.0420717
-5.84066e-06
0.00310369
-0.00705239
0.00069782
0.00885626
0.00814781
0.00809061
0.00935542
0.00745589
0.0117865
0.0131134
0.0148943
0.0170724
0.0202738
0.0227095
0.0260481
0.0291671
0.0325939
0.0364683
0.0415524
-9.20825e-06
0.0030989
-0.00701909
0.000720932
0.0088466
0.00820026
0.00810317
0.00932885
0.00746807
0.0117394
0.0130987
0.0149165
0.0170722
0.0202965
0.0227138
0.0260217
0.0291524
0.0325052
0.0363961
0.0410635
-1.4034e-05
0.00309282
-0.00697704
0.000754141
0.00882773
0.00825934
0.0081214
0.00930267
0.00749062
0.0116888
0.0130852
0.014941
0.017079
0.0203166
0.0227229
0.0259872
0.0291346
0.0324033
0.0362958
0.0406056
-2.04093e-05
0.00308593
-0.00692605
0.000788993
0.00879841
0.00832035
0.00814362
0.00928053
0.00752198
0.0116377
0.013074
0.0149678
0.0170944
0.0203331
0.022736
0.0259441
0.0291117
0.0322898
0.0361687
0.0401682
-2.81184e-05
0.00307864
-0.00686658
0.000822105
0.00875902
0.00837916
0.00816798
0.0092634
0.00755988
0.0115877
0.0130648
0.0149957
0.0171175
0.0203449
0.0227509
0.0258919
0.0290819
0.0321652
0.0360136
0.0397419
-3.66557e-05
0.0030712
-0.00679844
0.000853436
0.00871022
0.00843275
0.00819307
0.0092504
0.00760212
0.0115384
0.0130566
0.0150229
0.0171464
0.0203501
0.0227646
0.0258301
0.029043
0.0320297
0.0358299
0.03932
-4.53648e-05
0.00306367
-0.00672032
0.000884473
0.00865247
0.00847923
0.00821796
0.00923995
0.00764723
0.0114886
0.0130486
0.0150466
0.0171781
0.0203469
0.0227743
0.0257586
0.0289929
0.0318835
0.0356176
0.0388974
-5.36407e-05
0.00305601
-0.00663002
0.000917333
0.0085861
0.00851758
0.00824193
0.0092308
0.0076948
0.011438
0.0130406
0.0150647
0.0172095
0.020333
0.0227769
0.0256773
0.0289297
0.0317269
0.0353775
0.0384701
-6.10816e-05
0.00304808
-0.00652513
0.000954049
0.00851162
0.00854731
0.00826441
0.00922241
0.00774552
0.0113877
0.0130335
0.0150755
0.0172379
0.0203068
0.0227703
0.0255869
0.028852
0.0315597
0.0351109
0.038035
-6.75239e-05
0.00303979
-0.00640377
0.000995942
0.0084298
0.00856827
0.00828507
0.00921474
0.00780064
0.0113394
0.0130288
0.0150788
0.0172619
0.020268
0.0227531
0.0254885
0.0287585
0.0313819
0.0348199
0.0375898
-7.2987e-05
0.0030312
-0.00626514
0.00104344
0.00834177
0.0085806
0.00830391
0.00920786
0.0078612
0.0112951
0.0130282
0.0150753
0.0172813
0.0202168
0.0227245
0.0253834
0.0286477
0.0311933
0.034506
0.0371328
-7.75882e-05
0.00302243
-0.00610978
0.00109624
0.00824887
0.00858461
0.00832127
0.0092018
0.00792766
0.011256
0.0130333
0.0150667
0.017297
0.0201548
0.022684
0.0252725
0.0285197
0.0309937
0.0341713
0.0366631
-8.14673e-05
0.00301366
-0.00593928
0.00115358
0.0081524
0.00858084
0.0083377
0.00919647
0.00799984
0.011222
0.0130449
0.0150542
0.0173096
0.0200842
0.0226313
0.0251569
0.0283741
0.0307824
0.0338177
0.0361808
-8.47382e-05
0.00300497
-0.00575585
0.0012145
0.00805357
0.00857025
0.00835388
0.00919173
0.00807703
0.0111923
0.0130626
0.0150387
0.0173196
0.0200076
0.0225661
0.0250378
0.0282114
0.030558
0.0334468
0.0356861
-8.74746e-05
0.00299642
-0.00556182
0.00127814
0.0079534
0.00855352
0.00837044
0.00918736
0.00815834
0.0111654
0.0130854
0.0150206
0.0173264
0.0199275
0.0224881
0.0249155
0.0280325
0.0303196
0.0330598
0.0351798
-8.97098e-05
0.00298799
-0.00535926
0.00134388
0.00785277
0.00853131
0.00838792
0.00918316
0.00824284
0.01114
0.0131122
0.0150004
0.0173292
0.0198461
0.0223971
0.0247901
0.0278388
0.0300659
0.0326574
0.0346625
-9.144e-05
0.00297961
-0.00514984
0.00141127
0.00775237
0.00850411
0.00840667
0.00917891
0.00832972
0.0111147
0.0131416
0.0149787
0.0173266
0.0197652
0.0222933
0.024661
0.0276314
0.0297962
0.0322405
0.0341347
-9.26284e-05
0.00297123
-0.00493483
0.00147991
0.00765276
0.00847232
0.00842689
0.00917444
0.00841822
0.0110889
0.0131721
0.0149564
0.0173174
0.0196862
0.0221776
0.0245257
0.027411
0.0295101
0.0318106
0.0335977
-9.32098e-05
0.00296284
-0.00471523
0.00154936
0.00755444
0.00843624
0.00844866
0.00916964
0.00850762
0.0110625
0.0132021
0.0149345
0.0173004
0.0196095
0.0220506
0.0243816
0.0271783
0.0292076
0.0313689
0.0330533
-9.30961e-05
0.00295442
-0.00449181
0.00161921
0.00745792
0.00839607
0.00847197
0.00916441
0.00859706
0.0110356
0.0132298
0.0149136
0.0172748
0.0195342
0.0219132
0.0242269
0.0269341
0.0288887
0.0309159
0.0325026
-9.21814e-05
0.00294596
-0.0042651
0.00168912
0.00736363
0.00835189
0.0084967
0.00915886
0.0086856
0.0110089
0.0132537
0.0148945
0.0172397
0.0194589
0.021767
0.0240597
0.0266791
0.0285552
0.0304515
0.031946
-9.03441e-05
0.00293746
-0.00403538
0.00175881
0.00727194
0.00830379
0.00852255
0.00915327
0.00877215
0.0109833
0.0132724
0.0148775
0.0171946
0.019382
0.0216141
0.0238776
0.0264107
0.0282096
0.0299738
0.0313837
-8.74511e-05
0.00292888
-0.00380273
0.00182811
0.00718316
0.00825181
0.00854914
0.00914812
0.00885556
0.0109597
0.0132848
0.0148624
0.0171401
0.0193009
0.0214548
0.0236617
0.0261252
0.0278493
0.0294945
0.0308192
-8.33658e-05
0.00292019
-0.00356714
0.00189696
0.00709755
0.00819602
0.00857595
0.00914412
0.00893453
0.0109388
0.0132903
0.014849
0.0170766
0.0192145
0.0212872
0.0234525
0.025827
0.0274788
0.0290142
0.0302493
-7.79333e-05
0.00291129
-0.0033285
0.00196528
0.00701534
0.00813661
0.00860237
0.00914198
0.00900806
0.0109211
0.0132883
0.0148363
0.017005
0.0191217
0.0211135
0.0232262
0.0255179
0.0270952
0.028533
0.0296758
-7.09829e-05
0.00290214
-0.0030868
0.00203299
0.00693671
0.00807378
0.00862764
0.00914259
0.00907524
0.0109065
0.0132793
0.0148229
0.0169274
0.0190178
0.0209365
0.0229876
0.0252088
0.0266866
0.0280091
0.0291137
-6.23782e-05
0.00289269
-0.00284207
0.00210003
0.00686183
0.00800801
0.00865049
0.00914719
0.00913524
0.0108958
0.0132636
0.0148087
0.0168411
0.0189075
0.0207467
0.0227342
0.0248789
0.0262866
0.0275108
0.0285409
-5.18995e-05
0.00288283
-0.0025943
0.00216628
0.00679064
0.00794022
0.00866976
0.00915608
0.00918806
0.0108884
0.0132422
0.0147919
0.0167481
0.0187871
0.0205491
0.0224552
0.0245292
0.0259345
0.0270339
0.0279553
-3.93981e-05
0.00287257
-0.00234381
0.00223186
0.00672287
0.00787132
0.00868475
0.0091693
0.00923383
0.0108831
0.0132174
0.0147682
0.0166522
0.018653
0.0203504
0.0221703
0.024174
0.0255136
0.0264752
0.0273849
-2.4759e-05
0.00286183
-0.00209065
0.00229676
0.00665868
0.00780164
0.0086947
0.00918688
0.00927354
0.0108764
0.0131917
0.014737
0.0165488
0.0185126
0.0201386
0.0218719
0.0237724
0.0250772
0.0260295
0.026835
-7.50828e-06
0.00285033
-0.00183481
0.0023609
0.00659778
0.00773206
0.00869866
0.00920811
0.00930863
0.0108605
0.013166
0.0146973
0.0164406
0.0183605
0.0199298
0.0215659
0.0233715
0.024606
0.0254409
0.0262953
1.2276e-05
0.00283838
-0.00157707
0.00242453
0.00653915
0.00766507
0.00869541
0.00923362
0.00933734
0.0108487
0.0131373
0.014654
0.0163222
0.0181995
0.019699
0.0212212
0.0229555
0.0241669
0.0249471
0.0257486
3.46635e-05
0.00282584
-0.00131768
0.00248826
0.00648243
0.00760107
0.00868554
0.0092619
0.00936203
0.0108559
0.013107
0.0146087
0.0161891
0.0180233
0.0194413
0.0208732
0.0225199
0.0237555
0.0245719
0.0252015
6.05834e-05
0.00281215
-0.00105654
0.00255169
0.00642774
0.00753946
0.00866992
0.00928949
0.00938856
0.0107786
0.0130788
0.0145538
0.0160464
0.0178414
0.0191974
0.0205202
0.0220912
0.0232511
0.0239555
0.0246893
8.95877e-05
0.00279805
-0.000795005
0.0026156
0.00637334
0.0074837
0.00864685
0.00931867
0.0094133
0.0107203
0.0130415
0.0145012
0.0158893
0.0176269
0.0189382
0.0201681
0.0216406
0.0227771
0.0234802
0.0241773
0.000121626
0.00278341
-0.000533714
0.00268168
0.00631826
0.00743436
0.00861878
0.00934584
0.00943855
0.010727
0.0129937
0.0144523
0.015721
0.0173725
0.0186592
0.01982
0.0211655
0.0223449
0.0231836
0.02367
0.000158172
0.00276759
-0.000272443
0.00274833
0.00626401
0.00738651
0.00858835
0.00936564
0.00947086
0.0106588
0.0129448
0.0143935
0.0155461
0.0171442
0.0183808
0.0194524
0.0207235
0.0217833
0.0225017
0.0231855
0.000198337
0.00275176
-1.32359e-05
0.00281768
0.00620801
0.00734548
0.00855282
0.00938365
0.00950126
0.010605
0.0128824
0.0143329
0.0153578
0.0168623
0.0180829
0.0190908
0.0202688
0.021271
0.0220057
0.0227045
0.000241896
0.00273579
0.000242873
0.00289279
0.0061496
0.00731158
0.00851577
0.00939627
0.00953089
0.0105592
0.0128006
0.014261
0.0151522
0.0165541
0.0177697
0.0187383
0.0197898
0.0208313
0.0217426
0.0222239
0.000291008
0.00271889
0.000496143
0.00296878
0.00609323
0.00727428
0.00848001
0.00939933
0.00956527
0.0104902
0.012711
0.0141919
0.0149593
0.0162397
0.0174561
0.0183712
0.0193409
0.0202124
0.0209643
0.0217373
0.000343888
0.00270302
0.000743777
0.00305052
0.00603484
0.00724363
0.00844158
0.00940063
0.00959088
0.0104338
0.0126082
0.0141055
0.0147543
0.0158997
0.0171148
0.0180024
0.0188834
0.019665
0.0204147
0.0212578
0.000400901
0.00268795
0.00098496
0.00314075
0.00597495
0.00721803
0.00840513
0.00939693
0.00960929
0.0103787
0.0124813
0.0140085
0.0145531
0.0155388
0.0167365
0.01761
0.0183941
0.0192287
0.020154
0.0207742
0.000464142
0.00267333
0.00122013
0.00322856
0.00592204
0.00718076
0.00837476
0.0093809
0.00963329
0.0103073
0.0123391
0.0139057
0.0143978
0.0152397
0.0163455
0.0171663
0.0178907
0.0185701
0.0193128
0.0202946
0.000530738
0.0026613
0.00144668
0.00332376
0.00587179
0.00714456
0.00834342
0.00936018
0.00964973
0.0102343
0.0121826
0.013794
0.0142492
0.0149266
0.015921
0.0166937
0.0173548
0.0179174
0.0187017
0.0198957
0.000602804
0.00265135
0.00166402
0.00342788
0.00582275
0.00711018
0.00830934
0.00933584
0.00965742
0.0101628
0.0120095
0.0136659
0.0140916
0.0146027
0.0154751
0.0162138
0.0168287
0.0173716
0.0181808
0.0194559
0.000680662
0.00264371
0.00187267
0.00352573
0.00578001
0.00707434
0.00827073
0.00930466
0.0096604
0.01009
0.011822
0.0135127
0.0139297
0.0142898
0.0150303
0.0157248
0.0163308
0.0168791
0.0176607
0.0189642
0.000762634
0.00263951
0.00207149
0.00363466
0.00574455
0.00703782
0.00822685
0.00926629
0.00965727
0.0100205
0.0116186
0.0133326
0.0137668
0.0139882
0.0145861
0.0152274
0.0158414
0.0163948
0.0171532
0.0184837
0.00085022
0.00263883
0.00226054
0.00373804
0.00571489
0.00700258
0.00817956
0.00921761
0.00964801
0.00995469
0.0114014
0.0131259
0.0135989
0.0136977
0.0141487
0.0147234
0.0153431
0.0159184
0.016681
0.0180321
0.00094292
0.00264199
0.00244027
0.00383894
0.00569192
0.00697081
0.00812711
0.00915727
0.00963084
0.00989292
0.0111785
0.0128924
0.0134194
0.0134162
0.0137255
0.0142177
0.0148309
0.0154452
0.0162503
0.0176059
0.00104075
0.00264921
0.00261089
0.00393675
0.00567633
0.00694221
0.00807054
0.00908629
0.0096034
0.0098359
0.0109532
0.0126306
0.0132248
0.0131435
0.013322
0.0137142
0.0143071
0.0149764
0.0158294
0.0172006
0.00114353
0.00266089
0.00277317
0.00402996
0.00566441
0.0069186
0.00801401
0.00900442
0.00956154
0.00978247
0.0107311
0.012342
0.0130113
0.0128786
0.0129369
0.0132193
0.0137751
0.0144921
0.0154198
0.016815
0.00125139
0.00267718
0.00292686
0.00411855
0.005652
0.00690002
0.00795781
0.0089115
0.00950392
0.00973196
0.010517
0.0120285
0.0127744
0.0126171
0.0125671
0.0127422
0.0132446
0.0139968
0.0149943
0.0164393
0.00136431
0.00269858
0.0030718
0.00420242
0.00563914
0.00688529
0.00790291
0.00880978
0.00943038
0.00967946
0.0103151
0.0116956
0.0125107
0.0123549
0.0122113
0.0122877
0.0127219
0.0134848
0.0145555
0.0160633
0.00148192
0.00272532
0.00320866
0.00428213
0.00562381
0.00687304
0.00785263
0.00870106
0.00933915
0.00961989
0.0101287
0.0113512
0.0122181
0.0120894
0.0118675
0.0118547
0.0122085
0.0129652
0.0140921
0.0156789
0.00160361
0.00275786
0.00333716
0.00435934
0.00560327
0.00685643
0.00780934
0.00859023
0.00923083
0.00954858
0.00995768
0.011002
0.0118952
0.0118169
0.0115315
0.0114397
0.0117103
0.0124433
0.0136156
0.0152846
0.00172984
0.00279628
0.00345797
0.00443335
0.00557534
0.00683328
0.00777108
0.00848082
0.00910976
0.00946283
0.00979972
0.0106548
0.0115416
0.0115327
0.0112015
0.0110435
0.0112344
0.0119277
0.0131236
0.0148752
0.00186057
0.00284009
0.00357258
0.00450356
0.00555027
0.00680453
0.00772242
0.00837403
0.00898056
0.00936008
0.00965127
0.0103204
0.0111617
0.0112331
0.01088
0.0106632
0.0107767
0.0114189
0.0126259
0.0144567
0.00199378
0.00289101
0.00367955
0.0045727
0.00552115
0.00675749
0.00767445
0.00827503
0.00884552
0.00923756
0.0095049
0.0100049
0.0107635
0.0109133
0.010561
0.01029
0.010335
0.0109239
0.012132
0.0140366
0.00213005
0.00294793
0.00377958
0.00464137
0.00548329
0.0066981
0.00763106
0.00818335
0.00870373
0.00909396
0.00935301
0.00971149
0.0103556
0.0105672
0.0102374
0.00992652
0.00991562
0.0104509
0.0116528
0.0136164
0.0022691
0.00301001
0.00387408
0.00470604
0.0054415
0.00663111
0.00758675
0.00809476
0.0085571
0.00893204
0.00919034
0.00943958
0.00994794
0.0101943
0.00990936
0.00957763
0.00951666
0.00999909
0.011189
0.0131965
0.00240989
0.00307777
0.0039615
0.00476733
0.0054017
0.00655506
0.00753454
0.00800845
0.00841028
0.00875587
0.00901137
0.00918336
0.00955059
0.00980155
0.00957384
0.00923569
0.00913051
0.0095679
0.0107427
0.0127815
0.00255226
0.00314999
0.00404181
0.00482699
0.00536461
0.00646833
0.0074718
0.00792459
0.00826457
0.00856908
0.00881377
0.00893587
0.00917126
0.00939625
0.0092225
0.00889299
0.00876054
0.00916112
0.0103151
0.0123758
0.00269565
0.00322653
0.0041153
0.00488397
0.00533158
0.00637256
0.00739671
0.0078408
0.00812048
0.00837547
0.0085985
0.00869053
0.00881107
0.00898335
0.00885305
0.00855209
0.0084106
0.00877572
0.00990701
0.0119833
0.00283954
0.00330715
0.00418171
0.00493738
0.00530476
0.00627032
0.00730695
0.00775363
0.00797832
0.00817839
0.00836819
0.00844001
0.00846744
0.00857267
0.00847208
0.00821125
0.0080722
0.00840819
0.00952068
0.0116028
0.00298339
0.00339152
0.00424157
0.00498634
0.0052847
0.00616389
0.0072012
0.00766003
0.00783781
0.007981
0.00812656
0.00818022
0.00813939
0.00817334
0.00808319
0.00786105
0.00773734
0.00805887
0.00915347
0.0112316
0.00312672
0.00347938
0.00429544
0.00502955
0.0052709
0.00605616
0.00707973
0.00755715
0.00769796
0.00778492
0.00787748
0.00791086
0.00782217
0.0077859
0.00768804
0.00749919
0.00740542
0.00772556
0.00880273
0.0108729
0.00326896
0.00357041
0.004344
0.00506595
0.00526248
0.00595004
0.00694382
0.00744197
0.00755675
0.00759073
0.00762514
0.00763228
0.00750875
0.00740926
0.00729372
0.00713166
0.00707398
0.00740254
0.00846799
0.0105278
0.00340956
0.0036642
0.00438791
0.00509487
0.00525808
0.00584781
0.00679564
0.00731235
0.00741186
0.00739844
0.00737275
0.00734545
0.00719597
0.00704497
0.006907
0.00676028
0.00673631
0.00708416
0.00814666
0.0101943
0.00354799
0.00376029
0.00442795
0.00511597
0.0052558
0.00575073
0.00663806
0.00716754
0.00726079
0.00720835
0.00712284
0.00705325
0.0068832
0.00669125
0.00652763
0.00638578
0.00639199
0.00676678
0.00783352
0.00987075
0.00368377
0.00385815
0.00446483
0.00512909
0.0052537
0.00565954
0.00647437
0.00700773
0.00710078
0.00701704
0.00687749
0.00675936
0.00656908
0.00634361
0.00615505
0.0060138
0.00604371
0.00644574
0.00752362
0.00955536
0.00381642
0.00395722
0.00449933
0.0051342
0.00524975
0.0055743
0.00630763
0.0068339
0.00693022
0.00682294
0.00663711
0.00646691
0.00625303
0.00600031
0.00579074
0.00564724
0.00569149
0.00611848
0.00721287
0.00924457
0.0039454
0.00405676
0.00453215
0.00513177
0.00524226
0.00549433
0.0061404
0.0066478
0.00674838
0.00662328
0.00640007
0.00617845
0.00593696
0.00566161
0.0054331
0.00528483
0.00533738
0.00578592
0.00689778
0.00893487
0.00407027
0.00415611
0.00456378
0.00512222
0.00522988
0.00541855
0.00597499
0.00645177
0.00655501
0.00641635
0.00616444
0.00589586
0.00562295
0.00532629
0.00507892
0.00492636
0.00498532
0.00545006
0.00657768
0.00862388
0.00419073
0.00425456
0.00459471
0.00510616
0.00521135
0.00534569
0.00581273
0.0062484
0.00635072
0.00620172
0.00592791
0.00561932
0.00531226
0.00499359
0.00472781
0.00457229
0.00463645
0.00511256
0.00625372
0.00831058
0.00430648
0.00435136
0.0046251
0.00508438
0.00518604
0.00527424
0.00565449
0.00604043
0.00613644
0.00597936
0.00568771
0.00534702
0.00500645
0.00466517
0.00438104
0.00422069
0.00428842
0.00477388
0.00592747
0.00799589
0.00441701
0.00444577
0.0046554
0.00505775
0.00515326
0.00520254
0.00550054
0.00583048
0.00591349
0.00574982
0.00544261
0.00507647
0.00470584
0.00434253
0.00403916
0.00387012
0.0039404
0.00443492
0.00560022
0.00768013
0.00452229
0.00453711
0.00468543
0.00502712
0.00511296
0.00512944
0.00535059
0.0056207
0.00568352
0.00551343
0.00519281
0.00480531
0.00440899
0.00402472
0.00370221
0.00352206
0.00359378
0.00409605
0.00527184
0.00736248
0.00462202
0.00462467
0.00471515
0.00499333
0.00506534
0.00505377
0.005204
0.00541302
0.00544828
0.00527021
0.0049391
0.00453289
0.00411457
0.00371021
0.0033703
0.00317766
0.00324803
0.00375618
0.00494186
0.00704324
0.00471601
0.00470764
0.00474434
0.0049576
0.0050108
0.00497473
0.00505986
0.00520832
0.00521012
0.00501968
0.00468165
0.00425903
0.0038213
0.00339864
0.00304318
0.00283729
0.00290314
0.00341542
0.00461004
0.00672226
0.00480414
0.00478573
0.00477249
0.00492042
0.0049501
0.00489201
0.0049173
0.0050067
0.00497249
0.00476275
0.00441942
0.00398344
0.00352756
0.00308818
0.00271858
0.00250064
0.00256011
0.0030741
0.00427563
0.00639796
0.00488637
0.00485838
0.00479936
0.00488266
0.00488387
0.00480541
0.00477566
0.00480729
0.004738
0.00450232
0.00415133
0.00370688
0.00323415
0.00277807
0.00239424
0.00216566
0.00221804
0.00273136
0.00393737
0.00606833
0.00496241
0.0049253
0.00482459
0.00484506
0.00481293
0.00471495
0.00463549
0.00460917
0.00450643
0.00424075
0.0038763
0.00342789
0.00294184
0.00246995
0.00207083
0.00183142
0.00187627
0.00238755
0.00359637
0.00573418
0.00503192
0.00498609
0.00484785
0.00480881
0.00473899
0.00462023
0.00449655
0.00441166
0.00427648
0.00398191
0.00359682
0.00314438
0.00264897
0.00216348
0.0017483
0.00149656
0.00153306
0.0020414
0.00325215
0.00539556
0.0050949
0.00504079
0.00486762
0.00477285
0.00466465
0.00452395
0.00436041
0.00421395
0.00404388
0.00372687
0.00331701
0.00285644
0.00235435
0.00185837
0.00142758
0.00116149
0.00118768
0.00169128
0.00290272
0.00505076
0.00515148
0.00509026
0.00488589
0.00473732
0.00458652
0.0044226
0.00422956
0.00402338
0.00380556
0.00347522
0.00304043
0.00256628
0.00205672
0.00155185
0.00110684
0.000824395
0.000837302
0.00133309
0.00254426
0.00469709
0.00520042
0.00513239
0.00490261
0.00470933
0.00451389
0.00431207
0.00408719
0.00383195
0.00357614
0.00322755
0.00277471
0.00228354
0.0017646
0.00125004
0.000791314
0.00048992
0.000485211
0.0009679
0.00217244
0.00432352
0.00523919
0.00516901
0.00491395
0.00468428
0.00445911
0.00421953
0.00394649
0.00363163
0.00332514
0.00297575
0.00251503
0.0020052
0.00147319
0.000946426
0.000474577
0.000154386
0.000130054
0.000595704
0.00178785
0.00393343
0.00527493
0.00518625
0.00491602
0.00464763
0.0043847
0.00412049
0.00383288
0.00346829
0.00308833
0.00271921
0.0022582
0.00173371
0.00118417
0.000640224
0.000154066
-0.000182416
-0.000225188
0.000222302
0.00140016
0.00353647
0.0053042
0.00525192
0.00496012
0.0046577
0.00431975
0.00394776
0.00360078
0.00326374
0.00289762
0.00250497
0.00203577
0.00149566
0.000918966
0.000347616
-0.000162213
-0.000518883
-0.000576674
-0.000142281
0.00102208
0.00314136
0.00525391
0.00518812
0.00497735
0.00470217
0.00440117
0.00395764
0.00343086
0.00295964
0.00258101
0.0022275
0.0017771
0.0012257
0.000622437
1.7121e-05
-0.000527285
-0.000916277
-0.00100108
-0.000592534
0.000548144
0.00265377
0.00537684
0.00530219
0.00497382
0.00457349
0.00411484
0.00370433
0.00335411
0.00300297
0.00256965
0.00212503
0.00165357
0.00111202
0.000512853
-0.000109947
-0.00070485
-0.00117222
-0.00137026
-0.00108929
-7.37589e-05
0.00191412
0.00533591
0.00529654
0.00490201
0.0045891
0.00420396
0.00363999
0.00306735
0.00262278
0.00220131
0.00177507
0.00128386
0.000745113
0.00016477
-0.000361519
-0.00079084
-0.00106681
-0.00111115
-0.000749931
0.000265389
0.00220036
0.0054914
0.0053042
0.00490038
0.00441385
0.00394917
0.00356978
0.00324137
0.00288885
0.00242996
0.00192328
0.0013684
0.000739988
2.5834e-06
-0.000831805
-0.00168042
-0.00241519
-0.00286958
-0.00282599
-0.00202608
-0.000240723
0.0057216
0.00519942
0.00474206
0.00423386
0.00380973
0.00327965
0.00274814
0.00235222
0.00192852
0.00138903
0.000846775
0.000378006
0.000127061
0.00017918
0.000587626
0.00128537
0.00210293
0.00274531
0.00284334
0.00206664
0.00569302
0.00525044
0.00474456
0.00429049
0.00392724
0.00358589
0.00328802
0.00292617
0.00244344
0.00181566
0.0010584
0.00014804
-0.000905443
-0.00203499
-0.00313403
-0.00409754
-0.00478425
-0.00499266
-0.00446065
-0.00294485
0.00587121
0.00520849
0.00465876
0.00419321
0.00383948
0.00336164
0.00281968
0.00215177
0.00149627
0.00104597
0.000631282
9.26249e-05
-0.000429951
-0.000761032
-0.000763544
-0.000434043
0.000106403
0.000572735
0.000587453
-0.000204002
0.00585795
0.00518852
0.00466523
0.00425713
0.00401832
0.00379871
0.00359131
0.00324106
0.00268774
0.00186383
0.000756733
-0.000696986
-0.00243752
-0.00427735
-0.00596843
-0.00732602
-0.008189
-0.00838759
-0.00770831
-0.00595885
0.0532237
0.0254982
0.0139159
0.0116527
0.0109619
0.00989847
0.0087363
0.00789109
0.00729795
0.00682199
0.0063392
0.00569162
0.00511737
0.00475698
0.00435018
0.00388391
0.00350935
0.00319107
0.00278497
0.00205213
0.00128657
0.000934509
0.000676841
0.000296523
-9.14533e-05
-0.000573469
-0.00112742
-0.00162376
-0.00218703
-0.00274672
-0.0032582
-0.00378599
-0.00442787
-0.00505054
-0.0056571
-0.00629552
-0.00693684
-0.00764705
-0.00832969
-0.00910093
-0.00981623
-0.0106252
-0.0114642
-0.0123103
-0.0133237
-0.0141941
-0.0153803
-0.0164677
-0.0178122
-0.0196761
0.0520866
0.0255424
0.0139626
0.011672
0.0109724
0.00990497
0.00874059
0.00789419
0.00730045
0.00682411
0.00634105
0.0056932
0.00511866
0.00475813
0.00435126
0.0038849
0.00351024
0.00319187
0.00278574
0.00205287
0.0012872
0.000935055
0.000677365
0.000296993
-9.10244e-05
-0.00057307
-0.00112706
-0.00162344
-0.00218673
-0.00274646
-0.00325796
-0.00378577
-0.00442766
-0.00505034
-0.00565692
-0.00629535
-0.00693668
-0.0076469
-0.00832955
-0.0091008
-0.00981611
-0.0106251
-0.0114641
-0.0123102
-0.0133237
-0.014194
-0.0153802
-0.0164677
-0.0178122
-0.0196761
0.0511553
0.0256367
0.0140357
0.0116956
0.0109839
0.00991212
0.00874505
0.00789721
0.00730277
0.00682606
0.00634276
0.00569462
0.00511979
0.00475914
0.00435222
0.00388575
0.00351103
0.0031926
0.00278646
0.00205353
0.00128769
0.000935515
0.000677845
0.000297414
-9.06376e-05
-0.00057271
-0.00112675
-0.00162316
-0.00218647
-0.00274623
-0.00325775
-0.00378556
-0.00442748
-0.00505017
-0.00565676
-0.0062952
-0.00693654
-0.00764677
-0.00832942
-0.00910069
-0.00981601
-0.010625
-0.011464
-0.0123102
-0.0133236
-0.014194
-0.0153802
-0.0164676
-0.0178122
-0.0196762
0.0503268
0.025752
0.0141403
0.0117306
0.0109999
0.00992201
0.00875121
0.00790112
0.00730549
0.00682818
0.00634461
0.00569616
0.00512099
0.00476018
0.00435315
0.00388657
0.00351181
0.00319335
0.0027872
0.00205419
0.00128814
0.000935953
0.000678339
0.000297835
-9.02456e-05
-0.000572343
-0.00112644
-0.00162287
-0.00218621
-0.002746
-0.00325754
-0.00378536
-0.00442729
-0.00505001
-0.0056566
-0.00629505
-0.0069364
-0.00764664
-0.0083293
-0.00910057
-0.0098159
-0.0106249
-0.0114639
-0.0123101
-0.0133235
-0.0141939
-0.0153801
-0.0164676
-0.0178121
-0.0196763
0.0495078
0.0258711
0.01427
0.0117776
0.0110218
0.00993612
0.0087604
0.00790696
0.00730922
0.00683081
0.00634685
0.0056981
0.0051225
0.00476136
0.00435411
0.00388741
0.00351264
0.00319415
0.00278801
0.0020549
0.00128859
0.000936411
0.000678878
0.000298287
-8.98195e-05
-0.000571942
-0.00112611
-0.00162257
-0.00218593
-0.00274576
-0.00325731
-0.00378514
-0.0044271
-0.00504984
-0.00565644
-0.0062949
-0.00693626
-0.00764651
-0.00832918
-0.00910046
-0.00981579
-0.0106248
-0.0114638
-0.01231
-0.0133234
-0.0141938
-0.01538
-0.0164675
-0.0178121
-0.0196764
0.0486802
0.0259901
0.0144137
0.011832
0.0110485
0.00995431
0.00877294
0.00791527
0.00731445
0.0068342
0.00634959
0.00570063
0.00512452
0.00476277
0.0043551
0.00388825
0.00351351
0.00319501
0.0027889
0.00205569
0.00128907
0.000936907
0.000679466
0.000298771
-8.93525e-05
-0.000571499
-0.00112576
-0.00162224
-0.00218562
-0.0027455
-0.00325707
-0.0037849
-0.00442689
-0.00504966
-0.00565626
-0.00629473
-0.0069361
-0.00764636
-0.00832904
-0.00910033
-0.00981568
-0.0106247
-0.0114637
-0.0123099
-0.0133233
-0.0141937
-0.01538
-0.0164674
-0.017812
-0.0196766
0.0478456
0.0261066
0.0145639
0.0118896
0.0110778
0.00997539
0.00878818
0.00792595
0.00732139
0.00683852
0.00635292
0.00570387
0.00512727
0.00476458
0.00435618
0.00388908
0.00351439
0.00319588
0.00278985
0.0020566
0.00128964
0.000937471
0.000680102
0.00029928
-8.88439e-05
-0.000571007
-0.00112536
-0.00162187
-0.00218528
-0.00274521
-0.00325679
-0.00378464
-0.00442667
-0.00504947
-0.00565607
-0.00629456
-0.00693594
-0.00764621
-0.0083289
-0.0091002
-0.00981555
-0.0106246
-0.0114636
-0.0123098
-0.0133233
-0.0141936
-0.0153799
-0.0164673
-0.0178119
-0.0196768
0.0470065
0.0262178
0.0147178
0.0119483
0.0111083
0.00999812
0.00880511
0.00793838
0.00732993
0.00684383
0.00635683
0.0057078
0.00513085
0.00476693
0.00435743
0.00388992
0.00351523
0.00319668
0.00279083
0.00205768
0.00129039
0.000938162
0.000680794
0.0002998
-8.83015e-05
-0.000570462
-0.00112491
-0.00162146
-0.0021849
-0.00274488
-0.00325648
-0.00378434
-0.00442643
-0.00504926
-0.00565587
-0.00629438
-0.00693576
-0.00764605
-0.00832875
-0.00910006
-0.00981542
-0.0106244
-0.0114635
-0.0123097
-0.0133232
-0.0141935
-0.0153798
-0.0164672
-0.0178118
-0.019677
0.0461638
0.0263219
0.014875
0.0120078
0.0111392
0.0100217
0.00882294
0.00795184
0.00733967
0.00685005
0.00636122
0.00571229
0.00513521
0.00476992
0.00435897
0.00389084
0.00351603
0.00319735
0.00279174
0.00205889
0.00129141
0.000939081
0.000681579
0.000300312
-8.77491e-05
-0.000569871
-0.00112441
-0.00162099
-0.00218446
-0.00274451
-0.00325612
-0.003784
-0.00442616
-0.00504903
-0.00565565
-0.00629418
-0.00693558
-0.00764588
-0.00832859
-0.00909992
-0.00981528
-0.0106243
-0.0114634
-0.0123096
-0.013323
-0.0141934
-0.0153796
-0.016467
-0.0178116
-0.0196773
0.0453183
0.0264178
0.015036
0.0120682
0.0111701
0.0100459
0.00884129
0.00796583
0.00735018
0.00685702
0.006366
0.00571713
0.00514016
0.00477355
0.00436089
0.0038919
0.00351682
0.00319783
0.00279245
0.00206016
0.00129271
0.000940347
0.000682535
0.000300811
-8.72267e-05
-0.000569264
-0.00112387
-0.00162046
-0.00218397
-0.00274407
-0.0032557
-0.00378361
-0.00442583
-0.00504876
-0.0056554
-0.00629396
-0.00693537
-0.0076457
-0.00832841
-0.00909976
-0.00981512
-0.0106241
-0.0114633
-0.0123094
-0.0133229
-0.0141933
-0.0153795
-0.0164668
-0.0178113
-0.0196776
0.0444711
0.0265045
0.015201
0.0121296
0.011201
0.0100705
0.00886005
0.00798013
0.00736113
0.00686451
0.00637108
0.00572213
0.00514545
0.0047777
0.00436321
0.00389314
0.00351764
0.00319812
0.00279285
0.00206132
0.00129425
0.000942053
0.000683783
0.000301322
-8.67792e-05
-0.000568688
-0.0011233
-0.00161988
-0.00218341
-0.00274356
-0.00325522
-0.00378315
-0.00442545
-0.00504844
-0.00565511
-0.00629371
-0.00693514
-0.00764549
-0.00832823
-0.00909958
-0.00981495
-0.010624
-0.0114631
-0.0123093
-0.0133228
-0.0141931
-0.0153793
-0.0164665
-0.017811
-0.019678
0.0436236
0.0265809
0.0153698
0.012192
0.0112315
0.0100954
0.00887928
0.00799468
0.00737228
0.00687234
0.00637638
0.00572722
0.00515089
0.00478219
0.00436587
0.00389453
0.0035185
0.00319825
0.00279288
0.00206219
0.00129584
0.000944202
0.000685449
0.000301907
-8.64395e-05
-0.000568205
-0.00112275
-0.00161926
-0.00218278
-0.00274299
-0.00325467
-0.00378262
-0.00442498
-0.00504804
-0.00565477
-0.00629343
-0.00693488
-0.00764526
-0.00832802
-0.0090994
-0.00981477
-0.0106238
-0.0114629
-0.0123091
-0.0133226
-0.0141929
-0.0153791
-0.0164662
-0.0178105
-0.0196783
0.0427777
0.0266461
0.0155418
0.0122551
0.0112612
0.0101204
0.00889906
0.00800953
0.0073835
0.00688031
0.00638185
0.00573235
0.00515638
0.00478685
0.00436877
0.00389604
0.0035194
0.00319826
0.00279254
0.00206266
0.00129727
0.000946679
0.000687601
0.000302643
-8.62196e-05
-0.000567875
-0.00112227
-0.00161863
-0.00218211
-0.00274235
-0.00325408
-0.00378204
-0.00442443
-0.00504755
-0.00565436
-0.0062931
-0.00693459
-0.007645
-0.0083278
-0.0090992
-0.00981458
-0.0106236
-0.0114628
-0.0123089
-0.0133225
-0.0141927
-0.0153789
-0.0164658
-0.0178099
-0.0196787
0.041935
0.0266989
0.0157166
0.0123189
0.0112897
0.0101454
0.00891949
0.00802478
0.0073947
0.00688822
0.0063874
0.00573755
0.00516188
0.00479156
0.00437184
0.00389761
0.00352031
0.00319818
0.00279184
0.00206265
0.00129836
0.00094927
0.000690208
0.000303588
-8.61188e-05
-0.000567742
-0.00112192
-0.00161805
-0.0021814
-0.00274164
-0.00325343
-0.00378143
-0.00442381
-0.00504694
-0.00565387
-0.00629271
-0.00693424
-0.00764469
-0.00832754
-0.00909899
-0.00981438
-0.0106234
-0.0114626
-0.0123087