/*--------------------------------*- C++ -*----------------------------------*\
| =========                 |                                                 |
| \\      /  F ield         | OpenFOAM: The Open Source CFD Toolbox           |
|  \\    /   O peration     | Version:  v2012                                 |
|   \\  /    A nd           | Website:  www.openfoam.com                      |
|    \\/     M anipulation  |                                                 |
\*---------------------------------------------------------------------------*/
FoamFile
{
    version     2.0;
    format      ascii;
    class       surfaceScalarField;
    location    "7.3";
    object      phi;
}
// * * * * * * * * * * * * * * * * * * * * * * * * * * * * * * * * * * * * * //

dimensions      [0 3 -1 0 0 0 0];
oriented        oriented;


internalField   nonuniform List<scalar> 
13830
(
9.21943e-07
-8.44011e-07
9.58377e-07
-1.31105e-06
1.08862e-06
-8.35521e-07
1.00911e-06
2.06486e-06
9.86386e-07
1.72749e-07
1.02453e-06
-5.67309e-07
1.02659e-06
-1.67226e-06
1.03878e-06
-5.27323e-07
1.02472e-06
-2.10242e-07
9.92877e-07
4.08565e-07
9.72827e-07
5.08133e-07
9.79325e-07
5.33537e-07
9.8158e-07
1.1997e-07
9.91993e-07
6.95542e-08
9.97483e-07
-2.05971e-07
9.88378e-07
-2.43108e-07
9.93796e-07
-2.48221e-07
9.74103e-07
-3.38562e-07
9.81232e-07
-1.89394e-07
-2.91738e-07
9.50764e-07
9.58406e-07
-8.29884e-07
9.90008e-07
-1.34266e-06
1.1305e-06
-9.76015e-07
1.07672e-06
2.11864e-06
1.03831e-06
2.11162e-07
1.07105e-06
-6.00045e-07
1.07693e-06
-1.67814e-06
1.0847e-06
-5.35095e-07
1.06877e-06
-1.94311e-07
1.03967e-06
4.37665e-07
1.01038e-06
5.37418e-07
1.02846e-06
5.15465e-07
1.02247e-06
1.25959e-07
1.04214e-06
4.98849e-08
1.03311e-06
-1.96944e-07
1.03399e-06
-2.43984e-07
1.02019e-06
-2.34424e-07
1.01349e-06
-3.31869e-07
1.0026e-06
-1.78502e-07
-2.79833e-07
9.90698e-07
9.94019e-07
-8.1445e-07
1.02194e-06
-1.37058e-06
1.16872e-06
-1.12279e-06
1.15551e-06
2.13185e-06
1.09841e-06
2.68264e-07
1.11447e-06
-6.16105e-07
1.11778e-06
-1.68145e-06
1.13107e-06
-5.48381e-07
1.11214e-06
-1.75382e-07
1.09219e-06
4.5761e-07
1.0562e-06
5.73408e-07
1.07751e-06
4.94157e-07
1.07089e-06
1.32575e-07
1.08654e-06
3.42352e-08
1.07117e-06
-1.81572e-07
1.06987e-06
-2.42686e-07
1.04905e-06
-2.13601e-07
1.04444e-06
-3.27254e-07
1.02922e-06
-1.6329e-07
-2.72496e-07
1.02189e-06
1.02762e-06
-7.94292e-07
1.05356e-06
-1.39652e-06
1.20563e-06
-1.27487e-06
1.23154e-06
2.10594e-06
1.15837e-06
3.41437e-07
1.15336e-06
-6.11093e-07
1.14799e-06
-1.67608e-06
1.16979e-06
-5.70186e-07
1.15222e-06
-1.57806e-07
1.14028e-06
4.69544e-07
1.11098e-06
6.02709e-07
1.12714e-06
4.78001e-07
1.12345e-06
1.36269e-07
1.13111e-06
2.6574e-08
1.11209e-06
-1.62559e-07
1.10606e-06
-2.36649e-07
1.08179e-06
-1.89331e-07
1.07518e-06
-3.20651e-07
1.05867e-06
-1.46781e-07
-2.64488e-07
1.05067e-06
1.05991e-06
-7.66646e-07
1.08554e-06
-1.42215e-06
1.24196e-06
-1.43129e-06
1.29881e-06
2.04909e-06
1.2155e-06
4.24746e-07
1.18717e-06
-5.82761e-07
1.17017e-06
-1.65908e-06
1.19851e-06
-5.98529e-07
1.18884e-06
-1.48134e-07
1.1835e-06
4.74878e-07
1.16942e-06
6.16788e-07
1.18096e-06
4.66462e-07
1.17748e-06
1.39756e-07
1.17857e-06
2.54816e-08
1.15565e-06
-1.39643e-07
1.14511e-06
-2.26105e-07
1.11859e-06
-1.62816e-07
1.10856e-06
-3.10614e-07
1.09192e-06
-1.3014e-07
-2.53882e-07
1.08131e-06
1.09312e-06
-7.3092e-07
1.11914e-06
-1.44818e-06
1.27838e-06
-1.59052e-06
1.35594e-06
1.97153e-06
1.26934e-06
5.11352e-07
1.21801e-06
-5.31437e-07
1.18984e-06
-1.63091e-06
1.22113e-06
-6.29813e-07
1.22382e-06
-1.50829e-07
1.22625e-06
4.72454e-07
1.22806e-06
6.1497e-07
1.23893e-06
4.55595e-07
1.23226e-06
1.46429e-07
1.22818e-06
2.95548e-08
1.20101e-06
-1.12469e-07
1.18653e-06
-2.1162e-07
1.15842e-06
-1.34712e-07
1.14493e-06
-2.97121e-07
1.12848e-06
-1.13696e-07
-2.40547e-07
1.11515e-06
1.13e-06
-6.89225e-07
1.15568e-06
-1.47385e-06
1.31495e-06
-1.7498e-06
1.40413e-06
1.88234e-06
1.31974e-06
5.95745e-07
1.24902e-06
-4.60717e-07
1.21203e-06
-1.59392e-06
1.24374e-06
-6.61523e-07
1.25949e-06
-1.66584e-07
1.27216e-06
4.5979e-07
1.28665e-06
6.0048e-07
1.29913e-06
4.43115e-07
1.2872e-06
1.58359e-07
1.27827e-06
3.8478e-08
1.24697e-06
-8.11643e-08
1.22918e-06
-1.93829e-07
1.20029e-06
-1.05829e-07
1.18403e-06
-2.80854e-07
1.16799e-06
-9.76608e-08
-2.25092e-07
1.15254e-06
1.17268e-06
-6.45718e-07
1.19594e-06
-1.49712e-06
1.35092e-06
-1.90478e-06
1.44528e-06
1.78798e-06
1.36639e-06
6.74633e-07
1.28266e-06
-3.76985e-07
1.23952e-06
-1.55077e-06
1.2708e-06
-6.92804e-07
1.29767e-06
-1.93452e-07
1.32204e-06
4.35418e-07
1.34546e-06
5.7706e-07
1.35912e-06
4.29454e-07
1.34097e-06
1.76508e-07
1.3271e-06
5.23498e-08
1.29233e-06
-4.63921e-08
1.27205e-06
-1.73556e-07
1.24354e-06
-7.73132e-08
1.22544e-06
-2.62755e-07
1.21017e-06
-8.23971e-08
-2.08288e-07
1.19337e-06
1.22175e-06
-6.05115e-07
1.23998e-06
-1.51534e-06
1.38522e-06
-2.05002e-06
1.4808e-06
1.6924e-06
1.40896e-06
7.46476e-07
1.31999e-06
-2.88013e-07
1.27313e-06
-1.50392e-06
1.30383e-06
-7.23498e-07
1.33877e-06
-2.28396e-07
1.37414e-06
4.00054e-07
1.40315e-06
5.48048e-07
1.41618e-06
4.16421e-07
1.39172e-06
2.00967e-07
1.3732e-06
7.08697e-08
1.33621e-06
-9.39703e-09
1.31455e-06
-1.51899e-07
1.28777e-06
-5.05326e-08
1.26881e-06
-2.4379e-07
1.25479e-06
-6.83852e-08
-1.90871e-07
1.23738e-06
1.27633e-06
-5.71171e-07
1.2873e-06
-1.5263e-06
1.41714e-06
-2.17987e-06
1.51142e-06
1.59812e-06
1.44749e-06
8.10413e-07
1.36085e-06
-2.01375e-07
1.31258e-06
-1.45565e-06
1.34211e-06
-7.53032e-07
1.38162e-06
-2.67902e-07
1.42532e-06
3.56352e-07
1.45683e-06
5.16539e-07
1.46762e-06
4.05628e-07
1.43778e-06
2.30813e-07
1.41574e-06
9.29095e-08
1.37833e-06
2.80147e-08
1.35658e-06
-1.30154e-07
1.33288e-06
-2.68282e-08
1.31391e-06
-2.2482e-07
1.30161e-06
-5.60911e-08
-1.7351e-07
1.28425e-06
1.33471e-06
-5.45862e-07
1.33738e-06
-1.52898e-06
1.44687e-06
-2.28936e-06
1.53765e-06
1.50734e-06
1.48266e-06
8.65401e-07
1.40456e-06
-1.2327e-07
1.35708e-06
-1.40817e-06
1.38414e-06
-7.80094e-07
1.42427e-06
-3.08031e-07
1.47252e-06
3.08103e-07
1.5036e-06
4.85462e-07
1.51156e-06
3.97669e-07
1.47834e-06
2.64031e-07
1.45473e-06
1.16516e-07
1.41909e-06
6.36552e-08
1.39856e-06
-1.09625e-07
1.37899e-06
-7.24928e-09
1.3607e-06
-2.06532e-07
1.35042e-06
-4.58164e-08
-1.56771e-07
1.33368e-06
1.39517e-06
-5.29379e-07
1.38997e-06
-1.52378e-06
1.47558e-06
-2.37497e-06
1.56046e-06
1.42247e-06
1.51583e-06
9.10026e-07
1.45052e-06
-5.79523e-08
1.40569e-06
-1.36335e-06
1.42868e-06
-8.03084e-07
1.46536e-06
-3.44709e-07
1.51402e-06
2.59446e-07
1.54215e-06
4.57329e-07
1.54774e-06
3.9208e-07
1.51397e-06
2.978e-07
1.49123e-06
1.39255e-07
1.45957e-06
9.53189e-08
1.44133e-06
-9.13859e-08
1.42643e-06
7.64894e-09
1.40929e-06
-1.89388e-07
1.40109e-06
-3.7618e-08
-1.41065e-07
1.38538e-06
1.45651e-06
-5.20638e-07
1.445e-06
-1.51227e-06
1.5051e-06
-2.43507e-06
1.58176e-06
1.34581e-06
1.54885e-06
9.42934e-07
1.49849e-06
-7.58992e-09
1.4575e-06
-1.32237e-06
1.47521e-06
-8.20786e-07
1.50493e-06
-3.7443e-07
1.55022e-06
2.14151e-07
1.57364e-06
4.3391e-07
1.57795e-06
3.87771e-07
1.54661e-06
3.29136e-07
1.52712e-06
1.58749e-07
1.50121e-06
1.21231e-07
1.4859e-06
-7.60788e-08
1.47566e-06
1.78892e-08
1.4599e-06
-1.73624e-07
1.45359e-06
-3.13135e-08
-1.26609e-07
1.43914e-06
1.51814e-06
-5.17909e-07
1.50243e-06
-1.49655e-06
1.53745e-06
-2.47009e-06
1.6043e-06
1.27896e-06
1.58377e-06
9.63462e-07
1.54856e-06
2.76189e-08
1.51176e-06
-1.28557e-06
1.52379e-06
-8.32814e-07
1.54436e-06
-3.95005e-07
1.58355e-06
1.74962e-07
1.60144e-06
4.16026e-07
1.60564e-06
3.83563e-07
1.57918e-06
3.55598e-07
1.56469e-06
1.73243e-07
1.54551e-06
1.40407e-07
1.53325e-06
-6.38161e-08
1.52716e-06
2.39806e-08
1.51279e-06
-1.59253e-07
1.50803e-06
-2.65598e-08
-1.13421e-07
1.49484e-06
1.58004e-06
-5.19335e-07
1.56206e-06
-1.47857e-06
1.5744e-06
-2.48244e-06
1.63108e-06
1.22228e-06
1.62249e-06
9.72052e-07
1.60104e-06
4.90725e-08
1.56797e-06
-1.2525e-06
1.57478e-06
-8.39625e-07
1.5857e-06
-4.05919e-07
1.61751e-06
1.43149e-07
1.63e-06
4.03537e-07
1.63497e-06
3.78589e-07
1.6148e-06
3.75776e-07
1.60605e-06
1.8199e-07
1.59369e-06
1.52771e-07
1.5841e-06
-5.42322e-08
1.58135e-06
2.67315e-08
1.56821e-06
-1.4611e-07
1.56459e-06
-2.29477e-08
-1.0136e-07
1.55253e-06
1.64246e-06
-5.23255e-07
1.62364e-06
-1.45975e-06
1.61705e-06
-2.47585e-06
1.66452e-06
1.17482e-06
1.66636e-06
9.70208e-07
1.65628e-06
5.91496e-08
1.62596e-06
-1.22218e-06
1.62855e-06
-8.42207e-07
1.63077e-06
-4.08138e-07
1.65542e-06
1.18493e-07
1.66343e-06
3.9553e-07
1.66959e-06
3.7243e-07
1.656e-06
3.89361e-07
1.65266e-06
1.85332e-07
1.64641e-06
1.59025e-07
1.63886e-06
-4.66876e-08
1.63852e-06
2.70719e-08
1.62634e-06
-1.33927e-07
1.62348e-06
-2.00884e-08
-9.02068e-08
1.61233e-06
1.70585e-06
-5.28358e-07
1.68694e-06
-1.44083e-06
1.66571e-06
-2.45462e-06
1.70584e-06
1.13469e-06
1.71598e-06
9.60066e-07
1.71461e-06
6.05133e-08
1.68585e-06
-1.19341e-06
1.68529e-06
-8.41651e-07
1.68066e-06
-4.03507e-07
1.69944e-06
9.97088e-08
1.70434e-06
3.90634e-07
1.71175e-06
3.65015e-07
1.70427e-06
3.96848e-07
1.70513e-06
1.8447e-07
1.70382e-06
1.60335e-07
1.69759e-06
-4.0459e-08
1.69879e-06
2.58743e-08
1.68729e-06
-1.22425e-07
1.68485e-06
-1.76475e-08
-7.97354e-08
1.67437e-06
1.77065e-06
-5.33691e-07
1.75192e-06
-1.4221e-06
1.7201e-06
-2.42281e-06
1.75509e-06
1.09971e-06
1.77131e-06
9.43844e-07
1.77625e-06
5.55731e-08
1.74791e-06
-1.16508e-06
1.7451e-06
-8.38839e-07
1.73566e-06
-3.94067e-07
1.75026e-06
8.51049e-08
1.75353e-06
3.87364e-07
1.7621e-06
3.56444e-07
1.75988e-06
3.99069e-07
1.76334e-06
1.81012e-07
1.76571e-06
1.57965e-07
1.76014e-06
-3.48879e-08
1.76212e-06
2.38961e-08
1.75108e-06
-1.11382e-07
1.74878e-06
-1.53553e-08
-6.97692e-08
1.73882e-06
1.83723e-06
-5.38587e-07
1.81871e-06
-1.40358e-06
1.77963e-06
-2.38373e-06
1.81155e-06
1.06779e-06
1.83195e-06
9.23452e-07
1.84127e-06
4.62481e-08
1.81252e-06
-1.13633e-06
1.80804e-06
-8.34352e-07
1.79553e-06
-3.81563e-07
1.80748e-06
7.31615e-08
1.81046e-06
3.84383e-07
1.82004e-06
3.46858e-07
1.82228e-06
3.96828e-07
1.82682e-06
1.76472e-07
1.83169e-06
1.53095e-07
1.82628e-06
-2.94723e-08
1.82843e-06
2.17408e-08
1.8177e-06
-1.00646e-07
1.81534e-06
-1.30027e-08
-6.0194e-08
1.80577e-06
1.90589e-06
-5.42581e-07
1.88759e-06
-1.38528e-06
1.84378e-06
-2.33991e-06
1.87434e-06
1.03723e-06
1.89741e-06
9.00374e-07
1.90966e-06
3.40009e-08
1.87999e-06
-1.10666e-06
1.87417e-06
-8.28529e-07
1.85988e-06
-3.67279e-07
1.87022e-06
6.28201e-08
1.87398e-06
3.80632e-07
1.8844e-06
3.3643e-07
1.89048e-06
3.90752e-07
1.89498e-06
1.71975e-07
1.90134e-06
1.4673e-07
1.89578e-06
-2.39111e-08
1.89765e-06
1.9873e-08
1.88713e-06
-9.01263e-08
1.88456e-06
-1.04356e-08
-5.09479e-08
1.87532e-06
1.97687e-06
-5.4535e-07
1.95891e-06
-1.36732e-06
1.91223e-06
-2.29323e-06
1.94272e-06
1.00674e-06
1.96732e-06
8.7577e-07
1.98133e-06
1.9987e-08
1.95052e-06
-1.07585e-06
1.94359e-06
-8.21597e-07
1.92842e-06
-3.52114e-07
1.93776e-06
5.34842e-08
1.94304e-06
3.75351e-07
1.95404e-06
3.25429e-07
1.96344e-06
3.81353e-07
1.96724e-06
1.6818e-07
1.9743e-06
1.39663e-07
1.96847e-06
-1.8077e-08
1.96971e-06
1.86281e-08
1.95935e-06
-7.97639e-08
1.95648e-06
-7.56411e-09
-4.20017e-08
1.94753e-06
2.05039e-06
-5.46689e-07
2.03296e-06
-1.34989e-06
1.98483e-06
-2.2451e-06
2.01619e-06
9.7537e-07
2.04136e-06
8.50601e-07
2.05619e-06
5.16348e-09
2.02423e-06
-1.04389e-06
2.01637e-06
-8.13738e-07
2.00102e-06
-3.36763e-07
2.00964e-06
4.48631e-08
2.01694e-06
3.68052e-07
2.02811e-06
3.14262e-07
2.04032e-06
3.69139e-07
2.04315e-06
1.65353e-07
2.05028e-06
1.32524e-07
2.04419e-06
-1.19801e-08
2.04461e-06
1.82096e-08
2.03436e-06
-6.95167e-08
2.03116e-06
-4.36049e-09
-3.33476e-08
2.0225e-06
2.12666e-06
-5.4651e-07
2.10996e-06
-1.33318e-06
2.06142e-06
-2.19656e-06
2.09433e-06
9.42463e-07
2.11926e-06
8.25664e-07
2.13414e-06
-9.70845e-09
2.10117e-06
-1.01092e-06
2.09253e-06
-8.05092e-07
2.0776e-06
-3.21838e-07
2.08564e-06
3.6827e-08
2.09519e-06
3.58494e-07
2.10603e-06
3.0343e-07
2.12047e-06
3.54699e-07
2.12232e-06
1.63504e-07
2.12905e-06
1.25788e-07
2.12279e-06
-5.71468e-09
2.1223e-06
1.86923e-08
2.11216e-06
-5.93731e-08
2.10864e-06
-8.43125e-10
-2.50019e-08
2.1003e-06
2.2059e-06
-5.44831e-07
2.19003e-06
-1.31731e-06
2.14174e-06
-2.14827e-06
2.17659e-06
9.07618e-07
2.20073e-06
8.01523e-07
2.21515e-06
-2.41294e-08
2.18142e-06
-9.77193e-07
2.17202e-06
-7.95697e-07
2.15808e-06
-3.07895e-07
2.16555e-06
2.93548e-08
2.17734e-06
3.46706e-07
2.18742e-06
2.93353e-07
2.20341e-06
3.38705e-07
2.20442e-06
1.62496e-07
2.21044e-06
1.19763e-07
2.20413e-06
5.95402e-10
2.20278e-06
2.00427e-08
2.19278e-06
-4.93706e-08
2.189e-06
2.93779e-09
-1.70053e-08
2.181e-06
2.28831e-06
-5.41752e-07
2.27328e-06
-1.30227e-06
2.22546e-06
-2.10045e-06
2.26237e-06
8.70699e-07
2.28547e-06
7.78423e-07
2.29925e-06
-3.79029e-08
2.26506e-06
-9.43002e-07
2.25481e-06
-7.85453e-07
2.24232e-06
-2.95402e-07
2.24912e-06
2.2553e-08
2.26293e-06
3.32903e-07
2.27198e-06
2.84303e-07
2.28884e-06
3.21842e-07
2.28925e-06
1.62089e-07
2.2944e-06
1.1461e-07
2.28817e-06
6.81951e-09
2.28603e-06
2.21847e-08
2.27617e-06
-3.95124e-08
2.2723e-06
6.81117e-09
-9.39786e-09
2.26469e-06
2.37405e-06
-5.37415e-07
2.35977e-06
-1.28799e-06
2.31229e-06
-2.05297e-06
2.3512e-06
8.31789e-07
2.37332e-06
7.56303e-07
2.3865e-06
-5.10867e-08
2.35222e-06
-9.08725e-07
2.34089e-06
-7.74122e-07
2.33019e-06
-2.84697e-07
2.3361e-06
1.66413e-08
2.35158e-06
3.17423e-07
2.35954e-06
2.76338e-07
2.37666e-06
3.04723e-07
2.37673e-06
1.62015e-07
2.38098e-06
1.10369e-07
2.375e-06
1.27927e-08
2.37201e-06
2.51766e-08
2.36219e-06
-2.9693e-08
2.35865e-06
1.0351e-08
-2.18545e-09
2.35144e-06
2.46323e-06
-5.31964e-07
2.4496e-06
-1.27436e-06
2.40214e-06
-2.00551e-06
2.4428e-06
7.91123e-07
2.46421e-06
7.34895e-07
2.47699e-06
-6.38694e-08
2.44304e-06
-8.74771e-07
2.43031e-06
-7.61388e-07
2.42157e-06
-2.75957e-07
2.42639e-06
1.18233e-08
2.44307e-06
3.00738e-07
2.45011e-06
2.69301e-07
2.467e-06
2.87833e-07
2.46702e-06
1.61993e-07
2.47028e-06
1.07107e-07
2.46481e-06
1.82617e-08
2.46036e-06
2.96294e-08
2.45063e-06
-1.99638e-08
2.4482e-06
1.27838e-08
4.68081e-09
2.44133e-06
2.55596e-06
-5.25528e-07
2.5429e-06
-1.2613e-06
2.4951e-06
-1.9577e-06
2.53723e-06
7.48996e-07
2.55826e-06
7.1386e-07
2.57083e-06
-7.64367e-08
2.53763e-06
-8.41575e-07
2.52315e-06
-7.46899e-07
2.51642e-06
-2.69228e-07
2.52005e-06
8.19267e-09
2.53741e-06
2.83371e-07
2.5438e-06
2.62913e-07
2.56012e-06
2.71517e-07
2.56029e-06
1.6182e-07
2.56264e-06
1.04762e-07
2.55775e-06
2.31494e-08
2.55715e-06
3.02225e-08
2.55014e-06
-1.29515e-08
2.54126e-06
2.1665e-08
1.13697e-08
2.53457e-06
2.65237e-06
-5.18221e-07
2.63979e-06
-1.24872e-06
2.59137e-06
-1.90928e-06
2.63467e-06
7.05703e-07
2.65565e-06
6.92878e-07
2.66809e-06
-8.88836e-08
2.63609e-06
-8.09572e-07
2.61955e-06
-7.30362e-07
2.61475e-06
-2.64425e-07
2.61721e-06
5.73183e-09
2.63477e-06
2.65807e-07
2.64086e-06
2.56823e-07
2.65635e-06
2.56035e-07
2.65679e-06
1.6138e-07
2.65876e-06
1.02787e-07
2.65214e-06
2.9776e-08
2.64719e-06
3.51688e-08
2.63823e-06
-3.9865e-09
2.63702e-06
2.2875e-08
1.69733e-08
2.63141e-06
2.75257e-06
-5.10139e-07
2.7404e-06
-1.23655e-06
2.69117e-06
-1.86006e-06
2.73536e-06
6.61513e-07
2.75656e-06
6.71679e-07
2.76887e-06
-1.01194e-07
2.73846e-06
-7.79157e-07
2.71974e-06
-7.11649e-07
2.71659e-06
-2.61275e-07
2.71812e-06
4.20816e-09
2.73532e-06
2.48607e-07
2.7417e-06
2.50441e-07
2.75579e-06
2.41938e-07
2.7571e-06
1.60076e-07
2.7583e-06
1.01585e-07
2.75102e-06
3.70562e-08
2.74523e-06
4.09608e-08
2.73629e-06
4.95612e-09
2.73695e-06
2.22099e-08
2.21827e-08
2.73174e-06
2.8567e-06
-5.0138e-07
2.84483e-06
-1.22468e-06
2.7947e-06
-1.80992e-06
2.83955e-06
6.1666e-07
2.86119e-06
6.50036e-07
2.87324e-06
-1.13245e-07
2.84471e-06
-7.50621e-07
2.82392e-06
-6.90865e-07
2.82202e-06
-2.59371e-07
2.82299e-06
3.24071e-09
2.83926e-06
2.32337e-07
2.84662e-06
2.43077e-07
2.85872e-06
2.29841e-07
2.86123e-06
1.57565e-07
2.86289e-06
9.99234e-08
2.86258e-06
3.7366e-08
2.86234e-06
4.12069e-08
2.85477e-06
1.25213e-08
2.84186e-06
3.51191e-08
2.83254e-08
2.83572e-06
2.9649e-06
-4.92035e-07
2.95323e-06
-1.21301e-06
2.90213e-06
-1.75882e-06
2.94744e-06
5.71348e-07
2.96973e-06
6.27747e-07
2.9813e-06
-1.24813e-07
2.95484e-06
-7.24165e-07
2.93223e-06
-6.68249e-07
2.93116e-06
-2.58305e-07
2.93193e-06
2.46719e-09
2.94697e-06
2.17296e-07
2.95557e-06
2.34478e-07
2.96586e-06
2.19552e-07
2.96925e-06
1.54177e-07
2.96634e-06
1.02838e-07
2.96039e-06
4.33138e-08
2.95308e-06
4.85177e-08
2.94506e-06
2.05371e-08
2.94828e-06
3.18961e-08
3.23133e-08
2.9443e-06
3.07732e-06
-4.82193e-07
3.06573e-06
-1.20142e-06
3.01365e-06
-1.70674e-06
3.05923e-06
5.25764e-07
3.08236e-06
6.0462e-07
3.09315e-06
-1.356e-07
3.0689e-06
-6.99916e-07
3.04474e-06
-6.44094e-07
3.04417e-06
-2.57732e-07
3.045e-06
1.63818e-09
3.05888e-06
2.0341e-07
3.06821e-06
2.25152e-07
3.07771e-06
2.10055e-07
3.08185e-06
1.50035e-07
3.08367e-06
1.01016e-07
3.08638e-06
4.06102e-08
3.08565e-06
4.92447e-08
3.07804e-06
2.81493e-08
3.06213e-06
4.77985e-08
3.82861e-08
3.05616e-06
3.1941e-06
-4.71933e-07
3.18247e-06
-1.18979e-06
3.12946e-06
-1.65373e-06
3.1751e-06
4.80118e-07
3.1993e-06
5.80425e-07
3.20889e-06
-1.45196e-07
3.18701e-06
-6.78029e-07
3.16152e-06
-6.18613e-07
3.16127e-06
-2.57479e-07
3.16219e-06
7.1848e-10
3.17547e-06
1.90129e-07
3.18391e-06
2.16714e-07
3.19573e-06
1.98236e-07
3.19778e-06
1.47986e-07
3.1997e-06
9.90925e-08
3.18632e-06
5.39937e-08
3.18007e-06
5.54909e-08
3.17308e-06
3.51433e-08
3.17628e-06
4.45952e-08
4.08895e-08
3.17368e-06
3.3154e-06
-4.61318e-07
3.30364e-06
-1.17803e-06
3.24976e-06
-1.59985e-06
3.29524e-06
4.34634e-07
3.3207e-06
5.5497e-07
3.32882e-06
-1.53317e-07
3.30916e-06
-6.58371e-07
3.28295e-06
-5.92401e-07
3.28231e-06
-2.56839e-07
3.28429e-06
-1.26519e-09
3.29601e-06
1.78408e-07
3.30507e-06
2.07657e-07
3.31655e-06
1.8676e-07
3.31287e-06
1.51666e-07
3.31006e-06
1.01894e-07
3.30438e-06
5.96779e-08
3.29962e-06
6.0251e-08
3.29289e-06
4.1877e-08
3.29701e-06
4.04717e-08
4.29487e-08
3.29495e-06
3.44136e-06
-4.50391e-07
3.42943e-06
-1.1661e-06
3.37478e-06
-1.5452e-06
3.41984e-06
3.89567e-07
3.44672e-06
5.28095e-07
3.45331e-06
-1.59909e-07
3.43544e-06
-6.40499e-07
3.40934e-06
-5.66307e-07
3.40727e-06
-2.54762e-07
3.41159e-06
-5.59253e-09
3.42046e-06
1.69539e-07
3.43135e-06
1.96774e-07
3.43839e-06
1.79715e-07
3.44992e-06
1.40138e-07
3.45111e-06
1.00698e-07
3.45389e-06
5.68995e-08
3.45347e-06
6.06725e-08
3.4474e-06
4.79517e-08
3.4256e-06
6.22662e-08
4.87062e-08
3.41984e-06
3.57214e-06
-4.39183e-07
3.56e-06
-1.15396e-06
3.5048e-06
-1.49e-06
3.54904e-06
3.45331e-07
3.57769e-06
4.99444e-07
3.58239e-06
-1.64606e-07
3.5665e-06
-6.24613e-07
3.54012e-06
-5.39927e-07
3.5377e-06
-2.52341e-07
3.54197e-06
-9.86073e-09
3.5523e-06
1.59207e-07
3.55953e-06
1.89548e-07
3.57068e-06
1.6856e-07
3.56784e-06
1.42981e-07
3.56399e-06
1.04543e-07
3.55651e-06
6.43855e-08
3.55252e-06
6.4665e-08
3.54819e-06
5.22738e-08
3.5531e-06
5.73625e-08
5.0263e-08
3.55154e-06
3.70789e-06
-4.27687e-07
3.69555e-06
-1.14162e-06
3.64005e-06
-1.4345e-06
3.68309e-06
3.02294e-07
3.71361e-06
4.68919e-07
3.71662e-06
-1.67616e-07
3.70209e-06
-6.10081e-07
3.67631e-06
-5.1415e-07
3.67251e-06
-2.48539e-07
3.67804e-06
-1.53855e-08
3.68801e-06
1.4923e-07
3.69506e-06
1.825e-07
3.70827e-06
1.55354e-07
3.70216e-06
1.49093e-07
3.69799e-06
1.08704e-07
3.69025e-06
7.21284e-08
3.68634e-06
6.85758e-08
3.68215e-06
5.6468e-08
3.68872e-06
5.07904e-08
5.1636e-08
3.68734e-06
3.84879e-06
-4.1589e-07
3.8363e-06
-1.12913e-06
3.78074e-06
-1.37895e-06
3.82229e-06
2.60749e-07
3.8545e-06
4.36706e-07
3.85644e-06
-1.69559e-07
3.84206e-06
-5.95692e-07
3.81864e-06
-4.90735e-07
3.81139e-06
-2.41283e-07
3.82048e-06
-2.44847e-08
3.82532e-06
1.44393e-07
3.83586e-06
1.71963e-07
3.83986e-06
1.51354e-07
3.86006e-06
1.28895e-07
3.8623e-06
1.06461e-07
3.86545e-06
6.89837e-08
3.86476e-06
6.92652e-08
3.85966e-06
6.1566e-08
3.83354e-06
7.69081e-08
5.86163e-08
3.82656e-06
3.99505e-06
-4.03782e-07
3.98237e-06
-1.11645e-06
3.92726e-06
-1.32384e-06
3.96663e-06
2.21377e-07
4.00102e-06
4.02311e-07
4.00122e-06
-1.69761e-07
3.98814e-06
-5.82604e-07
3.96439e-06
-4.66988e-07
3.95872e-06
-2.35614e-07
3.96413e-06
-2.98958e-08
3.97703e-06
1.31495e-07
3.9846e-06
1.6439e-07
3.9965e-06
1.3946e-07
3.98632e-06
1.39067e-07
3.98114e-06
1.11649e-07
3.97374e-06
7.63808e-08
3.96992e-06
7.3083e-08
3.96802e-06
6.34631e-08
3.97571e-06
6.92231e-08
6.00619e-08
3.97426e-06
4.14683e-06
-3.91329e-07
4.13399e-06
-1.10361e-06
4.0797e-06
-1.26955e-06
4.11664e-06
1.84438e-07
4.15279e-06
3.66163e-07
4.15193e-06
-1.68901e-07
4.1391e-06
-5.69769e-07
4.11642e-06
-4.4431e-07
4.11076e-06
-2.29958e-07
4.1147e-06
-3.3831e-08
4.12931e-06
1.16879e-07
4.12406e-06
1.69649e-07
4.13108e-06
1.32436e-07
4.13417e-06
1.3598e-07
4.13142e-06
1.14391e-07
4.12381e-06
8.39963e-08
4.11987e-06
7.70259e-08
4.11764e-06
6.56865e-08
4.12725e-06
5.96194e-08
6.14001e-08
4.12591e-06
4.30436e-06
-3.78503e-07
4.2914e-06
-1.09065e-06
4.2382e-06
-1.21636e-06
4.27276e-06
1.49878e-07
4.30964e-06
3.29283e-07
4.30939e-06
-1.68643e-07
4.29414e-06
-5.54524e-07
4.27621e-06
-4.26376e-07
4.26584e-06
-2.19592e-07
4.27399e-06
-4.19767e-08
4.27946e-06
1.11401e-07
4.29843e-06
1.50683e-07
4.30717e-06
1.237e-07
4.31933e-06
1.23816e-07
4.3211e-06
1.12624e-07
4.32635e-06
7.8741e-08
4.32594e-06
7.74418e-08
4.31895e-06
7.26711e-08
4.29042e-06
8.8148e-08
7.03631e-08
4.28146e-06
4.46791e-06
-3.65323e-07
4.45467e-06
-1.07741e-06
4.40328e-06
-1.16498e-06
4.4346e-06
1.1856e-07
4.47308e-06
2.90809e-07
4.47173e-06
-1.67295e-07
4.45785e-06
-5.40648e-07
4.43765e-06
-4.06174e-07
4.43225e-06
-2.14195e-07
4.4331e-06
-4.28216e-08
4.45127e-06
9.32316e-08
4.44465e-06
1.57301e-07
4.44949e-06
1.1886e-07
4.44973e-06
1.2357e-07
4.44898e-06
1.13375e-07
4.44167e-06
8.60552e-08
4.43838e-06
8.07246e-08
4.43769e-06
7.33617e-08
4.44783e-06
7.8007e-08
7.1531e-08
4.44667e-06
4.63765e-06
-3.51761e-07
4.62413e-06
-1.06389e-06
4.5747e-06
-1.11554e-06
4.60327e-06
8.99867e-08
4.64189e-06
2.52184e-07
4.64143e-06
-1.66831e-07
4.62565e-06
-5.24866e-07
4.60804e-06
-3.88567e-07
4.60138e-06
-2.07534e-07
4.59959e-06
-4.10353e-08
4.61203e-06
8.07945e-08
4.61325e-06
1.56086e-07
4.61938e-06
1.12723e-07
4.6162e-06
1.26751e-07
4.61719e-06
1.1239e-07
4.61041e-06
9.28322e-08
4.60692e-06
8.42188e-08
4.60535e-06
7.49253e-08
4.61718e-06
6.61751e-08
7.2498e-08
4.61622e-06
4.81386e-06
-3.37834e-07
4.80004e-06
-1.05007e-06
4.75251e-06
-1.06801e-06
4.77913e-06
6.33601e-08
4.81595e-06
2.15368e-07
4.81993e-06
-1.70815e-07
4.79717e-06
-5.02107e-07
4.78904e-06
-3.8043e-07
4.77189e-06
-1.90388e-07
4.78498e-06
-5.41206e-08
4.78273e-06
8.3044e-08
4.79466e-06
1.4415e-07
4.79763e-06
1.0976e-07
4.82678e-06
9.75952e-08
4.83586e-06
1.03309e-07
4.8432e-06
8.54927e-08
4.84238e-06
8.50429e-08
4.83231e-06
8.49891e-08
4.80073e-06
9.77636e-08
8.3601e-08
4.78962e-06
4.99684e-06
-3.23607e-07
4.98245e-06
-1.03567e-06
4.93753e-06
-1.02309e-06
4.96108e-06
3.9816e-08
4.99848e-06
1.77963e-07
5.0008e-06
-1.73133e-07
4.98171e-06
-4.83013e-07
4.96814e-06
-3.66863e-07
4.95633e-06
-1.78582e-07
4.95899e-06
-5.67747e-08
4.96656e-06
7.54757e-08
4.97105e-06
1.3966e-07
4.97143e-06
1.09379e-07
4.97209e-06
9.69284e-08
4.97292e-06
1.02487e-07
4.96984e-06
8.85675e-08
4.96282e-06
9.20625e-08
4.96238e-06
8.54282e-08
4.97502e-06
8.513e-08
8.41409e-08
4.97448e-06
5.18679e-06
-3.09087e-07
5.17189e-06
-1.02077e-06
5.12915e-06
-9.80359e-07
5.15085e-06
1.81161e-08
5.18704e-06
1.41779e-07
5.18925e-06
-1.75343e-07
5.17298e-06
-4.66741e-07
5.15449e-06
-3.48381e-07
5.14957e-06
-1.7366e-07
5.14505e-06
-5.22583e-08
5.1578e-06
6.27342e-08
5.15755e-06
1.39904e-07
5.16014e-06
1.06789e-07
5.15984e-06
9.7233e-08
5.1622e-06
1.00129e-07
5.15809e-06
9.26725e-08
5.15916e-06
9.09968e-08
5.15982e-06
8.47667e-08
5.16237e-06
8.25738e-08
8.22175e-08
5.1643e-06
5.38403e-06
-2.94339e-07
5.36855e-06
-1.00529e-06
5.32778e-06
-9.39587e-07
5.34857e-06
-2.67762e-09
5.38158e-06
1.08773e-07
5.38651e-06
-1.80276e-07
5.36836e-06
-4.48588e-07
5.35193e-06
-3.3195e-07
5.34327e-06
-1.65008e-07
5.34179e-06
-5.07783e-08
5.3515e-06
5.30275e-08
5.35429e-06
1.37111e-07
5.35449e-06
1.06593e-07
5.35587e-06
9.58484e-08
5.35742e-06
9.8588e-08
5.35661e-06
9.34754e-08
5.35766e-06
8.99485e-08
5.35791e-06
8.45206e-08
5.35816e-06
8.23225e-08
7.97518e-08
5.36062e-06
5.58885e-06
-2.79446e-07
5.57262e-06
-9.89066e-07
5.53397e-06
-9.00938e-07
5.55383e-06
-2.25408e-08
5.58408e-06
7.85257e-08
5.58997e-06
-1.86162e-07
5.57194e-06
-4.30555e-07
5.55636e-06
-3.16376e-07
5.54633e-06
-1.54974e-07
5.5453e-06
-4.97465e-08
5.55374e-06
4.45807e-08
5.55835e-06
1.32499e-07
5.55729e-06
1.07659e-07
5.55916e-06
9.39771e-08
5.56065e-06
9.71023e-08
5.56158e-06
9.25421e-08
5.56074e-06
9.07879e-08
5.55922e-06
8.60426e-08
5.5619e-06
7.96373e-08
7.72571e-08
5.5644e-06
5.80148e-06
-2.64447e-07
5.7846e-06
-9.72186e-07
5.74768e-06
-8.64014e-07
5.76764e-06
-4.25006e-08
5.79414e-06
5.20267e-08
5.80102e-06
-1.93041e-07
5.78305e-06
-4.12588e-07
5.76854e-06
-3.01871e-07
5.75773e-06
-1.44159e-07
5.75624e-06
-4.82576e-08
5.76387e-06
3.69528e-08
5.77012e-06
1.2625e-07
5.76841e-06
1.09363e-07
5.77025e-06
9.21358e-08
5.77165e-06
9.57106e-08
5.77345e-06
9.07409e-08
5.7733e-06
9.09381e-08
5.77486e-06
8.44807e-08
5.77354e-06
8.09563e-08
7.49508e-08
5.77585e-06
6.02227e-06
-2.49417e-07
6.00467e-06
-9.54591e-07
5.96938e-06
-8.28717e-07
5.98989e-06
-6.30113e-08
6.01284e-06
2.90756e-08
6.01961e-06
-1.99812e-07
6.00202e-06
-3.94998e-07
5.98869e-06
-2.88539e-07
5.97773e-06
-1.33203e-07
5.97521e-06
-4.57356e-08
5.98221e-06
2.99486e-08
5.98981e-06
1.18655e-07
5.98793e-06
1.11235e-07
5.98956e-06
9.05059e-08
5.99077e-06
9.45083e-08
5.99285e-06
8.86531e-08
5.99236e-06
9.14364e-08
5.98995e-06
8.68907e-08
5.99327e-06
7.76293e-08
7.29079e-08
5.99532e-06
6.2515e-06
-2.34415e-07
6.23317e-06
-9.36261e-07
6.19947e-06
-7.95017e-07
6.22037e-06
-8.39125e-08
6.24055e-06
8.89734e-09
6.24605e-06
-2.05315e-07
6.22926e-06
-3.78204e-07
6.21701e-06
-2.76295e-07
6.20649e-06
-1.22684e-07
6.20281e-06
-4.20547e-08
6.20899e-06
2.37682e-08
6.21773e-06
1.09914e-07
6.21604e-06
1.12927e-07
6.21735e-06
8.91965e-08
6.21821e-06
9.36515e-08
6.22052e-06
8.63406e-08
6.22193e-06
9.00254e-08
6.22506e-06
8.3767e-08
6.22191e-06
8.07756e-08
7.17511e-08
6.22307e-06
6.48951e-06
-2.19519e-07
6.4704e-06
-9.17148e-07
6.43828e-06
-7.62905e-07
6.45903e-06
-1.04664e-07
6.4776e-06
-9.67222e-09
6.48093e-06
-2.0864e-07
6.4652e-06
-3.62471e-07
6.45375e-06
-2.64853e-07
6.44413e-06
-1.13057e-07
6.43948e-06
-3.74048e-08
6.44448e-06
1.87608e-08
6.45414e-06
1.0026e-07
6.45297e-06
1.14092e-07
6.45388e-06
8.82931e-08
6.45464e-06
9.28886e-08
6.45663e-06
8.43475e-08
6.45752e-06
8.91345e-08
6.45561e-06
8.56826e-08
6.4589e-06
7.74867e-08
7.09853e-08
6.45966e-06
6.73661e-06
-2.04791e-07
6.71667e-06
-8.97202e-07
6.68621e-06
-7.32445e-07
6.70634e-06
-1.24794e-07
6.72409e-06
-2.74269e-08
6.72527e-06
-2.09816e-07
6.71004e-06
-3.47245e-07
6.69932e-06
-2.54135e-07
6.6909e-06
-1.0463e-07
6.68561e-06
-3.21185e-08
6.689e-06
1.53743e-08
6.69931e-06
8.99428e-08
6.69901e-06
1.14391e-07
6.69947e-06
8.78361e-08
6.7003e-06
9.20634e-08
6.70178e-06
8.28623e-08
6.70452e-06
8.63954e-08
6.70771e-06
8.24912e-08
6.70533e-06
7.9868e-08
7.0959e-08
6.70536e-06
6.99317e-06
-1.90308e-07
6.97231e-06
-8.76351e-07
6.94359e-06
-7.03722e-07
6.96263e-06
-1.43831e-07
6.98044e-06
-4.52337e-08
6.9797e-06
-2.09082e-07
6.96426e-06
-3.31802e-07
6.95408e-06
-2.43961e-07
6.94694e-06
-9.7482e-08
6.94147e-06
-2.66541e-08
6.943e-06
1.3851e-08
6.95362e-06
7.93186e-08
6.95451e-06
1.13499e-07
6.95447e-06
8.78811e-08
6.95553e-06
9.10022e-08
6.95641e-06
8.19836e-08
6.95842e-06
8.43804e-08
6.95733e-06
8.35871e-08
6.96074e-06
7.64522e-08
7.10575e-08
6.96064e-06
7.25952e-06
-1.76138e-07
7.23766e-06
-8.54492e-07
7.21083e-06
-6.76891e-07
7.22843e-06
-1.61425e-07
7.24807e-06
-6.48813e-08
7.2445e-06
-2.05505e-07
7.22827e-06
-3.15573e-07
7.21847e-06
-2.34165e-07
7.21257e-06
-9.1581e-08
7.2074e-06
-2.14815e-08
7.20705e-06
1.41947e-08
7.21743e-06
6.89387e-08
7.21975e-06
1.11184e-07
7.21921e-06
8.84242e-08
7.22055e-06
8.96543e-08
7.22088e-06
8.16539e-08
7.22408e-06
8.11836e-08
7.22728e-06
8.03906e-08
7.22607e-06
7.7654e-08
7.13347e-08
7.2258e-06
7.53604e-06
-1.62344e-07
7.51313e-06
-8.31587e-07
7.4882e-06
-6.5196e-07
7.50418e-06
-1.77402e-07
7.52589e-06
-8.65961e-08
7.51915e-06
-1.98767e-07
7.50265e-06
-2.99073e-07
7.49291e-06
-2.24427e-07
7.48802e-06
-8.66828e-08
7.48357e-06
-1.70353e-08
7.48164e-06
1.61226e-08
7.49113e-06
5.94493e-08
7.49501e-06
1.07303e-07
7.49404e-06
8.93971e-08
7.49574e-06
8.79527e-08
7.49573e-06
8.16663e-08
7.49795e-06
7.89648e-08
7.49744e-06
8.08986e-08
7.50112e-06
7.39718e-08
7.1218e-08
7.50124e-06
7.82309e-06
-1.48974e-07
7.79935e-06
-8.07856e-07
7.77579e-06
-6.28398e-07
7.79068e-06
-1.92289e-07
7.80726e-06
-1.03177e-07
7.8036e-06
-1.95108e-07
7.78801e-06
-2.83481e-07
7.77774e-06
-2.14159e-07
7.77376e-06
-8.27016e-08
7.77035e-06
-1.36244e-08
7.76725e-06
1.92203e-08
7.77515e-06
5.15482e-08
7.78064e-06
1.01818e-07
7.77946e-06
9.05743e-08
7.7814e-06
8.60163e-08
7.78117e-06
8.18893e-08
7.78389e-06
7.62505e-08
7.78698e-06
7.78051e-08
7.7867e-06
7.42504e-08
7.07961e-08
7.78713e-06
8.12107e-06
-1.36081e-07
8.09644e-06
-7.83224e-07
8.07407e-06
-6.06035e-07
8.08872e-06
-2.06941e-07
8.11228e-06
-1.26727e-07
8.11488e-06
-1.97711e-07
8.08667e-06
-2.55275e-07
8.07329e-06
-2.00774e-07
8.0701e-06
-7.95119e-08
8.06786e-06
-1.13873e-08
8.06417e-06
2.29081e-08
8.06999e-06
4.57331e-08
8.07692e-06
9.48832e-08
8.07592e-06
9.15772e-08
8.07785e-06
8.40812e-08
8.07771e-06
8.20331e-08
8.07919e-06
7.47699e-08
8.0795e-06
7.74933e-08
8.08299e-06
7.07602e-08
6.97907e-08
8.084e-06
8.43044e-06
-1.23755e-07
8.40412e-06
-7.56908e-07
8.38439e-06
-5.86304e-07
8.39645e-06
-2.19005e-07
8.41722e-06
-1.47497e-07
8.4093e-06
-1.89792e-07
8.39142e-06
-2.3739e-07
8.38074e-06
-1.90097e-07
8.37784e-06
-7.66101e-08
8.37663e-06
-1.01782e-08
8.37294e-06
2.65941e-08
8.37638e-06
4.23011e-08
8.38427e-06
8.69892e-08
8.3838e-06
9.20444e-08
8.38545e-06
8.2432e-08
8.38557e-06
8.19168e-08
8.38705e-06
7.32903e-08
8.38963e-06
7.4911e-08
8.39067e-06
6.97243e-08
6.83596e-08
8.3921e-06
8.7515e-06