/*--------------------------------*- C++ -*----------------------------------*\
| =========                 |                                                 |
| \\      /  F ield         | OpenFOAM: The Open Source CFD Toolbox           |
|  \\    /   O peration     | Version:  v2012                                 |
|   \\  /    A nd           | Website:  www.openfoam.com                      |
|    \\/     M anipulation  |                                                 |
\*---------------------------------------------------------------------------*/
FoamFile
{
    version     2.0;
    format      ascii;
    class       volVectorField;
    location    "7.3";
    object      U;
}
// * * * * * * * * * * * * * * * * * * * * * * * * * * * * * * * * * * * * * //

dimensions      [0 1 -1 0 0 0 0];


internalField   nonuniform List<vector> 
7000
(
(0.718548 -0.00683256 0)
(1.22246 -0.0115886 0)
(0.839174 -0.00746169 0)
(1.45531 0.0233683 0)
(0.742908 0.00195843 0)
(1.3265 -0.00797103 0)
(0.884511 -0.0275815 0)
(1.28581 -0.00961067 0)
(0.948649 -0.00462421 0)
(1.22621 0.00927569 0)
(0.90838 0.0132366 0)
(1.15561 0.0161723 0)
(0.945116 0.0041052 0)
(1.14186 0.00298938 0)
(0.980653 -0.00892527 0)
(1.14331 -0.0121211 0)
(0.971262 -0.013785 0)
(1.1439 -0.0217403 0)
(0.938406 -0.0134062 0)
(1.14904 -0.0236923 0)
(0.741981 -0.00668684 0)
(1.20388 -0.0119259 0)
(0.847716 -0.00916813 0)
(1.44436 0.0237472 0)
(0.810089 0.00243563 0)
(1.29492 -0.0085694 0)
(0.927505 -0.0277405 0)
(1.26931 -0.00987793 0)
(0.976182 -0.00430664 0)
(1.21042 0.00996111 0)
(0.942121 0.0139192 0)
(1.12517 0.015957 0)
(0.996495 0.00418687 0)
(1.10222 0.00234464 0)
(1.04091 -0.00884477 0)
(1.08486 -0.0119944 0)
(1.03968 -0.0134297 0)
(1.06022 -0.0212157 0)
(1.01975 -0.0125991 0)
(1.04545 -0.0239906 0)
(0.778003 -0.00656528 0)
(1.17068 -0.0122391 0)
(0.866311 -0.0107447 0)
(1.41927 0.024406 0)
(0.903121 0.00310143 0)
(1.25127 -0.00895316 0)
(0.971065 -0.0278289 0)
(1.23085 -0.010103 0)
(1.01983 -0.00392758 0)
(1.17708 0.0106969 0)
(0.995914 0.0149175 0)
(1.09163 0.0153354 0)
(1.04467 0.00441411 0)
(1.07778 0.00156207 0)
(1.07129 -0.00829271 0)
(1.05603 -0.0120224 0)
(1.05876 -0.0125169 0)
(1.0248 -0.0206521 0)
(1.03781 -0.0122073 0)
(1.00734 -0.0224995 0)
(0.820909 -0.00643276 0)
(1.12538 -0.0124833 0)
(0.893267 -0.0122375 0)
(1.38215 0.0245552 0)
(0.993821 0.00395872 0)
(1.20395 -0.00903419 0)
(1.00656 -0.0277937 0)
(1.17758 -0.0104507 0)
(1.05935 -0.00348274 0)
(1.13833 0.0110896 0)
(1.04202 0.0158467 0)
(1.07744 0.0147095 0)
(1.07265 0.00457887 0)
(1.07471 0.00110664 0)
(1.07967 -0.00753077 0)
(1.04927 -0.0118657 0)
(1.05666 -0.0111931 0)
(1.01376 -0.0203848 0)
(1.03241 -0.0110749 0)
(0.99396 -0.0215374 0)
(0.865595 -0.00624513 0)
(1.0743 -0.0127137 0)
(0.924368 -0.0137733 0)
(1.33843 0.0240714 0)
(1.06802 0.00498024 0)
(1.16122 -0.00879475 0)
(1.02683 -0.0275727 0)
(1.12265 -0.0109344 0)
(1.08071 -0.0031545 0)
(1.10717 0.0112504 0)
(1.06933 0.0164486 0)
(1.08171 0.0142978 0)
(1.08769 0.00469747 0)
(1.08142 0.00094981 0)
(1.0813 -0.00660896 0)
(1.05029 -0.0114379 0)
(1.05064 -0.00977024 0)
(1.01148 -0.0198631 0)
(1.02238 -0.0098304 0)
(0.990015 -0.0206761 0)
(0.907081 -0.00598911 0)
(1.02597 -0.0129504 0)
(0.954219 -0.0153745 0)
(1.29427 0.0232161 0)
(1.12005 0.00609251 0)
(1.1282 -0.00820821 0)
(1.03205 -0.0271723 0)
(1.07682 -0.0114902 0)
(1.08302 -0.00306887 0)
(1.08828 0.0112939 0)
(1.08222 0.0166232 0)
(1.09437 0.0139863 0)
(1.09809 0.00486943 0)
(1.0893 0.00101918 0)
(1.08224 -0.00550259 0)
(1.052 -0.0108097 0)
(1.04577 -0.00823543 0)
(1.01109 -0.0191032 0)
(1.01406 -0.00862826 0)
(0.988551 -0.0196982 0)
(0.941695 -0.00567347 0)
(0.988052 -0.0131914 0)
(0.977989 -0.0170087 0)
(1.25418 0.0221967 0)
(1.15009 0.00721178 0)
(1.1054 -0.00729973 0)
(1.02747 -0.0266237 0)
(1.04399 -0.0120573 0)
(1.07382 -0.00326288 0)
(1.0792 0.0111523 0)
(1.08903 0.0163981 0)
(1.10787 0.0136454 0)
(1.107 0.00518278 0)
(1.09475 0.00127574 0)
(1.08283 -0.00421648 0)
(1.05204 -0.0100051 0)
(1.04207 -0.0066326 0)
(1.01059 -0.0181526 0)
(1.00835 -0.00746777 0)
(0.987657 -0.0185492 0)
(0.967826 -0.00532571 0)
(0.964722 -0.0134196 0)
(0.992831 -0.0186281 0)
(1.21963 0.0211001 0)
(1.16162 0.00827428 0)
(1.0901 -0.00614646 0)
(1.01939 -0.0259627 0)
(1.02253 -0.0126211 0)
(1.06151 -0.00372508 0)
(1.0753 0.0107255 0)
(1.09475 0.0158723 0)
(1.11855 0.0132423 0)
(1.11381 0.00569841 0)
(1.09651 0.00171772 0)
(1.08167 -0.00276782 0)
(1.04987 -0.00905759 0)
(1.0384 -0.00502425 0)
(1.00976 -0.0170586 0)
(1.0045 -0.00635784 0)
(0.987233 -0.0172617 0)
(0.985752 -0.00498268 0)
(0.955823 -0.0136111 0)
(0.998455 -0.0201785 0)
(1.18949 0.0199763 0)
(1.15916 0.00924944 0)
(1.07865 -0.00485832 0)
(1.01228 -0.0252235 0)
(1.00885 -0.0131939 0)
(1.05082 -0.00440547 0)
(1.07273 0.00999556 0)
(1.09966 0.0151439 0)
(1.12435 0.0128206 0)
(1.11658 0.006439 0)
(1.09393 0.0023478 0)
(1.07758 -0.00119241 0)
(1.04553 -0.00801764 0)
(1.03399 -0.00347673 0)
(1.00867 -0.0158798 0)
(1.00165 -0.00532436 0)
(0.987376 -0.0158912 0)
(0.996926 -0.00467964 0)
(0.957909 -0.013742 0)
(0.996762 -0.0215958 0)
(1.16146 0.0188657 0)
(1.14687 0.0101252 0)
(1.06831 -0.0035523 0)
(1.00788 -0.0244403 0)
(1.00006 -0.013772 0)
(1.04239 -0.00522623 0)
(1.0689 0.0090176 0)
(1.10144 0.0142976 0)
(1.12363 0.0124426 0)
(1.11366 0.00737758 0)
(1.08678 0.00313839 0)
(1.07021 0.000443599 0)
(1.03933 -0.00694404 0)
(1.02865 -0.00206479 0)
(1.00735 -0.0146734 0)
(0.999299 -0.00439837 0)
(0.987981 -0.0144969 0)
(1.00321 -0.00444049 0)
(0.966289 -0.0137965 0)
(0.990839 -0.0228185 0)
(1.13355 0.0177957 0)
(1.1281 0.0108912 0)
(1.05784 -0.00233166 0)
(1.00588 -0.0236479 0)
(0.994535 -0.0143229 0)
(1.03481 -0.00609681 0)
(1.06219 0.00788258 0)
(1.0976 0.0134214 0)
(1.11542 0.0121415 0)
(1.10443 0.00846452 0)
(1.07547 0.00403255 0)
(1.05999 0.00205426 0)
(1.0319 -0.00589418 0)
(1.02264 -0.000860919 0)
(1.0058 -0.0134892 0)
(0.997205 -0.00360519 0)
(0.98879 -0.013131 0)
(1.00631 -0.00427378 0)
(0.976804 -0.0137742 0)
(0.983777 -0.0238031 0)
(1.10498 0.0167881 0)
(1.10557 0.011533 0)
(1.04725 -0.00127345 0)
(1.00518 -0.0228799 0)
(0.991351 -0.0148028 0)
(1.02683 -0.00692748 0)
(1.0521 0.00669732 0)
(1.08712 0.0125967 0)
(1.10013 0.0119259 0)
(1.08954 0.00962163 0)
(1.06114 0.00494451 0)
(1.04799 0.00353813 0)
(1.02407 -0.00492681 0)
(1.01646 8.60693e-05 0)
(1.00406 -0.0123644 0)
(0.995338 -0.00295735 0)
(0.989521 -0.0118353 0)
(1.00755 -0.00417547 0)
(0.986665 -0.0136877 0)
(0.9778 -0.0245272 0)
(1.07635 0.0158642 0)
(1.08174 0.0120346 0)
(1.03713 -0.000423281 0)
(1.00478 -0.0221645 0)
(0.989777 -0.0151807 0)
(1.01819 -0.0076346 0)
(1.03925 0.00556444 0)
(1.07096 0.0118883 0)
(1.07976 0.0117756 0)
(1.07082 0.0107511 0)
(1.04553 0.00577389 0)
(1.03558 0.00480629 0)
(1.01667 -0.00408927 0)
(1.0107 0.000765665 0)
(1.00224 -0.0113229 0)
(0.993778 -0.00245106 0)
(0.989976 -0.0106362 0)
(1.00783 -0.00413336 0)
(0.994472 -0.0135566 0)
(0.973924 -0.0249914 0)
(1.04924 0.0150446 0)
(1.05888 0.0123776 0)
(1.02813 0.000199898 0)
(1.00409 -0.0215176 0)
(0.989108 -0.0154488 0)
(1.00948 -0.00815901 0)
(1.02518 0.00455985 0)
(1.05163 0.0113358 0)
(1.05734 0.0116513 0)
(1.05079 0.0117537 0)
(1.03051 0.00643414 0)
(1.02413 0.00579381 0)
(1.01032 -0.00340174 0)
(1.00586 0.00119895 0)
(1.00043 -0.010376 0)
(0.992623 -0.00206626 0)
(0.990098 -0.00954058 0)
(1.00772 -0.0041323 0)
(0.999845 -0.0134001 0)
(0.972134 -0.0252162 0)
(1.02541 0.0143392 0)
(1.03885 0.012559 0)
(1.02067 0.000605568 0)
(1.00297 -0.0209407 0)
(0.98874 -0.0156141 0)
(1.00152 -0.00847684 0)
(1.01172 0.00372518 0)
(1.03222 0.0109443 0)
(1.03603 0.0115151 0)
(1.03202 0.01256 0)
(1.01761 0.00687957 0)
(1.01466 0.0064694 0)
(1.00535 -0.002861 0)
(1.00222 0.00143666 0)
(0.998786 -0.00951457 0)
(0.991917 -0.001773 0)
(0.989972 -0.00854233 0)
(1.00753 -0.00415741 0)
(1.00301 -0.0132332 0)
(0.97183 -0.0252351 0)
(1.00613 0.0137435 0)
(1.02275 0.0125972 0)
(1.01489 0.000825548 0)
(1.00155 -0.020422 0)
(0.988268 -0.0156921 0)
(0.994927 -0.00859836 0)
(1.00027 0.0030675 0)
(1.01527 0.0106893 0)
(1.01823 0.0113473 0)
(1.01644 0.0131408 0)
(1.00772 0.00710596 0)
(1.00765 0.00685373 0)
(1.0018 -0.00243909 0)
(0.999813 0.00151009 0)
(0.997425 -0.00872505 0)
(0.991616 -0.0015423 0)
(0.989751 -0.00762502 0)
(1.00742 -0.00419633 0)
(1.00445 -0.0130648 0)
(0.972286 -0.0250879 0)
(0.991776 0.0132433 0)
(1.01083 0.0125164 0)
(1.01068 0.000898975 0)
(1.00008 -0.0199406 0)
(0.98753 -0.0157052 0)
(0.989876 -0.00855931 0)
(0.991506 0.00256222 0)
(1.00216 0.0105336 0)
(1.005 0.0111435 0)
(1.00498 0.0134985 0)
(1.001 0.00714364 0)
(1.00304 0.006994 0)
(0.999534 -0.00210071 0)
(0.998436 0.00147376 0)
(0.996433 -0.00799272 0)
(0.991615 -0.00135028 0)
(0.989576 -0.0067676 0)
(1.0074 -0.00424007 0)
(1.00469 -0.0128972 0)
(0.972955 -0.0248154 0)
(0.98188 0.0128154 0)
(1.00263 0.0123464 0)
(1.00779 0.000865526 0)
(0.99882 -0.0194748 0)
(0.986574 -0.0156716 0)
(0.986225 -0.0084014 0)
(0.985383 0.00217291 0)
(0.993029 0.0104402 0)
(0.996243 0.0109009 0)
(0.997576 0.0136569 0)
(0.997065 0.00705465 0)
(1.00041 0.00694989 0)
(0.998317 -0.00181131 0)
(0.997801 0.00138341 0)
(0.995822 -0.00730162 0)
(0.991793 -0.00117877 0)
(0.989519 -0.0059547 0)
(1.00744 -0.0042823 0)
(1.00418 -0.0127305 0)
(0.973578 -0.024453 0)
(0.975531 0.0124357 0)
(0.997416 0.0121082 0)
(1.00593 0.000755352 0)
(0.997887 -0.0190063 0)
(0.985569 -0.0156039 0)
(0.983688 -0.0081624 0)
(0.981424 0.0018604 0)
(0.987187 0.0103725 0)
(0.991086 0.0106246 0)
(0.99351 0.0136486 0)
(0.995269 0.00689977 0)
(0.999227 0.00678198 0)
(0.997886 -0.00153823 0)
(0.997631 0.00125102 0)
(0.995543 -0.00664066 0)
(0.992057 -0.00101698 0)
(0.989589 -0.00517728 0)
(1.00747 -0.00431875 0)
(1.00326 -0.0125648 0)
(0.974125 -0.0240295 0)
(0.971795 0.0120821 0)
(0.994416 0.0118227 0)
(1.00485 0.000592915 0)
(0.997289 -0.0185244 0)
(0.984702 -0.015509 0)
(0.981994 -0.00787378 0)
(0.979067 0.00159479 0)
(0.983707 0.0102935 0)
(0.988467 0.010326 0)
(0.991828 0.0134979 0)
(0.994929 0.0067285 0)
(0.998985 0.00652385 0)
(0.99799 -0.00126849 0)
(0.997722 0.00112518 0)
(0.995508 -0.0059923 0)
(0.992352 -0.000849749 0)
(0.989752 -0.00442901 0)
(1.00745 -0.00434648 0)
(1.00214 -0.0124012 0)
(0.974676 -0.0235671 0)
(0.969957 0.0117356 0)
(0.993037 0.0115132 0)
(1.00431 0.00039801 0)
(0.99695 -0.0180245 0)
(0.984096 -0.0153904 0)
(0.980951 -0.00756051 0)
(0.97786 0.00135856 0)
(0.981822 0.0101802 0)
(0.987482 0.0100076 0)
(0.991649 0.0132193 0)
(0.995466 0.00657559 0)
(0.999293 0.00621362 0)
(0.998407 -0.000994821 0)
(0.997943 0.00104047 0)
(0.995615 -0.00534234 0)
(0.992648 -0.000657227 0)
(0.989968 -0.0037035 0)
(1.00737 -0.0043634 0)
(1.00098 -0.0122416 0)
(0.975298 -0.0230833 0)
(0.969529 0.0113836 0)
(0.992829 0.0111909 0)
(1.00415 0.000184208 0)
(0.996773 -0.0175053 0)
(0.983791 -0.0152539 0)
(0.980428 -0.00723549 0)
(0.977511 0.00114248 0)
(0.98105 0.0100123 0)
(0.987496 0.00967902 0)
(0.992298 0.0128388 0)
(0.996433 0.00644419 0)
(0.999864 0.0058924 0)
(0.998945 -0.000712337 0)
(0.998203 0.000997765 0)
(0.995778 -0.00469571 0)
(0.992926 -0.000434522 0)
(0.9902 -0.0029979 0)
(1.00722 -0.00436834 0)
(0.999888 -0.0120881 0)
(0.975991 -0.0225915 0)
(0.970126 0.0110162 0)
(0.993402 0.0108662 0)
(1.00421 -3.63455e-05 0)
(0.996685 -0.0169674 0)
(0.983757 -0.0151041 0)
(0.980308 -0.00691048 0)
(0.977813 0.000943699 0)
(0.981101 0.00977817 0)
(0.988086 0.00935381 0)
(0.993298 0.0123704 0)
(0.997489 0.00635259 0)
(1.00048 0.00559165 0)
(0.999448 -0.000415225 0)
(0.998425 0.00100571 0)
(0.995928 -0.00406827 0)
(0.993165 -0.00019355 0)
(0.990427 -0.00231359 0)
(1.00702 -0.00436096 0)
(0.998945 -0.0119418 0)
(0.976698 -0.0221001 0)
(0.971357 0.0106272 0)
(0.994381 0.0105489 0)
(1.00437 -0.0002543 0)
(0.996646 -0.016414 0)
(0.98394 -0.014941 0)
(0.980467 -0.00660245 0)
(0.978579 0.000762684 0)
(0.981732 0.00947899 0)
(0.988943 0.00903806 0)
(0.994329 0.0118361 0)
(0.998385 0.00630946 0)
(1.00097 0.0053209 0)
(0.999806 -0.0001132 0)
(0.998539 0.00107611 0)
(0.996016 -0.00344857 0)
(0.993343 4.86314e-05 0)
(0.99063 -0.00165831 0)
(1.00681 -0.0043417 0)
(0.998189 -0.0118032 0)
(0.97735 -0.0216127 0)
(0.972838 0.0102132 0)
(0.995422 0.0102454 0)
(1.00456 -0.000463808 0)
(0.996649 -0.0158505 0)
(0.98429 -0.0147622 0)
(0.980786 -0.00632228 0)
(0.979616 0.000598367 0)
(0.982682 0.00912123 0)
(0.989825 0.00874816 0)
(0.995197 0.0112664 0)
(0.998969 0.0062873 0)
(1.00125 0.00508292 0)
(0.999958 0.000156155 0)
(0.998508 0.00119073 0)
(0.996008 -0.00277826 0)
(0.993441 0.000306239 0)
(0.990795 -0.00104631 0)
(1.00659 -0.0043116 0)
(0.997627 -0.0116717 0)
(0.977905 -0.0211287 0)
(0.974265 0.00977441 0)
(0.996276 0.00995316 0)
(1.00473 -0.000662036 0)
(0.996696 -0.0152823 0)
(0.984778 -0.0145646 0)
(0.98118 -0.00607771 0)
(0.980747 0.000454359 0)
(0.983705 0.00871591 0)
(0.990559 0.00849362 0)
(0.995811 0.0106818 0)
(0.999198 0.00625897 0)
(1.00127 0.00491607 0)
(0.999898 0.000456314 0)
(0.998337 0.00128845 0)
(0.9959 -0.00211778 0)
(0.993446 0.000628547 0)
(0.990911 -0.000450922 0)
(1.00636 -0.00427233 0)
(0.997241 -0.0115453 0)
(0.97836 -0.0206479 0)
(0.975478 0.00931907 0)
(0.99683 0.00966862 0)
(1.00487 -0.000851603 0)
(0.996785 -0.0147174 0)
(0.985378 -0.0143372 0)
(0.981612 -0.00588296 0)
(0.981848 0.000342452 0)
(0.984629 0.00826737 0)
(0.991066 0.00827693 0)
(0.99617 0.0100907 0)
(0.999121 0.00627277 0)
(1.00109 0.00470456 0)
(0.999652 0.000823422 0)
(0.998047 0.00146802 0)
(0.995718 -0.00152061 0)
(0.993383 0.000794141 0)
(0.990974 8.94627e-05 0)
(1.00613 -0.00422452 0)
(0.996996 -0.0114257 0)
(0.978736 -0.0201618 0)
(0.976454 0.0088402 0)
(0.997087 0.00940089 0)
(1.00498 -0.00104087 0)
(0.996908 -0.0141589 0)
(0.986054 -0.0140859 0)
(0.982088 -0.00572093 0)
(0.982855 0.000242137 0)
(0.985391 0.00780926 0)
(0.991352 0.00807691 0)
(0.996326 0.00953956 0)
(0.998822 0.00624565 0)
(1.00077 0.00460462 0)
(0.999308 0.00101768 0)
(0.99768 0.00168987 0)
(0.995447 -0.00112258 0)
(0.993284 0.001174 0)
(0.991044 0.000656779 0)
(1.0059 -0.00416836 0)
(0.996857 -0.0113128 0)
(0.979062 -0.0196675 0)
(0.977239 0.008342 0)
(0.997112 0.0091288 0)
(1.00506 -0.00122866 0)
(0.997054 -0.0136113 0)
(0.986758 -0.0138045 0)
(0.982625 -0.00559496 0)
(0.983747 0.000160848 0)
(0.986006 0.00734935 0)
(0.991474 0.00787648 0)
(0.99634 0.00903203 0)
(0.998416 0.00617452 0)
(1.00036 0.00460722 0)
(0.998895 0.00121742 0)
(0.997282 0.00182165 0)
(0.995196 -0.000646506 0)
(0.993183 0.00166558 0)
(0.991039 0.00123315 0)
(1.0057 -0.00410914 0)
(0.996792 -0.0111947 0)
(0.979357 -0.0191808 0)
(0.977889 0.00785213 0)
(0.996982 0.00884991 0)
(1.00508 -0.00140761 0)
(0.99721 -0.0131036 0)
(0.987435 -0.013448 0)
(0.983227 -0.0055504 0)
(0.984522 0.00015196 0)
(0.986522 0.00683521 0)
(0.991495 0.00773229 0)
(0.996273 0.00842899 0)
(0.997969 0.00630753 0)
(0.999926 0.0042556 0)
(0.998476 0.00182263 0)
(0.996907 0.0020122 0)
(0.99496 0.000255613 0)
(0.993082 0.00146453 0)
(0.991072 0.00143566 0)
(1.00554 -0.00403732 0)
(0.996774 -0.0110978 0)
(0.979634 -0.0186586 0)
(0.978441 0.00731847 0)
(0.996761 0.00859251 0)
(1.00505 -0.0015937 0)
(0.997368 -0.0126155 0)
(0.98804 -0.013086 0)
(0.983879 -0.00547752 0)
(0.985188 9.86341e-05 0)
(0.986976 0.00641655 0)
(0.991469 0.0074859 0)
(0.996172 0.00804811 0)
(0.99752 0.00607959 0)
(0.999514 0.00448696 0)
(0.998133 0.00169148 0)
(0.996574 0.00236624 0)
(0.99469 0.00044205 0)
(0.992943 0.00198354 0)
(0.991211 0.00211224 0)
(1.00542 -0.00396856 0)
(0.996786 -0.0109825 0)
(0.979897 -0.0181539 0)
(0.978915 0.00681116 0)
(0.996501 0.00828013 0)
(1.00494 -0.00174291 0)
(0.997519 -0.0121833 0)
(0.988543 -0.0126562 0)
(0.984551 -0.00547484 0)
(0.985759 0.000114884 0)
(0.987374 0.00596246 0)
(0.991452 0.00726961 0)
(0.996026 0.00766278 0)
(0.997169 0.00601766 0)
(0.999068 0.00437813 0)
(0.997797 0.00202036 0)
(0.996281 0.002453 0)
(0.994555 0.00109764 0)
(0.992988 0.00239551 0)
(0.991274 0.00239395 0)
(1.00535 -0.00389503 0)
(0.996813 -0.0108702 0)
(0.980154 -0.0176452 0)
(0.979324 0.00631374 0)
(0.99624 0.00798494 0)
(1.00474 -0.00191677 0)
(0.997656 -0.01175 0)
(0.98893 -0.0122234 0)
(0.985217 -0.0054484 0)
(0.986241 5.90819e-05 0)
(0.98774 0.00564473 0)
(0.991439 0.00692066 0)
(0.995907 0.00735823 0)
(0.996816 0.00588451 0)
(0.998731 0.00440333 0)
(0.997578 0.00212848 0)
(0.996082 0.00262756 0)
(0.994445 0.00161762 0)
(0.99287 0.00271874 0)
(0.991449 0.00277818 0)
(1.00532 -0.00379855 0)
(0.99685 -0.0108046 0)
(0.980412 -0.0170582 0)
(0.97968 0.0057186 0)
(0.996005 0.00772914 0)
(1.00445 -0.00211216 0)
(0.997772 -0.0113329 0)
(0.989212 -0.0118217 0)
(0.985844 -0.00535908 0)
(0.986667 -4.59225e-05 0)
(0.988049 0.00535612 0)
(0.991459 0.00660019 0)
(0.995767 0.00710181 0)
(0.996596 0.00562556 0)
(0.99834 0.00455016 0)
(0.997362 0.00202852 0)
(0.995945 0.00306415 0)
(0.994443 0.00165336 0)
(0.993007 0.00330881 0)
(0.991577 0.00349895 0)
(1.00531 -0.00373533 0)
(0.996893 -0.0106519 0)
(0.980683 -0.0165677 0)
(0.979998 0.00525252 0)
(0.995806 0.00733908 0)
(1.00408 -0.00215762 0)
(0.997862 -0.0110819 0)
(0.989407 -0.0112307 0)
(0.986428 -0.0054913 0)
(0.987037 0.000118434 0)
(0.988328 0.00479998 0)
(0.991486 0.00656239 0)
(0.995655 0.00641736 0)
(0.996358 0.00592625 0)
(0.998064 0.0041575 0)
(0.997272 0.00305729 0)
(0.995821 0.00311595 0)
(0.994422 0.00280546 0)
(0.99307 0.00289978 0)
(0.991776 0.00298281 0)
(1.00531 -0.00364522 0)
(0.996949 -0.0105545 0)
(0.980975 -0.016016 0)
(0.9803 0.00475714 0)
(0.995634 0.00700479 0)
(1.00365 -0.00227782 0)
(0.997915 -0.0107425 0)
(0.989558 -0.0107712 0)
(0.986943 -0.00541691 0)
(0.987386 -4.35525e-05 0)
(0.988578 0.00466763 0)
(0.991503 0.0060981 0)
(0.995558 0.00626225 0)
(0.996215 0.00560532 0)
(0.997818 0.00447674 0)
(0.997172 0.00288341 0)
(0.995819 0.00335381 0)
(0.994429 0.00284399 0)
(0.99302 0.00358348 0)
(0.992051 0.00364808 0)
(1.00529 -0.00353146 0)
(0.997017 -0.0105023 0)
(0.981292 -0.0153858 0)
(0.980606 0.00413238 0)
(0.995495 0.00674309 0)
(1.00319 -0.00246925 0)
(0.997928 -0.0103693 0)
(0.989694 -0.0104127 0)
(0.987393 -0.00520887 0)
(0.987743 -0.000334786 0)
(0.98878 0.00458295 0)
(0.991552 0.00565066 0)
(0.995449 0.00617233 0)
(0.996071 0.00541395 0)
(0.997563 0.00449648 0)
(0.997118 0.00274777 0)
(0.995768 0.00359662 0)
(0.994535 0.00269936 0)
(0.993264 0.00422534 0)
(0.992203 0.00441697 0)
(1.00525 -0.00347627 0)
(0.997086 -0.0103188 0)
(0.981649 -0.0148974 0)
(0.98093 0.00373447 0)
(0.995387 0.00624547 0)
(1.0027 -0.00236527 0)
(0.997914 -0.0102844 0)
(0.989824 -0.0097128 0)
(0.987804 -0.00543158 0)
(0.98809 -0.000150526 0)
(0.988985 0.00395779 0)
(0.991582 0.00584213 0)
(0.995384 0.00523855 0)
(0.99594 0.00572381 0)
(0.99734 0.00465814 0)
(0.997062 0.00362693 0)
(0.995769 0.00355524 0)
(0.994623 0.00394436 0)
(0.993408 0.00378619 0)
(0.992446 0.00360558 0)
(1.00517 -0.00337531 0)
(0.997165 -0.0102202 0)
(0.982037 -0.014331 0)
(0.98129 0.00325918 0)
(0.995302 0.0058501 0)
(1.00222 -0.00243225 0)
(0.997862 -0.00998228 0)
(0.989974 -0.00934894 0)
(0.988172 -0.00515261 0)
(0.988445 -0.000480079 0)
(0.989217 0.00392634 0)
(0.991578 0.00537457 0)
(0.995312 0.00526691 0)
(0.99594 0.00535932 0)
(0.997167 0.00466723 0)
(0.996955 0.00344649 0)
(0.995872 0.00380775 0)
(0.994695 0.00371364 0)
(0.993285 0.00445696 0)
(0.992649 0.00439703 0)
(1.00506 -0.00324207 0)
(0.99725 -0.0101844 0)
(0.982454 -0.0136848 0)
(0.981699 0.00265347 0)
(0.995238 0.00554241 0)
(1.00177 -0.00260695 0)
(0.997771 -0.00961717 0)
(0.990166 -0.0090566 0)
(0.988501 -0.00486167 0)
(0.988834 -0.000822202 0)
(0.989423 0.0039663 0)
(0.991644 0.00489872 0)
(0.995256 0.00518958 0)
(0.995801 0.00499238 0)
(0.996963 0.00473872 0)
(0.996945 0.00332762 0)
(0.995846 0.00410862 0)
(0.994867 0.00335516 0)
(0.99367 0.00509209 0)
(0.992819 0.00526326 0)
(1.00493 -0.00319704 0)
(0.99732 -0.0099678 0)
(0.982908 -0.0132253 0)
(0.982143 0.0023625 0)
(0.995213 0.00491824 0)
(1.00132 -0.00236384 0)
(0.997675 -0.00964477 0)
(0.990347 -0.00836283 0)
(0.988845 -0.0050731 0)
(0.989236 -0.00060053 0)
(0.98967 0.00310645 0)
(0.99165 0.00520675 0)
(0.995231 0.00441909 0)
(0.995831 0.00545618 0)
(0.996835 0.00493701 0)
(0.996856 0.0042245 0)
(0.995854 0.0040503 0)
(0.994974 0.00464088 0)
(0.993784 0.0045861 0)
(0.99295 0.00436874 0)
(1.00477 -0.00308127 0)
(0.997391 -0.00987559 0)
(0.983382 -0.0126589 0)
(0.982629 0.00194771 0)
(0.995196 0.00447762 0)
(1.0009 -0.00244043 0)
(0.997552 -0.00929766 0)
(0.990566 -0.00811247 0)
(0.989162 -0.00471446 0)
(0.989605 -0.000918891 0)
(0.989972 0.0030343 0)
(0.991731 0.00485873 0)
(0.995234 0.00438332 0)
(0.995839 0.0050525 0)
(0.996702 0.00494067 0)
(0.996777 0.00400938 0)
(0.995989 0.00429197 0)
(0.995076 0.0043445 0)
(0.993697 0.00513865 0)
(0.993138 0.00525386 0)
(1.0046 -0.00292771 0)
(0.99746 -0.00984989 0)
(0.983864 -0.0120245 0)
(0.983157 0.00140964 0)
(0.995196 0.00412977 0)
(1.00052 -0.00261114 0)
(0.997416 -0.00890267 0)
(0.990791 -0.00791571 0)
(0.989475 -0.00438368 0)
(0.99004 -0.00121515 0)
(0.990254 0.00303016 0)
(0.991779 0.00447032 0)
(0.995213 0.00429014 0)
(0.995905 0.00456388 0)
(0.996611 0.00502289 0)
(0.996747 0.00376509 0)
(0.995953 0.00449464 0)
(0.995257 0.00394782 0)
(0.99412 0.0057435 0)
(0.993244 0.00617752 0)
(1.00444 -0.00290865 0)
(0.997502 -0.00957787 0)
(0.984372 -0.0116662 0)
(0.983698 0.00128816 0)
(0.995229 0.00340842 0)
(1.00015 -0.00226254 0)
(0.997295 -0.00899701 0)
(0.991007 -0.0072178 0)
(0.989801 -0.00467794 0)
(0.99042 -0.000750673 0)
(0.990586 0.00205734 0)
(0.99189 0.00491159 0)
(0.995251 0.00368478 0)
(0.995968 0.00507797 0)
(0.99653 0.00493902 0)
(0.996681 0.00483069 0)
(0.996005 0.0044953 0)
(0.995431 0.00524589 0)
(0.994333 0.00516253 0)
(0.993372 0.00533512 0)
(1.00426 -0.0027322 0)
(0.997553 -0.00955895 0)
(0.984875 -0.0110779 0)
(0.984258 0.000862965 0)
(0.995263 0.00303487 0)
(0.999813 -0.00246861 0)
(0.997171 -0.00845808 0)
(0.991225 -0.00717874 0)
(0.99013 -0.00418502 0)
(0.990795 -0.00115527 0)
(0.99095 0.0021781 0)
(0.991976 0.00456564 0)
(0.995254 0.00379375 0)
(0.99613 0.00428216 0)
(0.996567 0.00469299 0)
(0.996665 0.0043789 0)
(0.996116 0.00477683 0)
(0.995498 0.00502887 0)
(0.994237 0.00561607 0)
(0.993536 0.00606058 0)
(1.00408 -0.00261946 0)
(0.997612 -0.00943903 0)
(0.985374 -0.0105862 0)
(0.984844 0.000513052 0)
(0.99529 0.00261709 0)
(0.999526 -0.00265597 0)
(0.99704 -0.00798913 0)
(0.991483 -0.00712214 0)
(0.990417 -0.00371041 0)
(0.9912 -0.00152162 0)
(0.991315 0.00231388 0)
(0.992126 0.00416674 0)
(0.995218 0.00395898 0)
(0.996166 0.00356722 0)
(0.996552 0.0044095 0)
(0.996742 0.00393023 0)
(0.996204 0.00487663 0)
(0.995728 0.0047926 0)
(0.994734 0.00652057 0)
(0.993646 0.00714385 0)
(1.00392 -0.00257413 0)
(0.997648 -0.0091877 0)
(0.985895 -0.0102677 0)
(0.98541 0.00043064 0)
(0.995342 0.00198845 0)
(0.999234 -0.00245569 0)
(0.996945 -0.00791989 0)
(0.991712 -0.00658117 0)
(0.990747 -0.00382839 0)
(0.991577 -0.00117526 0)
(0.991705 0.00174451 0)
(0.992251 0.00437937 0)
(0.995183 0.00355062 0)
(0.996274 0.00379282 0)
(0.996664 0.00436977 0)
(0.996826 0.00463064 0)
(0.996346 0.00499835 0)
(0.996035 0.00558189 0)
(0.99501 0.00629739 0)
(0.993685 0.00670901 0)
(1.00376 -0.00235721 0)
(0.9977 -0.00920412 0)
(0.986415 -0.00971645 0)
(0.985964 3.97773e-05 0)
(0.995392 0.00163392 0)
(0.998967 -0.00261261 0)
(0.996854 -0.00752938 0)
(0.991955 -0.00635467 0)
(0.991053 -0.0035309 0)
(0.991935 -0.00127364 0)
(0.992113 0.00157744 0)
(0.992417 0.00417865 0)
(0.995153 0.00366001 0)
(0.996375 0.00371228 0)
(0.996767 0.00434918 0)
(0.996938 0.0045808 0)
(0.996508 0.00510297 0)
(0.996178 0.00546082 0)
(0.995165 0.00575697 0)
(0.993781 0.00630962 0)
(1.00359 -0.00231718 0)
(0.997763 -0.00895953 0)
(0.98693 -0.00938282 0)
(0.986517 -0.000138879 0)
(0.995443 0.00120276 0)
(0.998715 -0.00270194 0)
(0.996774 -0.00727473 0)
(0.992198 -0.00601442 0)
(0.991362 -0.00339473 0)
(0.992288 -0.00117789 0)
(0.99252 0.00129079 0)
(0.992609 0.00409049 0)
(0.995128 0.00366899 0)
(0.99647 0.00366811 0)
(0.99689 0.00423727 0)
(0.997066 0.00460813 0)
(0.996628 0.00510396 0)
(0.99628 0.00535568 0)
(0.995361 0.00563737 0)
(0.993958 0.00623065 0)
(1.00342 -0.00216112 0)
(0.997832 -0.00884316 0)
(0.98745 -0.00898214 0)
(0.987061 -0.000356262 0)
(0.995487 0.00081927 0)
(0.99848 -0.00279816 0)
(0.996708 -0.00694761 0)
(0.992447 -0.00575368 0)
(0.991664 -0.00314086 0)
(0.992613 -0.00117546 0)
(0.992938 0.00104921 0)
(0.99284 0.00394149 0)
(0.995104 0.00373505 0)
(0.996552 0.00358028 0)
(0.997022 0.00416727 0)
(0.997216 0.00453249 0)
(0.996761 0.00512447 0)
(0.996394 0.00536911 0)
(0.995539 0.00565202 0)
(0.994114 0.00607202 0)
(1.00326 -0.00204948 0)
(0.99791 -0.00868517 0)
(0.987969 -0.00861863 0)
(0.987594 -0.000612954 0)
(0.99554 0.00051531 0)
(0.998264 -0.00287104 0)
(0.996648 -0.00668895 0)
(0.9927 -0.00550959 0)
(0.991962 -0.00290974 0)
(0.992923 -0.00112704 0)
(0.993356 0.000871011 0)
(0.993101 0.00372429 0)
(0.995083 0.00378845 0)
(0.996623 0.00352399 0)
(0.997157 0.00411411 0)
(0.997382 0.00444444 0)
(0.996918 0.0051139 0)
(0.996504 0.00539661 0)
(0.995674 0.00564151 0)
(0.994243 0.00589103 0)
(1.00309 -0.00192958 0)
(0.997991 -0.0085232 0)
(0.98849 -0.00826897 0)
(0.988126 -0.000833863 0)
(0.995594 0.000244134 0)
(0.998053 -0.00299849 0)
(0.996602 -0.0064103 0)
(0.992965 -0.00524658 0)
(0.99226 -0.00267041 0)
(0.993209 -0.00104524 0)
(0.993762 0.000687724 0)
(0.993392 0.00346281 0)
(0.995085 0.00385388 0)
(0.996684 0.0034781 0)
(0.997289 0.00409476 0)
(0.997559 0.00430418 0)
(0.997101 0.00508599 0)
(0.996626 0.00538459 0)
(0.995775 0.00562738 0)
(0.994353 0.00576215 0)
(1.00293 -0.00180911 0)
(0.99808 -0.00835332 0)
(0.989009 -0.00792349 0)
(0.988644 -0.00108911 0)
(0.995654 -4.6374e-06 0)
(0.997864 -0.00304519 0)
(0.99657 -0.00612212 0)
(0.99323 -0.00504625 0)
(0.992551 -0.00247147 0)
(0.993471 -0.000952264 0)
(0.99415 0.000544413 0)
(0.993721 0.00318518 0)
(0.995101 0.00390335 0)
(0.996738 0.00343926 0)
(0.997405 0.00405674 0)
(0.997738 0.00416523 0)
(0.997314 0.0050167 0)
(0.99675 0.00534281 0)
(0.995867 0.00562306 0)
(0.994438 0.00569452 0)
(1.00277 -0.00169403 0)
(0.99817 -0.00816697 0)
(0.989525 -0.00761865 0)
(0.989161 -0.00132801 0)
(0.995725 -0.000224537 0)
(0.997681 -0.0030524 0)
(0.996538 -0.00588566 0)
(0.993499 -0.00485684 0)
(0.99285 -0.00227968 0)
(0.993719 -0.000816193 0)
(0.994517 0.000429542 0)
(0.994073 0.00286952 0)
(0.995149 0.00392971 0)
(0.996778 0.00342007 0)
(0.997515 0.00402518 0)
(0.99792 0.00408805 0)
(0.997546 0.00489737 0)
(0.996912 0.00529429 0)
(0.995963 0.00561175 0)
(0.99451 0.00568342 0)
(1.00262 -0.00157434 0)
(0.998264 -0.00799805 0)
(0.990038 -0.00729763 0)
(0.989666 -0.00155244 0)
(0.995805 -0.000468176 0)
(0.997517 -0.00305933 0)
(0.996518 -0.00562085 0)
(0.993775 -0.00465262 0)
(0.99315 -0.00211178 0)
(0.993943 -0.000687704 0)
(0.994846 0.000361558 0)
(0.994456 0.002539 0)
(0.995226 0.00392872 0)
(0.996815 0.00341182 0)
(0.997619 0.00401331 0)
(0.998081 0.004038 0)
(0.99779 0.00475735 0)
(0.997092 0.00521148 0)
(0.996081 0.0055556 0)
(0.994569 0.00568448 0)
(1.00246 -0.00145879 0)
(0.99836 -0.00780109 0)
(0.990546 -0.00703424 0)
(0.990165 -0.00175803 0)
(0.995896 -0.000690797 0)
(0.997367 -0.00302134 0)
(0.9965 -0.0053716 0)
(0.994047 -0.00446895 0)
(0.993455 -0.00198426 0)
(0.994162 -0.000566437 0)
(0.995145 0.000355361 0)
(0.994849 0.00220675 0)
(0.995346 0.00386323 0)
(0.99685 0.00342017 0)
(0.99772 0.00395906 0)
(0.998228 0.00401391 0)
(0.998029 0.00458874 0)
(0.997302 0.00512562 0)
(0.996227 0.00547212 0)
(0.994637 0.00569961 0)
(1.00231 -0.00134575 0)
(0.998457 -0.00760291 0)
(0.991049 -0.00674092 0)
(0.990653 -0.0019688 0)
(0.995998 -0.00096145 0)
(0.997236 -0.00293159 0)
(0.996489 -0.00509958 0)
(0.994324 -0.00429731 0)
(0.993762 -0.00187213 0)
(0.994372 -0.000438427 0)
(0.995399 0.000411054 0)
(0.995249 0.00191202 0)
(0.995507 0.00376591 0)
(0.996885 0.00345338 0)
(0.997818 0.00390773 0)
(0.998351 0.00402047 0)
(0.998266 0.0044551 0)
(0.99753 0.00506224 0)
(0.996408 0.0053762 0)
(0.994724 0.00571654 0)
(1.00217 -0.00125243 0)
(0.998556 -0.00736523 0)
(0.991542 -0.0065449 0)
(0.991128 -0.00209793 0)
(0.996121 -0.00126909 0)
(0.997123 -0.00283608 0)
(0.996465 -0.00477018 0)
(0.994586 -0.00411779 0)
(0.994076 -0.00180381 0)
(0.994591 -0.000361022 0)
(0.995627 0.000471098 0)
(0.995639 0.00162717 0)
(0.995716 0.00358133 0)
(0.996927 0.00349001 0)
(0.997915 0.00381305 0)
(0.998469 0.00405214 0)
(0.998495 0.00432391 0)
(0.997768 0.00497123 0)
(0.996611 0.0052425 0)
(0.994828 0.00567688 0)
(1.00203 -0.00112399 0)
(0.998652 -0.00719107 0)
(0.992035 -0.00626199 0)
(0.991588 -0.00232393 0)
(0.99624 -0.00148794 0)
(0.997051 -0.0028422 0)
(0.996465 -0.00445091 0)
(0.994845 -0.0038883 0)
(0.994386 -0.0017086 0)
(0.994804 -0.000291003 0)
(0.995808 0.000575339 0)
(0.996004 0.00142059 0)
(0.995968 0.00337154 0)
(0.996976 0.00354873 0)
(0.998016 0.00374415 0)
(0.998575 0.00407494 0)
(0.998697 0.00420457 0)
(0.998007 0.00486479 0)
(0.996838 0.0051059 0)
(0.994966 0.00561042 0)
(1.00189 -0.00103455 0)
(0.998753 -0.0069427 0)
(0.992509 -0.00605018 0)
(0.992037 -0.00247942 0)
(0.996387 -0.00173586 0)
(0.996987 -0.00285788 0)
(0.996459 -0.00410006 0)
(0.995086 -0.00363457 0)
(0.994697 -0.00163089 0)
(0.995041 -0.00024308 0)
(0.995987 0.000692922 0)
(0.996348 0.00130185 0)
(0.99627 0.00310484 0)
(0.997055 0.00359177 0)
(0.998107 0.0036578 0)
(0.998669 0.00406477 0)
(0.998881 0.00412742 0)
(0.998245 0.00478169 0)
(0.997075 0.00500673 0)
(0.995124 0.00553509 0)
(1.00176 -0.000946946 0)
(0.998842 -0.00667171 0)
(0.99298 -0.00590483 0)
(0.992477 -0.00252471 0)
(0.996528 -0.00206594 0)
(0.996968 -0.00277566 0)
(0.996468 -0.00373501 0)
(0.995305 -0.00342341 0)
(0.994991 -0.00158896 0)
(0.995281 -0.000240343 0)
(0.996145 0.000773932 0)
(0.996647 0.00122441 0)
(0.9966 0.00280206 0)
(0.997159 0.00356883 0)
(0.998196 0.00357409 0)
(0.998776 0.00404718 0)
(0.999056 0.00407853 0)
(0.998479 0.00467716 0)
(0.997314 0.00488885 0)
(0.995292 0.00538524 0)
(1.00163 -0.000841027 0)
(0.998936 -0.00645219 0)
(0.993442 -0.00565147 0)
(0.992892 -0.00268054 0)