/*--------------------------------*- C++ -*----------------------------------*\
| =========                 |                                                 |
| \\      /  F ield         | OpenFOAM: The Open Source CFD Toolbox           |
|  \\    /   O peration     | Version:  v2012                                 |
|   \\  /    A nd           | Website:  www.openfoam.com                      |
|    \\/     M anipulation  |                                                 |
\*---------------------------------------------------------------------------*/
FoamFile
{
    version     2.0;
    format      ascii;
    class       volScalarField;
    location    "8.9";
    object      p;
}
// * * * * * * * * * * * * * * * * * * * * * * * * * * * * * * * * * * * * * //

dimensions      [0 2 -2 0 0 0 0];


internalField   nonuniform List<scalar> 
7000
(
-1.8487e-10
0.000507821
0.00024421
0.000863514
0.00129384
-2.77164e-05
0.00145131
0.00435697
0.000483367
0.00195803
-0.00274409
-0.00115377
-0.00435832
-0.00301136
-0.00388543
-0.0025475
-0.00269583
-0.00189073
-0.00159579
-0.000499185
-4.92256e-08
0.000509571
0.000246161
0.000862176
0.00128186
-2.98457e-05
0.00146519
0.0043293
0.000507159
0.00193746
-0.00272129
-0.00115756
-0.00434523
-0.00299993
-0.00388084
-0.00254437
-0.00269173
-0.00189287
-0.00159357
-0.000563501
1.13055e-07
0.000511826
0.000248777
0.000857173
0.00126758
-2.81825e-05
0.00147267
0.00429179
0.00052972
0.00190693
-0.00268853
-0.00116844
-0.0043108
-0.00299876
-0.00385997
-0.00255229
-0.00267495
-0.00190747
-0.00159263
-0.000661352
4.08731e-07
0.000513616
0.000251811
0.000852971
0.00125575
-2.35976e-05
0.00147411
0.00424046
0.000547407
0.00186611
-0.00265096
-0.00118516
-0.00425843
-0.0030126
-0.00382647
-0.00257247
-0.00265436
-0.0019331
-0.00159968
-0.000773992
7.97014e-07
0.000514928
0.000256193
0.000850702
0.00124569
-1.61684e-05
0.00147148
0.00417783
0.000563649
0.00181594
-0.00260693
-0.00120809
-0.00419267
-0.00304049
-0.00378728
-0.00260161
-0.00263519
-0.00196481
-0.0016141
-0.000884852
1.2821e-06
0.00051601
0.000262328
0.00084933
0.00123743
-6.14415e-06
0.00146624
0.00410677
0.000579998
0.00175803
-0.00255643
-0.00123782
-0.00411841
-0.00307982
-0.00374658
-0.00263568
-0.00261809
-0.00199819
-0.00163449
-0.000986131
1.85654e-06
0.000517126
0.000270074
0.000848316
0.00123124
5.90302e-06
0.00145955
0.00403005
0.000597015
0.00169402
-0.00250054
-0.0012732
-0.00403909
-0.00312968
-0.00370609
-0.00267181
-0.00260249
-0.00203157
-0.00166082
-0.00107902
2.49873e-06
0.00051849
0.000279222
0.000847752
0.00122698
1.93329e-05
0.00145231
0.0039495
0.000614905
0.00162509
-0.00244003
-0.00131243
-0.00395622
-0.00317821
-0.00366618
-0.00270857
-0.00258863
-0.00206534
-0.00169386
-0.00116751
3.1892e-06
0.00052024
0.000289602
0.000847751
0.00122417
3.35684e-05
0.00144504
0.00386602
0.000633785
0.00155198
-0.00237516
-0.00135443
-0.00387025
-0.00322665
-0.00362699
-0.002745
-0.00257787
-0.00210004
-0.00173379
-0.00125387
3.92028e-06
0.000522414
0.000300998
0.00084828
0.00122226
4.81232e-05
0.00143802
0.0037798
0.000653722
0.00147516
-0.00230601
-0.00139875
-0.00378132
-0.00327389
-0.00358846
-0.00277988
-0.0025715
-0.00213516
-0.00177973
-0.00133854
4.69336e-06
0.000524961
0.000313161
0.000849225
0.00122074
6.25974e-05
0.00143135
0.00369059
0.000674748
0.00139498
-0.00223277
-0.00144509
-0.00368972
-0.00331919
-0.00355046
-0.00281172
-0.00257
-0.0021697
-0.00183042
-0.0014216
5.5126e-06
0.000527793
0.000325862
0.000850448
0.00121922
7.66708e-05
0.0014251
0.00359796
0.000696875
0.00131169
-0.00215576
-0.00149298
-0.00359589
-0.00336152
-0.00351299
-0.00283915
-0.00257342
-0.00220315
-0.00188476
-0.00150352
6.38149e-06
0.000530836
0.000338923
0.00085183
0.00121741
9.0106e-05
0.00141934
0.00350153
0.000720095
0.00122553
-0.00207548
-0.00154177
-0.00350056
-0.00339933
-0.00347643
-0.00286102
-0.00258173
-0.00223582
-0.00194177
-0.00158483
7.30301e-06
0.000534054
0.000352234
0.000853287
0.00121523
0.000102757
0.00141415
0.00340106
0.000744382
0.00113667
-0.00199257
-0.00159066
-0.00340482
-0.00343094
-0.00344128
-0.00287628
-0.00259475
-0.00226848
-0.00200042
-0.00166567
8.28112e-06
0.000537441
0.000365733
0.000854777
0.00121267
0.000114562
0.00140968
0.00329655
0.000769697
0.00104522
-0.00190774
-0.00163875
-0.00331012
-0.00345474
-0.00340826
-0.00288392
-0.00261176
-0.00230193
-0.0020597
-0.00174568
9.32262e-06
0.000541001
0.000379402
0.000856276
0.00120988
0.000125515
0.00140607
0.00318822
0.000795992
0.000951395
-0.00182177
-0.00168513
-0.00321823
-0.00346923
-0.00337814
-0.00288336
-0.00263145
-0.00233658
-0.00211865
-0.00182414
1.04383e-05
0.00054473
0.000393247
0.00085777
0.00120703
0.000135627
0.00140339
0.00307645
0.000823218
0.000855571
-0.0017356
-0.00172877
-0.00313114
-0.0034735
-0.00335166
-0.00287465
-0.00265213
-0.0023724
-0.00217628
-0.00190014
1.16419e-05
0.000548613
0.000407289
0.000859233
0.00120431
0.000144897
0.00140167
0.00296171
0.00085133
0.000758393
-0.00165034
-0.00176853
-0.00305071
-0.00346741
-0.00332946
-0.00285868
-0.00267228
-0.00240938
-0.00223169
-0.0019726
1.29497e-05
0.00055262
0.000421572
0.000860629
0.00120186
0.000153292
0.00140081
0.00284443
0.000880234
0.000660651
-0.0015672
-0.00180307
-0.00297833
-0.00345146
-0.00331206
-0.0028369
-0.00269082
-0.00244822
-0.00228451
-0.00204039
1.43799e-05
0.000556711
0.000436157
0.000861908
0.00119981
0.000160751
0.00140066
0.00272509
0.00090973
0.00056328
-0.0014876
-0.00183093
-0.0029148
-0.00342675
-0.00329992
-0.00281121
-0.00270642
-0.00249018
-0.00233591
-0.00210269
1.59532e-05
0.000560841
0.000451122
0.000862997
0.00119824
0.000167198
0.00140102
0.00260412
0.000939444
0.000467442
-0.00141304
-0.001851
-0.00286037
-0.00339425
-0.00329336
-0.00278493
-0.00271765
-0.00253485
-0.00238792
-0.00216037
1.76919e-05
0.000564965
0.000466553
0.000863808
0.00119721
0.000172537
0.00140167
0.00248207
0.000968784
0.000374364
-0.00134485
-0.00186248
-0.00281561
-0.00335489
-0.00329119
-0.00276194
-0.0027254
-0.00258055
-0.00244048
-0.00221505
1.96214e-05
0.00056903
0.000482536
0.000864241
0.00119679
0.000176681
0.00140236
0.00235963
0.000997029
0.000285194
-0.00128453
-0.00186445
-0.00278094
-0.00331092
-0.00329033
-0.00274374
-0.00273167
-0.00262804
-0.00249321
-0.00226625
2.17718e-05
0.000572978
0.000499152
0.000864183
0.001197
0.0001796
0.0014028
0.0022375
0.00102323
0.000201365
-0.00123344
-0.0018567
-0.00275557
-0.00326463
-0.00328872
-0.00273071
-0.00273681
-0.00267863
-0.00254757
-0.00231313
2.41777e-05
0.000576743
0.000516475
0.000863517
0.00119784
0.000181274
0.00140277
0.00211661
0.00104608
0.000124111
-0.00119204
-0.0018396
-0.00273893
-0.00321804
-0.00328459
-0.00272348
-0.00274076
-0.00273171
-0.00260453
-0.00235612
2.6874e-05
0.000580258
0.000534559
0.000862159
0.00119928
0.000181679
0.00140183
0.00199805
0.0010645
5.3994e-05
-0.00116121
-0.00181291
-0.00272971
-0.00317414
-0.00327694
-0.00272268
-0.00274283
-0.00278402
-0.00266405
-0.00239698
2.98998e-05
0.000583449
0.000553427
0.000860031
0.0012013
0.000180909
0.00139943
0.00188259
0.00107752
-7.77903e-06
-0.00114214
-0.00177848
-0.00272504
-0.00313449
-0.00326531
-0.00273022
-0.00274609
-0.00283118
-0.00272246
-0.00243735
3.3313e-05
0.000586217
0.000573135
0.000857028
0.00120386
0.000179162
0.00139512
0.00177106
0.00108388
-6.07155e-05
-0.00113339
-0.00173853
-0.00272398
-0.00310163
-0.00324715
-0.00274357
-0.00275477
-0.00287498
-0.00277684
-0.00247571
3.71616e-05
0.000588477
0.00059373
0.00085311
0.00120685
0.000176742
0.00138817
0.00166456
0.00108301
-0.000104887
-0.00113518
-0.00169281
-0.00272372
-0.00307833
-0.00322478
-0.00276023
-0.00276376
-0.00291429
-0.00283279
-0.00251186
4.14853e-05
0.000590146
0.000615194
0.000848341
0.00121
0.000174349
0.00137737
0.00156383
0.00107413
-0.00013938
-0.00114781
-0.00164498
-0.00272069
-0.00306247
-0.00320638
-0.0027829
-0.00277912
-0.00294713
-0.00287537
-0.00254697
4.64084e-05
0.0005911
0.000637563
0.000842769
0.00121308
0.000172489
0.00136233
0.00146898
0.0010565
-0.00016473
-0.00116867
-0.00159751
-0.00271468
-0.00305468
-0.00318857
-0.00281164
-0.0028023
-0.00297895
-0.00290306
-0.00258017
5.19069e-05
0.000591365
0.000660753
0.00083655
0.00121579
0.000171734
0.00134243
0.00138035
0.00103064
-0.000183198
-0.00119552
-0.00155272
-0.00270213
-0.00305741
-0.00316835
-0.00283469
-0.00282384
-0.00301033
-0.00295113
-0.0026088
5.80216e-05
0.000590818
0.000684774
0.000829861
0.00121786
0.000172702
0.00131701
0.00129771
0.000997677
-0.000195646
-0.00122532
-0.0015192
-0.00267887
-0.00306708
-0.00315901
-0.00286072
-0.00285097
-0.00304521
-0.00298584
-0.00262734
6.50798e-05
0.000589163
0.000709782
0.000822848
0.00121892
0.000175772
0.00128649
0.00122067
0.000958094
-0.00020166
-0.00125621
-0.00149569
-0.00264801
-0.00308095
-0.00314879
-0.0028781
-0.00287966
-0.00308522
-0.00306479
-0.0026365
7.28167e-05
0.000586846
0.000735158
0.000816219
0.00121765
0.000182623
0.00124872
0.00115099
0.00091031
-0.000204154
-0.00128698
-0.00147403
-0.00261823
-0.00309509
-0.00314323
-0.00291357
-0.00291196
-0.00311993
-0.00309559
-0.00264163
8.13251e-05
0.000583645
0.00076085
0.000810251
0.00121415
0.000192857
0.00120403
0.00108642
0.00085755
-0.000204995
-0.00131782
-0.00146199
-0.00258375
-0.0031218
-0.00316496
-0.00295432
-0.00295353
-0.00314812
-0.00306545
-0.00264125
9.11797e-05
0.00057895
0.000787363
0.000804634
0.00120942
0.000205346
0.00115644
0.00102361
0.000805494
-0.000206623
-0.00134507
-0.00146599
-0.00254238
-0.00313298
-0.00318304
-0.00299455
-0.00298629
-0.00317674
-0.00314338
-0.00263172
0.000101733
0.000573906
0.00081318
0.000800959
0.00119997
0.000223386
0.00110118
0.000966705
0.000750655
-0.000209219
-0.00137
-0.00147415
-0.00251378
-0.00314866
-0.00320623
-0.00302808
-0.00302229
-0.0032003
-0.00315053
-0.00261793
0.000113199
0.000568247
0.000838121
0.00080003
0.00118608
0.000244687
0.00104053
0.000911375
0.000695367
-0.000213201
-0.00139619
-0.00148864
-0.00248577
-0.00320016
-0.00324455
-0.00306409
-0.00306256
-0.00321427
-0.00306874
-0.00260594
0.000126436
0.000560993
0.000863105
0.000800427
0.00117241
0.000265004
0.000982726
0.000850444
0.000647922
-0.000222112
-0.00142179
-0.00151731
-0.00244715
-0.00317807
-0.00327992
-0.0031099
-0.00308289
-0.00324175
-0.00319623
-0.00259402
0.000140336
0.000554123
0.000885333
0.000804417
0.00115245
0.000291339
0.000919567
0.000792704
0.000599944
-0.000228775
-0.00144886
-0.00155416
-0.00242499
-0.00321715
-0.00332138
-0.00315192
-0.00311456
-0.00325545
-0.00320335
-0.00257888
0.000155255
0.00054726
0.000904507
0.000813092
0.00112673
0.000319589
0.000855021
0.000734171
0.000548601
-0.000230408
-0.0014732
-0.00160977
-0.00242083
-0.00323322
-0.00337027
-0.00319474
-0.00315837
-0.00325216
-0.0030698
-0.00256363
0.000172434
0.000538755
0.000923167
0.000823201
0.00110622
0.000340933
0.000798583
0.000667797
0.000502512
-0.000236971
-0.0014951
-0.00165612
-0.00240084
-0.00325945
-0.00341249
-0.00325363
-0.00318825
-0.00329498
-0.0032415
-0.00254279
0.000189843
0.000532038
0.000936567
0.000838357
0.00107656
0.000369571
0.000738574
0.000605948
0.000451012
-0.000242773
-0.00151663
-0.00173021
-0.00238933
-0.0032648
-0.00347098
-0.00332129
-0.00324382
-0.00331183
-0.00323199
-0.00251135
0.000208512
0.000525951
0.000945236
0.000858383
0.00104126
0.000396863
0.000680412
0.000546317
0.000391524
-0.000247548
-0.00153444
-0.00181691
-0.00239274
-0.00325639
-0.00355129
-0.00339534
-0.00332484
-0.00329675
-0.00302321
-0.0024773
0.000229615
0.00051865
0.00095296
0.000878541
0.0010221
0.000405678
0.000635871
0.000479537
0.000335778
-0.000259149
-0.0015421
-0.00187197
-0.00239856
-0.00326315
-0.0036033
-0.0034821
-0.00341268
-0.00341926
-0.00324332
-0.0024253
0.000250433
0.000514392
0.000953822
0.000902738
0.000995781
0.000414396
0.000591073
0.000413754
0.00027711
-0.000276069
-0.0015422
-0.00193341
-0.0024149
-0.00327416
-0.0036579
-0.0035822
-0.00352288
-0.00355539
-0.00332434
-0.00233272
0.000273119
0.000511041
0.0009502
0.000929288
0.000969282
0.000421863
0.000543737
0.000353795
0.000211095
-0.000297744
-0.00154318
-0.00199623
-0.00243863
-0.00325058
-0.00371752
-0.00368279
-0.00363227
-0.00364253
-0.00333475
-0.00225261
0.000297203
0.000508258
0.000943587
0.000955828
0.000953619
0.000425509
0.000495896
0.000291836
0.000142248
-0.00032332
-0.00154268
-0.00205239
-0.00247571
-0.00325146
-0.00377115
-0.00377975
-0.00372516
-0.00369854
-0.00333203
-0.00217893
0.00032161
0.000507973
0.000932252
0.000981597
0.000937302
0.000426821
0.000446661
0.000228404
7.42068e-05
-0.000355526
-0.00154109
-0.00210603
-0.00252516
-0.00325071
-0.00381214
-0.00387667
-0.00381089
-0.00373379
-0.00329815
-0.00209619
0.000347663
0.00050919
0.00091815
0.0010048
0.000948737
0.000426347
0.000397072
0.000165431
2.00295e-06
-0.000394061
-0.00153619
-0.0021555
-0.00257994
-0.00325616
-0.00384945
-0.00397212
-0.00387542
-0.00373523
-0.00325144
-0.00201773
0.000374534
0.000511837
0.000902159
0.0010244
0.000973238
0.000425572
0.000347523
9.95202e-05
-7.19746e-05
-0.000433445
-0.00153054
-0.0022015
-0.00263919
-0.00327212
-0.0038798
-0.00404685
-0.00392618
-0.0037378
-0.0032067
-0.00194417
0.00040252
0.000516185
0.000884927
0.00103908
0.00100185
0.00042384
0.000298318
3.57145e-05
-0.00014559
-0.000479953
-0.00153166
-0.00223903
-0.00269635
-0.00329559
-0.00389619
-0.00410766
-0.00398403
-0.00374766
-0.0031572
-0.00185841
0.000431561
0.000522286
0.000866428
0.00104809
0.00102177
0.000422275
0.000252149
-2.65306e-05
-0.000222764
-0.000534137
-0.00153363
-0.00226536
-0.00275449
-0.00333
-0.00390617
-0.00416158
-0.00404148
-0.00374543
-0.0030947
-0.00177296
0.000461701
0.000529937
0.000846972
0.00105166
0.00102543
0.000419772
0.000206991
-8.73426e-05
-0.000300075
-0.000589525
-0.00153863
-0.00228966
-0.00281178
-0.00336819
-0.00390995
-0.00419932
-0.00408566
-0.00375038
-0.00305729
-0.00168839
0.000492879
0.000539674
0.000826881
0.00104917
0.00103134
0.000416697
0.000164155
-0.000145827
-0.00037672
-0.000648393
-0.00155137
-0.00231116
-0.00285496
-0.00340826
-0.00391812
-0.00422721
-0.00413586
-0.00377999
-0.00301338
-0.0015784
0.000525016
0.000551577
0.000806317
0.00104178
0.00101793
0.000411238
0.000124731
-0.000201537
-0.000453263
-0.000710656
-0.00156843
-0.00232926
-0.00288836
-0.00345441
-0.00393615
-0.00425093
-0.00418145
-0.00378882
-0.00295692
-0.00147727
0.000557447
0.000566511
0.000784647
0.00102953
0.00100854
0.000399705
8.75869e-05
-0.000252425
-0.000527133
-0.000773283
-0.00158763
-0.00235086
-0.00291811
-0.00349674
-0.00395782
-0.00426604
-0.00420709
-0.00379057
-0.00292427
-0.00139826
0.000590416
0.000584193
0.000762877
0.00101049
0.000921059
0.000384659
5.13797e-05
-0.000300046
-0.000593913
-0.000833498
-0.00160846
-0.0023777
-0.00293032
-0.00352773
-0.00397982
-0.00427556
-0.00422844
-0.00380744
-0.00290884
-0.00131691
0.000624578
0.000603196
0.000745502
0.000986296
0.000933842
0.000369351
-5.37121e-06
-0.000347052
-0.000650939
-0.00088964
-0.0016289
-0.00240823
-0.00294781
-0.00354822
-0.00400267
-0.00428863
-0.00425427
-0.00382382
-0.00288188
-0.00123098
0.000658214
0.000625917
0.000728839
0.000957073
0.000920226
0.000343361
-6.6495e-05
-0.000391638
-0.000696975
-0.000942082
-0.00164856
-0.00244142
-0.0029707
-0.00356184
-0.0040253
-0.00430376
-0.00427113
-0.00382455
-0.00285424
-0.0011549
0.000691802
0.000651579
0.000712873
0.000923992
0.000887536
0.000309798
-0.000128521
-0.000434704
-0.000736073
-0.000991764
-0.00166602
-0.00247405
-0.003002
-0.00357048
-0.00404091
-0.00431388
-0.0042822
-0.00382606
-0.00283118
-0.00108631
0.00072575
0.000678483
0.00069963
0.000886189
0.000843712
0.000281094
-0.00018847
-0.000481957
-0.000772614
-0.00103879
-0.00168118
-0.00250396
-0.00303961
-0.00357628
-0.00404684
-0.00431946
-0.00429332
-0.00382848
-0.00280672
-0.00101761
0.000759167
0.000706648
0.000686614
0.000842961
0.000811557
0.000257207
-0.000247729
-0.000535981
-0.000808713
-0.00108281
-0.00169497
-0.00252759
-0.00308133
-0.00358456
-0.00404745
-0.00432245
-0.00430163
-0.00382755
-0.00277764
-0.000947573
0.000791994
0.000735413
0.000673149
0.000796799
0.000777801
0.000236599
-0.000306075
-0.000597456
-0.000846177
-0.0011236
-0.00170708
-0.00254145
-0.00312373
-0.00360112
-0.00404701
-0.00431992
-0.00430279
-0.0038228
-0.00274616
-0.000877865
0.000824072
0.000764533
0.000662559
0.000748006
0.000741188
0.000218546
-0.00036007
-0.000664306
-0.000886935
-0.00116204
-0.00171928
-0.00254694
-0.00316357
-0.00362547
-0.00404606
-0.00431083
-0.00429684
-0.0038151
-0.00271438
-0.000808935
0.000855226
0.000793598
0.000653658
0.000697275
0.000700693
0.000202443
-0.000407263
-0.000735122
-0.00093386
-0.00119941
-0.00173222
-0.00254498
-0.00319545
-0.00365428
-0.00404856
-0.00429961
-0.00428497
-0.00380246
-0.0026809
-0.000741345
0.000885236
0.00082227
0.000646891
0.000645321
0.000655556
0.00018715
-0.000447238
-0.000807356
-0.000987713
-0.00123667
-0.00174669
-0.00253767
-0.0032157
-0.00368394
-0.00405785
-0.00428989
-0.00426748
-0.00378349
-0.00264689
-0.000677388
0.000913963
0.000850288
0.000642496
0.000593005
0.000604744
0.000170731
-0.000479539
-0.000877383
-0.00104866
-0.00127618
-0.00176312
-0.00252717
-0.00322354
-0.00370977
-0.00407252
-0.0042836
-0.00424786
-0.00376114
-0.00261275
-0.000615034
0.000941292
0.000877306
0.000640615
0.000541284
0.000548707
0.000151392
-0.000504412
-0.000942458
-0.00111623
-0.00131995
-0.00177798
-0.00251626
-0.00322213
-0.00372805
-0.00408894
-0.00428267
-0.00423008
-0.00373576
-0.00257529
-0.000552765
0.000967128
0.00090299
0.00064131
0.000491121
0.000488434
0.000127528
-0.000523407
-0.00100025
-0.00118791
-0.00136967
-0.00179764
-0.00250679
-0.00321445
-0.00373691
-0.00410332
-0.00428675
-0.00421549
-0.00370855
-0.00253541
-0.000491542
0.000991459
0.000926992
0.000644379
0.000443392
0.000424315
9.82587e-05
-0.000538056
-0.00104935
-0.00126116
-0.00142605
-0.00182182
-0.00249953
-0.00320323
-0.00373769
-0.00411252
-0.00429284
-0.00420562
-0.00368378
-0.00249585
-0.000432002
0.00101427
0.00094904
0.00064951
0.00039883
0.000357295
6.29514e-05
-0.000550507
-0.0010893
-0.00133329
-0.00148871
-0.00185151
-0.0024954
-0.00319118
-0.00373309
-0.00411488
-0.00429787
-0.00420057
-0.00366371
-0.0024592
-0.00037537
0.00103561
0.000968858
0.000656234
0.000358116
0.000288652
2.14954e-05
-0.000563109
-0.0011203
-0.00140116
-0.0015582
-0.00188791
-0.00249543
-0.00317956
-0.00372582
-0.00411193
-0.00430057
-0.00419861
-0.00364903
-0.00242751
-0.000322336
0.00105557
0.00098633
0.00066394
0.000321547
0.000219763
-2.585e-05
-0.000577674
-0.0011435
-0.00146257
-0.0016303
-0.00193123
-0.00250066
-0.00316918
-0.00371832
-0.00410633
-0.00429995
-0.00419708
-0.00363871
-0.0024015
-0.000274668
0.00107419
0.00100132
0.00067202
0.000289322
0.000151455
-7.99759e-05
-0.000595841
-0.00116067
-0.00151605
-0.00170333
-0.00198149
-0.00251238
-0.00316097
-0.00371202
-0.00410025
-0.00429635
-0.00419446
-0.0036312
-0.00238161
-0.000234385
0.00109156
0.00101381
0.000679781
0.000261666
8.47623e-05
-0.000137041
-0.000618394
-0.00117372
-0.00156285
-0.00177569
-0.00203793
-0.00253146
-0.00315646
-0.00370784
-0.00409584
-0.00429181
-0.00419085
-0.00362529
-0.00236706
-0.00020148
0.0011077
0.00102385
0.000686689
0.000238321
2.10263e-05
-0.00019765
-0.000645347
-0.00118371
-0.00159897
-0.00184476
-0.00209912
-0.00255805
-0.00315648
-0.0037062
-0.0040952
-0.00428952
-0.00418823
-0.00362083
-0.00235603
-0.000174541
0.00112266
0.00103152
0.00069542
0.000218952
-3.90917e-05
-0.000260789
-0.000679231
-0.00119537
-0.00162738
-0.00190938
-0.00216427
-0.00259198
-0.00316132
-0.00370697
-0.0040992
-0.00429157
-0.00418829
-0.00361799
-0.00234794
-0.000153927
0.00113643
0.00103689
0.000699353
0.000202927
-9.49387e-05
-0.000325238
-0.00071849
-0.0012102
-0.00164993
-0.00196855
-0.00223283
-0.00263404
-0.00317312
-0.00371044
-0.00410681
-0.00429793
-0.0041918
-0.00361763
-0.00234305
-0.000139474
0.00114908
0.00104016
0.000701144
0.000189577
-0.000146268
-0.000389433
-0.000762306
-0.00123002
-0.00166892
-0.00202026
-0.00230225
-0.00268443
-0.00319456
-0.00371904
-0.00411899
-0.00431054
-0.00420152
-0.00362232
-0.00234238
-0.00013018
0.00116044
0.00104163
0.000700881
0.000178306
-0.000192892
-0.000452649
-0.000809742
-0.00125635
-0.00168776
-0.0020647
-0.00237042
-0.00274088
-0.00322455
-0.00373308
-0.00413582
-0.00433038
-0.00421948
-0.00363492
-0.00234871
-0.000128767
0.00117057
0.00104127
0.000698363
0.000168625
-0.000234176
-0.00051372
-0.000859699
-0.00128822
-0.00171069
-0.00210575
-0.00243803
-0.00280398
-0.00326429
-0.00375386
-0.00415613
-0.00435491
-0.00424408
-0.00365565
-0.00236343
-0.000136736
0.00117935
0.00103977
0.000693303
0.000159482
-0.000271319
-0.000572531
-0.000910789
-0.0013235
-0.00173804
-0.00214428
-0.00250305
-0.00287329
-0.00331648
-0.00378641
-0.00418326
-0.00438531
-0.00427575
-0.00368508
-0.00238764
-0.000154455
0.00118644
0.00103674
0.00068734
0.000150907
-0.000303745
-0.000628216
-0.000964098
-0.00136337
-0.00177114
-0.00218264
-0.00256331
-0.00294416
-0.00337805
-0.00383264
-0.00422184
-0.00442571
-0.00431749
-0.00372544
-0.00242344
-0.00018435
0.00119176
0.00103342
0.000679553
0.000141989
-0.000332575
-0.000679498
-0.0010185
-0.00140781
-0.00181033
-0.00222516
-0.00262253
-0.00301502
-0.00344523
-0.00388972
-0.00427198
-0.00447737
-0.00437129
-0.00377895
-0.00247288
-0.000227689
0.00119517
0.00102652
0.000672245
0.00013451
-0.00035745
-0.000726522
-0.00107329
-0.00145571
-0.00185485
-0.00227517
-0.00268474
-0.00308822
-0.00351779
-0.0039559
-0.00433311
-0.00454114
-0.00444034
-0.00385122
-0.00254419
-0.000294251
0.0011963
0.00103655
0.00066325
0.000127589
-0.000375566
-0.000766647
-0.00112634
-0.00150765
-0.0019032
-0.00232845
-0.00274907
-0.00316297
-0.00359459
-0.00402996
-0.00440436
-0.00461497
-0.00452104
-0.00393765
-0.00263317
-0.000381965
0.001195
0.00100991
0.000643969
0.000112257
-0.000400472
-0.00080797
-0.00118323
-0.00157069
-0.00196296
-0.00238951
-0.00281912
-0.00324354
-0.00367955
-0.00411547
-0.00449049
-0.00470618
-0.00462009
-0.0040435
-0.00274155
-0.000488889
0.00119278
0.00103698
0.000662234
0.000127433
-0.00039947
-0.000838028
-0.00124115
-0.00164374
-0.0020349
-0.00245822
-0.00289301
-0.00332814
-0.00376977
-0.00420781
-0.00458694
-0.00481169
-0.00473712
-0.00417238
-0.00288166
-0.00063834
0.00116854
0.000973954
0.000609544
0.000110822
-0.000390574
-0.000833511
-0.00126578
-0.00170175
-0.00210055
-0.00251589
-0.00295347
-0.00339965
-0.00385135
-0.00429562
-0.00468555
-0.00492537
-0.00486746
-0.00431689
-0.00303729
-0.000803123
0.00119934
0.00104421
0.000668476
0.000114848
-0.000458829
-0.000951659
-0.00139317
-0.00183037
-0.00221596
-0.00260318
-0.00303113
-0.00347947
-0.00393962
-0.00439361
-0.0047999
-0.00505761
-0.0050191
-0.00448651
-0.00321739
-0.00098215
0.00106077
0.00092348
0.000662634
0.000232208
-0.000263724
-0.000820453
-0.00142399
-0.00193242
-0.0023312
-0.0027052
-0.00311911
-0.00357896
-0.0040559
-0.00453461
-0.0049663
-0.00525503
-0.00524971
-0.00475082
-0.00351515
-0.00131039
0.00122198
0.0010416
0.00063885
6.40396e-05
-0.000523007
-0.00106621
-0.00153178
-0.00194851
-0.00231015
-0.00265574
-0.0030676
-0.00353886
-0.00402906
-0.00451836
-0.00496744
-0.00529717
-0.00536569
-0.00497068
-0.00385958
-0.00179483
0.00109601
0.00100612
0.000595812
0.000134994
-0.000395982
-0.0010282
-0.00160527
-0.00206556
-0.00248626
-0.00285519
-0.00328963
-0.0037646
-0.00424357
-0.00465865
-0.00497574
-0.00512923
-0.00503916
-0.00454008
-0.00339695
-0.00134899
0.00129108
0.00100825
0.000566127
-5.31595e-06
-0.00058098
-0.00108409
-0.00149409
-0.00185677
-0.00224066
-0.00263173
-0.00308829
-0.00362158
-0.00423952
-0.00493177
-0.00563909
-0.00625806
-0.00662135
-0.00649297
-0.00560536
-0.00371345
0.00145475
0.000885125
0.000388319
-0.000179558
-0.000707893
-0.00132344
-0.00185759
-0.00219685
-0.00255059
-0.0030265
-0.00349789
-0.00389014
-0.00404428
-0.00386232
-0.00329452
-0.00243856
-0.00148186
-0.000725644
-0.000526426
-0.0012181
0.00145906
0.000941766
0.00042625
-8.67951e-05
-0.000517446
-0.000916708
-0.00126655
-0.00166866
-0.00211073
-0.00263727
-0.00326922
-0.00406436
-0.00498854
-0.00597425
-0.00691755
-0.00775135
-0.0083377
-0.00846116
-0.00783936
-0.00621854
0.00159907
0.000884942
0.000325446
-0.000204391
-0.000611491
-0.00112586
-0.00168557
-0.00233396
-0.00289167
-0.00323309
-0.0035691
-0.00403331
-0.00443851
-0.0046184
-0.00448114
-0.00402377
-0.00335105
-0.00275016
-0.00261336
-0.00330758
0.00159641
0.000871391
0.000334846
-7.5827e-05
-0.000317324
-0.0005841
-0.000845273
-0.00123866
-0.00174245
-0.00247698
-0.00348355
-0.00482214
-0.00641797
-0.00809854
-0.00963903
-0.0108525
-0.0115889
-0.0116764
-0.0108981
-0.00905829
0.000493014
-0.00685059
-0.00937289
-0.00751544
-0.00509372
-0.0029996
-0.00125601
0.000114533
0.00130244
0.00250843
0.00368263
0.00478771
0.00589471
0.00709027
0.00832642
0.00955846
0.0108276
0.0121245
0.0134448
0.0148737
0.0163626
0.0178489
0.019361
0.0209343
0.0225447
0.0241747
0.0258538
0.0275774
0.0294323
0.0314797
0.0335575
0.0355008
0.0375576
0.0397698
0.0420609
0.0444193
0.0468266
0.0493229
0.0518251
0.0544656
0.0571956
0.0601148
0.0630734
0.0661265
0.0693314
0.0725539
0.0759903
0.0793754
0.0826153
0.0861876
0.000420981
-0.00678414
-0.00932902
-0.00749915
-0.00508516
-0.00299374
-0.00125138
0.000118413
0.00130566
0.00251108
0.00368484
0.00478955
0.00589625
0.00709155
0.00832749
0.00955936
0.0108284
0.0121252
0.0134454
0.0148742
0.0163631
0.0178494
0.0193615
0.0209347
0.0225451
0.0241751
0.0258541
0.0275778
0.0294326
0.0314799
0.0335578
0.0355011
0.0375578
0.03977
0.0420611
0.0444195
0.0468268
0.0493231
0.0518253
0.0544658
0.0571957
0.0601149
0.0630735
0.0661266
0.0693314
0.072554
0.0759904
0.0793755
0.0826154
0.0861876
0.000276695
-0.00669096
-0.0092583
-0.00747642
-0.00507518
-0.00298752
-0.00124686
0.00012202
0.00130862
0.00251355
0.00368692
0.00479125
0.00589765
0.00709273
0.00832849
0.00956018
0.0108291
0.0121258
0.0134459
0.0148747
0.0163636
0.0178498
0.0193618
0.020935
0.0225455
0.0241754
0.0258544
0.0275781
0.0294328
0.0314802
0.033558
0.0355013
0.037558
0.0397702
0.0420613
0.0444197
0.0468269
0.0493232
0.0518254
0.0544659
0.0571958
0.060115
0.0630736
0.0661267
0.0693315
0.0725541
0.0759905
0.0793756
0.0826154
0.0861877
0.000137763
-0.00656669
-0.00915112
-0.00743985
-0.00506061
-0.00297935
-0.00124164
0.000125856
0.00131178
0.00251629
0.00368922
0.0047931
0.00589916
0.00709403
0.0083296
0.00956109
0.0108298
0.0121264
0.0134465
0.0148752
0.016364
0.0178502
0.0193622
0.0209354
0.0225458
0.0241757
0.0258547
0.0275783
0.0294331
0.0314804
0.0335583
0.0355015
0.0375582
0.0397704
0.0420615
0.0444198
0.0468271
0.0493234
0.0518255
0.054466
0.0571959
0.0601151
0.0630737
0.0661268
0.0693316
0.0725541
0.0759905
0.0793756
0.0826155
0.0861877
1.74378e-05
-0.00641687
-0.00901282
-0.00738862
-0.00504002
-0.00296808
-0.00123499
0.000130274
0.0013154
0.00251958
0.00369206
0.00479535
0.005901
0.00709564
0.00833101
0.00956223
0.0108307
0.0121272
0.0134471
0.0148757
0.0163645
0.0178507
0.0193626
0.0209358
0.0225462
0.0241761
0.025855
0.0275786
0.0294333
0.0314807
0.0335585
0.0355018
0.0375584
0.0397706
0.0420617
0.04442
0.0468272
0.0493235
0.0518257
0.0544661
0.057196
0.0601152
0.0630738
0.0661269
0.0693317
0.0725542
0.0759906
0.0793757
0.0826156
0.0861878
-9.53427e-05
-0.00625379
-0.00885675
-0.00732755
-0.00501465
-0.00295368
-0.0012266
0.000135463
0.00131954
0.0025235
0.00369556
0.00479817
0.00590332
0.00709772
0.00833286
0.00956373
0.0108319
0.0121281
0.0134478
0.0148763
0.0163651
0.0178512
0.0193631
0.0209362
0.0225465
0.0241764
0.0258554
0.0275789
0.0294336
0.0314809
0.0335588
0.035502
0.0375586
0.0397708
0.0420619
0.0444202
0.0468274
0.0493237
0.0518258
0.0544662
0.0571962
0.0601154
0.0630739
0.066127
0.0693318
0.0725543
0.0759907
0.0793758
0.0826158
0.0861879
-0.00020942
-0.00608539
-0.00869089
-0.00726089
-0.00498647
-0.00293693
-0.00121648
0.000141566
0.00132418
0.00252795
0.00369971
0.00480164
0.00590624
0.00710038
0.00833525
0.00956571
0.0108334
0.0121292
0.0134487
0.014877
0.0163657
0.0178517
0.0193635
0.0209366
0.022547
0.0241768
0.0258557
0.0275792
0.0294339
0.0314812
0.0335591
0.0355023
0.0375588
0.0397711
0.0420621
0.0444204
0.0468276
0.0493239
0.051826
0.0544664
0.0571963
0.0601155
0.063074
0.0661271
0.0693319
0.0725544
0.0759908
0.0793759
0.082616
0.0861881
-0.000326697
-0.00591405
-0.00851772
-0.00719053
-0.00495679
-0.00291863
-0.00120488
0.00014862
0.0013293
0.00253278
0.00370436
0.00480572
0.00590982
0.0071037
0.00833828
0.00956826
0.0108354
0.0121308
0.0134498
0.0148779
0.0163663
0.0178523
0.0193641
0.0209371
0.0225475
0.0241772
0.025856
0.0275796
0.0294341
0.0314815
0.0335595
0.0355026
0.037559
0.0397713
0.0420623
0.0444206
0.0468278
0.049324
0.0518261
0.0544665
0.0571964
0.0601156
0.0630741
0.0661272
0.069332
0.0725545
0.0759909
0.0793761
0.0826163
0.0861883
-0.000445608
-0.00573978
-0.00833753
-0.00711707
-0.00492625
-0.00289938
-0.00119217
0.000156534
0.00133484
0.00253783
0.0037093
0.00481025
0.00591401
0.0071077
0.00834193
0.00957136
0.0108379
0.0121327
0.0134513
0.0148789
0.0163671
0.0178529
0.0193646
0.0209377
0.022548
0.0241778
0.0258564
0.0275799
0.0294344
0.0314818
0.0335598
0.0355028
0.0375593
0.0397715
0.0420626
0.0444208
0.046828
0.0493243
0.0518263
0.0544666
0.0571965
0.0601157
0.0630743
0.0661273
0.0693321
0.0725546
0.075991
0.0793763
0.0826166
0.0861885
-0.000564171
-0.00556268
-0.00815039
-0.00704059
-0.00489512
-0.00287948
-0.00117862
0.000165141
0.00134073
0.00254298
0.00371435
0.00481502
0.00591866
0.00711231
0.00834616
0.00957495
0.0108409
0.0121351
0.0134531
0.0148802
0.0163679
0.0178535
0.0193652
0.0209382
0.0225486
0.0241784
0.0258569
0.0275802
0.0294346
0.0314821
0.0335602
0.0355031
0.0375595
0.0397718
0.0420628
0.0444211
0.0468283
0.0493245
0.0518265
0.0544668
0.0571967
0.0601159
0.0630744
0.0661274
0.0693323
0.0725547
0.0759911
0.0793765
0.0826171
0.0861889
-0.000681285
-0.0053834
-0.00795636
-0.00696093
-0.00486348
-0.00285905
-0.0011644
0.000174292
0.00134688
0.00254815
0.00371943
0.00481991
0.00592363
0.00711742
0.00835091
0.00957894
0.0108442