/*--------------------------------*- C++ -*----------------------------------*\
| =========                 |                                                 |
| \\      /  F ield         | OpenFOAM: The Open Source CFD Toolbox           |
|  \\    /   O peration     | Version:  v2012                                 |
|   \\  /    A nd           | Website:  www.openfoam.com                      |
|    \\/     M anipulation  |                                                 |
\*---------------------------------------------------------------------------*/
FoamFile
{
    version     2.0;
    format      ascii;
    class       surfaceScalarField;
    location    "8.9";
    object      phi;
}
// * * * * * * * * * * * * * * * * * * * * * * * * * * * * * * * * * * * * * //

dimensions      [0 3 -1 0 0 0 0];
oriented        oriented;


internalField   nonuniform List<scalar> 
13830
(
9.39975e-07
-4.97989e-07
9.55152e-07
-3.20677e-07
9.57519e-07
5.61423e-07
9.31224e-07
1.17553e-06
8.86097e-07
3.03762e-07
9.00141e-07
-9.20164e-07
9.57206e-07
-5.02053e-07
8.72181e-07
-1.62497e-06
9.4439e-07
-4.39296e-07
8.91053e-07
-7.75775e-07
9.35228e-07
-2.47009e-07
9.24937e-07
-3.08477e-07
9.40611e-07
-1.41411e-07
9.5525e-07
1.16608e-07
9.52191e-07
1.04467e-07
9.60349e-07
2.73477e-07
9.53467e-07
1.95764e-07
9.60168e-07
2.60322e-07
9.53611e-07
1.9108e-07
2.1448e-07
9.49267e-07
9.76315e-07
-5.01772e-07
9.91268e-07
-3.35629e-07
9.91987e-07
5.60703e-07
9.70689e-07
1.19682e-06
9.26975e-07
3.47477e-07
9.38942e-07
-9.32131e-07
9.86042e-07
-5.49152e-07
9.05704e-07
-1.54463e-06
9.74993e-07
-5.08585e-07
9.23017e-07
-7.238e-07
9.67853e-07
-2.91845e-07
9.56525e-07
-2.97149e-07
9.75275e-07
-1.60162e-07
9.91179e-07
1.00704e-07
9.86634e-07
1.09012e-07
1.00108e-06
2.59033e-07
9.85866e-07
2.10976e-07
1.00263e-06
2.43556e-07
9.81479e-07
2.12233e-07
1.96653e-07
9.99306e-07
1.01353e-06
-5.05851e-07
1.0288e-06
-3.50892e-07
1.0263e-06
5.63203e-07
1.01183e-06
1.21129e-06
9.74065e-07
3.85238e-07
9.81386e-07
-9.39452e-07
1.01678e-06
-5.84548e-07
9.4856e-07
-1.47641e-06
1.00697e-06
-5.66995e-07
9.66312e-07
-6.83142e-07
1.00094e-06
-3.26472e-07
1.00075e-06
-2.96958e-07
1.00764e-06
-1.67055e-07
1.0357e-06
7.2646e-08
1.01842e-06
1.26287e-07
1.04218e-06
2.35276e-07
1.01927e-06
2.33886e-07
1.03612e-06
2.26704e-07
1.01852e-06
2.29835e-07
1.89612e-07
1.02556e-06
1.05137e-06
-5.09449e-07
1.06692e-06
-3.66438e-07
1.06158e-06
5.68542e-07
1.05284e-06
1.22003e-06
1.02425e-06
4.13835e-07
1.02691e-06
-9.42121e-07
1.04902e-06
-6.06652e-07
9.96796e-07
-1.42418e-06
1.0395e-06
-6.097e-07
1.01647e-06
-6.6011e-07
1.0365e-06
-3.46503e-07
1.04966e-06
-3.10121e-07
1.04406e-06
-1.6145e-07
1.0764e-06
4.03033e-08
1.05546e-06
1.47228e-07
1.07496e-06
2.15775e-07
1.05774e-06
2.51107e-07
1.06575e-06
2.18693e-07
1.05721e-06
2.3838e-07
1.89607e-07
1.05721e-06
1.08991e-06
-5.11808e-07
1.10495e-06
-3.81478e-07
1.09859e-06
5.74907e-07
1.09401e-06
1.22461e-06
1.07587e-06
4.31974e-07
1.07467e-06
-9.40917e-07
1.08419e-06
-6.16175e-07
1.04718e-06
-1.38717e-06
1.0727e-06
-6.35219e-07
1.0676e-06
-6.5501e-07
1.07462e-06
-3.5352e-07
1.09654e-06
-3.32043e-07
1.08605e-06
-1.50961e-07
1.11443e-06
1.19258e-08
1.09925e-06
1.62408e-07
1.10978e-06
2.0524e-07
1.10061e-06
2.6028e-07
1.10204e-06
2.17266e-07
1.09828e-06
2.42136e-07
1.9205e-07
1.09584e-06
1.12954e-06
-5.12501e-07
1.14276e-06
-3.94702e-07
1.13735e-06
5.80321e-07
1.13608e-06
1.22588e-06
1.12799e-06
4.40058e-07
1.12395e-06
-9.36872e-07
1.12317e-06
-6.15398e-07
1.09689e-06
-1.36089e-06
1.10755e-06
-6.45875e-07
1.11597e-06
-6.63433e-07
1.11536e-06
-3.5291e-07
1.1397e-06
-3.56383e-07
1.13221e-06
-1.43462e-07
1.15459e-06
-1.0458e-08
1.14748e-06
1.69522e-07
1.15207e-06
2.00641e-07
1.14741e-06
2.64939e-07
1.14621e-06
2.18469e-07
1.14377e-06
2.44581e-07
1.94964e-07
1.14085e-06
1.17066e-06
-5.11462e-07
1.1808e-06
-4.04846e-07
1.17757e-06
5.83555e-07
1.17955e-06
1.2239e-06
1.18002e-06
4.39592e-07
1.17427e-06
-9.31127e-07
1.16602e-06
-6.07144e-07
1.14504e-06
-1.33991e-06
1.14495e-06
-6.45787e-07
1.16126e-06
-6.79744e-07
1.15808e-06
-3.49734e-07
1.18076e-06
-3.79064e-07
1.17904e-06
-1.41737e-07
1.19783e-06
-2.92551e-08
1.19661e-06
1.70749e-07
1.19975e-06
1.97503e-07
1.19692e-06
2.67763e-07
1.19532e-06
2.2007e-07
1.19303e-06
2.46871e-07
1.97794e-07
1.1902e-06
1.21355e-06
-5.08827e-07
1.21992e-06
-4.1122e-07
1.21918e-06
5.84301e-07
1.22468e-06
1.21839e-06
1.23171e-06
4.32565e-07
1.22534e-06
-9.2476e-07
1.21211e-06
-5.93915e-07
1.19236e-06
-1.32016e-06
1.18525e-06
-6.38676e-07
1.2048e-06
-6.9929e-07
1.20174e-06
-3.46674e-07
1.22152e-06
-3.9885e-07
1.22423e-06
-1.44442e-07
1.24237e-06
-4.73959e-08
1.2446e-06
1.68517e-07
1.24889e-06
1.93217e-07
1.24724e-06
2.69405e-07
1.24602e-06
2.21297e-07
1.24396e-06
2.48927e-07
2.00476e-07
1.24128e-06
1.25829e-06
-5.04767e-07
1.26101e-06
-4.13933e-07
1.26252e-06
5.8279e-07
1.27157e-06
1.20934e-06
1.28308e-06
4.21051e-07
1.27692e-06
-9.18592e-07
1.26061e-06
-5.77611e-07
1.24024e-06
-1.29979e-06
1.22854e-06
-6.26978e-07
1.2481e-06
-7.18845e-07
1.24579e-06
-3.44365e-07
1.26304e-06
-4.16099e-07
1.26784e-06
-1.49241e-07
1.2868e-06
-6.6356e-08
1.29119e-06
1.64123e-07
1.29731e-06
1.87097e-07
1.29709e-06
2.69619e-07
1.29637e-06
2.22024e-07
1.29495e-06
2.50341e-07
2.02978e-07
1.29245e-06
1.30493e-06
-4.99419e-07
1.30475e-06
-4.13752e-07
1.30818e-06
5.79355e-07
1.32032e-06
1.19721e-06
1.33432e-06
4.07047e-07
1.32883e-06
-9.13096e-07
1.31083e-06
-5.59615e-07
1.28984e-06
-1.2788e-06
1.27493e-06
-6.12074e-07
1.29239e-06
-7.36298e-07
1.29042e-06
-3.42402e-07
1.30573e-06
-4.31403e-07
1.31105e-06
-1.54568e-07
1.33098e-06
-8.62809e-08
1.33711e-06
1.57994e-07
1.34485e-06
1.79352e-07
1.34642e-06
2.6805e-07
1.3462e-06
2.22248e-07
1.34575e-06
2.50787e-07
2.05186e-07
1.34354e-06
1.35353e-06
-4.9293e-07
1.35148e-06
-4.11701e-07
1.35661e-06
5.74223e-07
1.37102e-06
1.1828e-06
1.38569e-06
3.92373e-07
1.38099e-06
-9.08398e-07
1.36235e-06
-5.40968e-07
1.34182e-06
-1.25827e-06
1.32456e-06
-5.9482e-07
1.33862e-06
-7.50355e-07
1.33623e-06
-3.40015e-07
1.3497e-06
-4.44871e-07
1.35489e-06
-1.59759e-07
1.37533e-06
-1.06715e-07
1.38327e-06
1.50051e-07
1.3923e-06
1.7032e-07
1.39596e-06
2.64396e-07
1.39632e-06
2.21884e-07
1.39704e-06
2.50068e-07
2.06926e-07
1.3953e-06
1.40424e-06
-4.8552e-07
1.4012e-06
-4.08656e-07
1.40786e-06
5.67565e-07
1.42372e-06
1.16694e-06
1.43758e-06
3.78514e-07
1.43351e-06
-9.04333e-07
1.41504e-06
-5.22497e-07
1.39638e-06
-1.23961e-06
1.37745e-06
-5.75885e-07
1.38752e-06
-7.6043e-07
1.38395e-06
-3.36449e-07
1.39514e-06
-4.56052e-07
1.39988e-06
-1.64506e-07
1.42015e-06
-1.26985e-07
1.43024e-06
1.39966e-07
1.44038e-06
1.60182e-07
1.44639e-06
2.58377e-07
1.44754e-06
2.20736e-07
1.44953e-06
2.48079e-07
2.0803e-07
1.44843e-06
1.45723e-06
-4.77501e-07
1.45369e-06
-4.0512e-07
1.46164e-06
5.59621e-07
1.47843e-06
1.15015e-06
1.49049e-06
3.66452e-07
1.48666e-06
-9.00504e-07
1.46906e-06
-5.04894e-07
1.45342e-06
-1.22397e-06
1.43337e-06
-5.55841e-07
1.43953e-06
-7.6659e-07
1.43431e-06
-3.31225e-07
1.4425e-06
-4.6424e-07
1.4464e-06
-1.68405e-07
1.46562e-06
-1.46204e-07
1.4781e-06
1.27481e-07
1.48926e-06
1.49026e-07
1.49784e-06
2.49789e-07
1.50003e-06
2.18554e-07
1.50333e-06
2.44779e-07
2.08375e-07
1.50298e-06
1.51259e-06
-4.69219e-07
1.5087e-06
-4.01226e-07
1.51759e-06
5.5073e-07
1.53514e-06
1.1326e-06
1.54497e-06
3.56623e-07
1.54082e-06
-8.96355e-07
1.52469e-06
-4.8876e-07
1.5126e-06
-1.21188e-06
1.49194e-06
-5.35178e-07
1.49474e-06
-7.69392e-07
1.48783e-06
-3.24315e-07
1.49247e-06
-4.68877e-07
1.49496e-06
-1.70894e-07
1.51197e-06
-1.63222e-07
1.5267e-06
1.12753e-07
1.53865e-06
1.37079e-07
1.54976e-06
2.38674e-07
1.55315e-06
2.15165e-07
1.55772e-06
2.40216e-07
2.07901e-07
1.55819e-06
1.57037e-06
-4.6098e-07
1.56604e-06
-3.96891e-07
1.57552e-06
5.41252e-07
1.59394e-06
1.11417e-06
1.60154e-06
3.49025e-07
1.59648e-06
-8.91297e-07
1.5823e-06
-4.74583e-07
1.57354e-06
-1.20312e-06
1.55269e-06
-5.14326e-07
1.55288e-06
-7.69585e-07
1.54471e-06
-3.16147e-07
1.54568e-06
-4.6984e-07
1.54628e-06
-1.71493e-07
1.55982e-06
-1.76762e-07
1.57603e-06
9.65353e-08
1.58818e-06
1.24932e-07
1.60138e-06
2.25476e-07
1.60595e-06
2.10598e-07
1.61159e-06
2.34572e-07
2.06627e-07
1.61286e-06
1.63055e-06
-4.52989e-07
1.62565e-06
-3.91988e-07
1.63544e-06
5.31461e-07
1.65497e-06
1.09464e-06
1.66056e-06
3.43436e-07
1.65411e-06
-8.84845e-07
1.64219e-06
-4.62667e-07
1.63592e-06
-1.19685e-06
1.61529e-06
-4.93694e-07
1.61349e-06
-7.67786e-07
1.60478e-06
-3.07436e-07
1.60241e-06
-4.6747e-07
1.60105e-06
-1.70137e-07
1.61005e-06
-1.85766e-07
1.62652e-06
8.00691e-08
1.63794e-06
1.13512e-07
1.65234e-06
2.1108e-07
1.65779e-06
2.05141e-07
1.66418e-06
2.28183e-07
2.04646e-07
1.66617e-06
1.6931e-06
-4.4534e-07
1.68756e-06
-3.86451e-07
1.69752e-06
5.21503e-07
1.7184e-06
1.07376e-06
1.72225e-06
3.39589e-07
1.71414e-06
-8.76735e-07
1.70451e-06
-4.53044e-07
1.69964e-06
-1.19197e-06
1.67964e-06
-4.73693e-07
1.67614e-06
-7.64287e-07
1.66765e-06
-2.98951e-07
1.66254e-06
-4.62352e-07
1.65973e-06
-1.67331e-07
1.66367e-06
-1.89704e-07
1.67907e-06
6.46627e-08
1.68877e-06
1.03816e-07
1.70321e-06
1.96643e-07
1.70908e-06
1.99268e-07
1.71577e-06
2.21495e-07
2.02114e-07
1.7183e-06
1.75802e-06
-4.38042e-07
1.75186e-06
-3.8029e-07
1.76193e-06
5.1143e-07
1.78434e-06
1.05135e-06
1.78669e-06
3.37241e-07
1.77691e-06
-8.66959e-07
1.76932e-06
-4.45446e-07
1.76482e-06
-1.18748e-06
1.74585e-06
-4.5472e-07
1.74062e-06
-7.59059e-07
1.733e-06
-2.91332e-07
1.7257e-06
-4.55048e-07
1.7224e-06
-1.64029e-07
1.72142e-06
-1.88733e-07
1.73484e-06
5.12443e-08
1.7421e-06
9.65592e-08
1.75546e-06
1.83278e-07
1.76126e-06
1.93473e-07
1.76779e-06
2.14969e-07
1.99221e-07
1.77068e-06
1.82535e-06
-4.31058e-07
1.81861e-06
-3.73552e-07
1.82877e-06
5.01269e-07
1.85284e-06
1.02728e-06
1.85392e-06
3.36162e-07
1.84268e-06
-8.55712e-07
1.8366e-06
-4.39372e-07
1.83173e-06
-1.18261e-06
1.81415e-06
-4.37135e-07
1.807e-06
-7.5191e-07
1.80069e-06
-2.85018e-07
1.79155e-06
-4.45913e-07
1.78886e-06
-1.61335e-07
1.78369e-06
-1.83568e-07
1.7948e-06
4.01401e-08
1.79944e-06
9.19206e-08
1.81095e-06
1.71767e-07
1.81632e-06
1.88106e-07
1.82233e-06
2.08956e-07
1.96146e-07
1.8254e-06
1.89517e-06
-4.24333e-07
1.88791e-06
-3.66283e-07
1.89809e-06
4.91088e-07
1.92388e-06
1.00148e-06
1.92397e-06
3.36072e-07
1.91157e-06
-8.43304e-07
1.9064e-06
-4.3421e-07
1.90066e-06
-1.17687e-06
1.88479e-06
-4.21264e-07
1.87554e-06
-7.42657e-07
1.87079e-06
-2.80273e-07
1.85996e-06
-4.35077e-07
1.85878e-06
-1.60153e-07
1.85041e-06
-1.75205e-07
1.8594e-06
3.11542e-08
1.86177e-06
8.95483e-08
1.87111e-06
1.6243e-07
1.87592e-06
1.8329e-07
1.88125e-06
2.03626e-07
1.93015e-07
1.88438e-06
1.96759e-06
-4.17817e-07
1.95981e-06
-3.58509e-07
1.96989e-06
4.81015e-07
1.99742e-06
9.73954e-07
1.99687e-06
3.36616e-07
1.98364e-06
-8.30071e-07
1.97881e-06
-4.29385e-07
1.97184e-06
-1.16989e-06
1.95798e-06
-4.07407e-07
1.94654e-06
-7.31213e-07
1.94354e-06
-2.77273e-07
1.93096e-06
-4.225e-07
1.93179e-06
-1.60985e-07
1.92123e-06
-1.6464e-07
1.92853e-06
2.38492e-08
1.92931e-06
8.87689e-08
1.93655e-06
1.55191e-07
1.94089e-06
1.78956e-07
1.94554e-06
1.98974e-07
1.8988e-07
1.94867e-06
2.04269e-06
-4.11462e-07
2.03444e-06
-3.50253e-07
2.04422e-06
4.71235e-07
2.07341e-06
9.4476e-07
2.07264e-06
3.37384e-07
2.0589e-06
-8.16327e-07
2.05398e-06
-4.24466e-07
2.04542e-06
-1.16133e-06
2.03386e-06
-3.95853e-07
2.02026e-06
-7.17607e-07
2.01913e-06
-2.76149e-07
2.00474e-06
-4.08112e-07
2.00763e-06
-1.6387e-07
1.99571e-06
-1.52719e-07
2.00175e-06
1.78099e-08
2.00166e-06
8.88607e-08
2.00711e-06
1.49737e-07
2.01112e-06
1.74947e-07
2.01523e-06
1.94866e-07
1.86736e-07
2.01837e-06
2.12061e-06
-4.0523e-07
2.1119e-06
-3.41549e-07
2.12118e-06
4.61963e-07
2.15188e-06
9.14052e-07
2.15131e-06
3.37956e-07
2.13733e-06
-8.02342e-07
2.13207e-06
-4.19209e-07
2.12154e-06
-1.1508e-06
2.11255e-06
-3.8687e-07
2.09687e-06
-7.01922e-07
2.09771e-06
-2.76987e-07
2.08152e-06
-3.91926e-07
2.08612e-06
-1.68465e-07
2.07349e-06
-1.4009e-07
2.07852e-06
1.2776e-08
2.07816e-06
8.92239e-08
2.08221e-06
1.45687e-07
2.08602e-06
1.71137e-07
2.08978e-06
1.91103e-07
1.83555e-07
2.09296e-06
2.20144e-06
-3.99086e-07
2.19237e-06
-3.32476e-07
2.20091e-06
4.53418e-07
2.23289e-06
8.8207e-07
2.23289e-06
3.37959e-07
2.21888e-06
-7.88335e-07
2.21324e-06
-4.13568e-07
2.20036e-06
-1.13791e-06
2.19417e-06
-3.80683e-07
2.17652e-06
-6.84277e-07
2.17933e-06
-2.7979e-07
2.16148e-06
-3.74076e-07
2.16721e-06
-1.74197e-07
2.15436e-06
-1.27245e-07
2.15847e-06
8.66422e-09
2.15825e-06
8.94456e-08
2.16124e-06
1.427e-07
2.16492e-06
1.67454e-07
2.16855e-06
1.8748e-07
1.80317e-07
2.17178e-06
2.2853e-06
-3.92994e-07
2.27599e-06
-3.23165e-07
2.28362e-06
4.45788e-07
2.31655e-06
8.49139e-07
2.31741e-06
3.371e-07
2.30354e-06
-7.74462e-07
2.29764e-06
-4.0767e-07
2.28206e-06
-1.12233e-06
2.27878e-06
-3.77404e-07
2.25935e-06
-6.64846e-07
2.26401e-06
-2.84452e-07
2.24475e-06
-3.54817e-07
2.25095e-06
-1.80391e-07
2.23828e-06
-1.1458e-07
2.24143e-06
5.51943e-09
2.24159e-06
8.9286e-08
2.24378e-06
1.40509e-07
2.24728e-06
1.63956e-07
2.251e-06
1.83752e-07
1.76999e-07
2.25432e-06
2.3723e-06
-3.86913e-07
2.36294e-06
-3.13802e-07
2.36952e-06
4.39204e-07
2.40302e-06
8.15647e-07
2.40493e-06
3.35185e-07
2.39127e-06
-7.608e-07
2.38538e-06
-4.01782e-07
2.36685e-06
-1.1038e-06
2.36645e-06
-3.77006e-07
2.34545e-06
-6.43851e-07
2.35176e-06
-2.90758e-07
2.33147e-06
-3.34525e-07
2.33744e-06
-1.86369e-07
2.32532e-06
-1.02454e-07
2.32737e-06
3.46577e-09
2.328e-06
8.86551e-08
2.32954e-06
1.38971e-07
2.33261e-06
1.60886e-07
2.33686e-06
1.79508e-07
1.7359e-07
2.34026e-06
2.46255e-06
-3.80786e-07
2.45336e-06
-3.04612e-07
2.45886e-06
4.33705e-07
2.49248e-06
7.82023e-07
2.49556e-06
3.32114e-07
2.48209e-06
-7.47332e-07
2.47657e-06
-3.96263e-07
2.45495e-06
-1.08218e-06
2.45727e-06
-3.79325e-07
2.43494e-06
-6.21524e-07
2.44258e-06
-2.98393e-07
2.42171e-06
-3.13655e-07
2.42687e-06
-1.91531e-07
2.41561e-06
-9.11873e-08
2.41644e-06
2.63468e-09
2.41756e-06
8.75265e-08
2.41799e-06
1.3855e-07
2.42064e-06
1.58236e-07
2.42602e-06
1.74128e-07
1.70105e-07
2.4295e-06
2.55615e-06
-3.74536e-07
2.54738e-06
-2.95837e-07
2.55186e-06
4.29223e-07
2.58518e-06
7.48698e-07
2.58944e-06
3.27857e-07
2.57604e-06
-7.33933e-07
2.57131e-06
-3.91527e-07
2.54662e-06
-1.05749e-06
2.55135e-06
-3.84058e-07
2.52791e-06
-5.98083e-07
2.53651e-06
-3.06994e-07
2.51555e-06
-2.92691e-07
2.51944e-06
-1.9542e-07
2.50924e-06
-8.09942e-08
2.50882e-06
3.06108e-09
2.51034e-06
8.60034e-08
2.51511e-06
1.33786e-07
2.51965e-06
1.53691e-07
2.51848e-06
1.75299e-07
1.66592e-07
2.52199e-06
2.65321e-06
-3.68071e-07
2.64508e-06
-2.87699e-07
2.64872e-06
4.25577e-07
2.68135e-06
7.16066e-07
2.68678e-06
3.22436e-07
2.67322e-06
-7.20378e-07
2.66967e-06
-3.87977e-07
2.64208e-06
-1.0299e-06
2.64881e-06
-3.9079e-07
2.62446e-06
-5.7374e-07
2.63362e-06
-3.16149e-07
2.61306e-06
-2.72133e-07
2.61534e-06
-1.97698e-07
2.60639e-06
-7.20426e-08
2.6052e-06
4.25458e-09
2.60502e-06
8.61801e-08
2.60515e-06
1.33655e-07
2.60763e-06
1.51209e-07
2.61438e-06
1.6855e-07
1.63043e-07
2.61793e-06
2.75387e-06
-3.6129e-07
2.74654e-06
-2.80372e-07
2.74963e-06
4.22493e-07
2.78125e-06
6.84443e-07
2.78778e-06
3.15902e-07
2.77378e-06
-7.06373e-07
2.77172e-06
-3.85913e-07
2.74152e-06
-9.99706e-07
2.74972e-06
-3.98989e-07
2.72481e-06
-5.48827e-07
2.73395e-06
-3.25287e-07
2.71447e-06
-2.52655e-07
2.71459e-06
-1.97822e-07
2.70743e-06
-6.48743e-08
2.70529e-06
6.39253e-09
2.70399e-06
8.74749e-08
2.70337e-06
1.3428e-07
2.70538e-06
1.492e-07
2.71401e-06
1.59916e-07
1.59669e-07
2.71739e-06
2.85827e-06
-3.54104e-07
2.85185e-06
-2.73949e-07
2.85471e-06
4.19634e-07
2.8851e-06
6.54052e-07
2.89271e-06
3.08297e-07
2.87789e-06
-6.91559e-07
2.87749e-06
-3.85508e-07
2.84508e-06
-9.67305e-07
2.85423e-06
-4.08139e-07
2.82913e-06
-5.23719e-07
2.83758e-06
-3.33741e-07
2.82e-06
-2.35072e-07
2.81733e-06
-1.95151e-07
2.81236e-06
-5.99072e-08
2.81045e-06
8.29892e-09
2.81581e-06
8.21216e-08
2.82064e-06
1.29447e-07
2.82378e-06
1.46055e-07
2.81758e-06
1.66122e-07
1.56765e-07
2.82048e-06
2.96658e-06
-3.46444e-07
2.96108e-06
-2.68447e-07
2.96407e-06
4.16645e-07
2.99311e-06
6.25012e-07
3.00178e-06
2.9963e-07
2.98578e-06
-6.75558e-07
2.98706e-06
-3.86792e-07
2.95287e-06
-9.33117e-07
2.96249e-06
-4.17755e-07
2.93751e-06
-4.9874e-07
2.94487e-06
-3.41097e-07
2.92955e-06
-2.19751e-07
2.9241e-06
-1.89709e-07
2.921e-06
-5.68065e-08
2.91409e-06
1.52067e-08
2.91372e-06
8.24987e-08
2.91172e-06
1.31441e-07
2.91298e-06
1.44802e-07
2.92489e-06
1.54207e-07
1.5386e-07
2.9278e-06
3.07899e-06
-3.38274e-07
3.07435e-06
-2.63805e-07
3.07779e-06
4.13198e-07
3.10544e-06
5.97362e-07
3.11523e-06
2.89842e-07
3.09771e-06
-6.58039e-07
3.10057e-06
-3.89649e-07
3.06502e-06
-8.97565e-07
3.07467e-06
-4.27409e-07
3.05008e-06
-4.7415e-07
3.05609e-06
-3.47108e-07
3.04284e-06
-2.06499e-07
3.03575e-06
-1.82622e-07
3.03412e-06
-5.51763e-08
3.0325e-06
1.68319e-08
3.03977e-06
7.52235e-08
3.04428e-06
1.26938e-07
3.04674e-06
1.42336e-07
3.03642e-06
1.64533e-07
1.51118e-07
3.03916e-06
3.19569e-06
-3.29602e-07
3.19178e-06
-2.59896e-07
3.19597e-06
4.09007e-07
3.22219e-06
5.7114e-07
3.23329e-06
2.78747e-07
3.21394e-06
-6.38691e-07
3.21823e-06
-3.93934e-07
3.18159e-06
-8.60933e-07
3.19098e-06
-4.36791e-07
3.16691e-06
-4.50088e-07
3.17179e-06
-3.51988e-07
3.15914e-06
-1.93851e-07
3.15349e-06
-1.76969e-07
3.15011e-06
-5.17913e-08
3.14918e-06
1.77604e-08
3.1399e-06
8.45062e-08
3.13842e-06
1.28414e-07
3.14099e-06
1.39764e-07
3.15162e-06
1.539e-07
1.47446e-07
3.1553e-06
3.31688e-06
-3.20467e-07
3.31356e-06
-2.56575e-07
3.31866e-06
4.03901e-07
3.34349e-06
5.4631e-07
3.35598e-06
2.66255e-07
3.33481e-06
-6.1752e-07
3.34006e-06
-3.99178e-07
3.303e-06
-8.23873e-07
3.31133e-06
-4.45126e-07
3.28877e-06
-4.27528e-07
3.2913e-06
-3.54516e-07
3.28092e-06
-1.8347e-07
3.27402e-06
-1.70067e-07
3.26516e-06
-4.29361e-08
3.25925e-06
2.36719e-08
3.25868e-06
8.50808e-08
3.25806e-06
1.29027e-07
3.26021e-06
1.37613e-07
3.27218e-06
1.41937e-07
1.43765e-07
3.27586e-06
3.44276e-06
-3.10941e-07
3.43986e-06
-2.53682e-07
3.44601e-06
3.97758e-07
3.4694e-06
5.22919e-07
3.48341e-06
2.52244e-07
3.46054e-06
-5.94651e-07
3.46624e-06
-4.04877e-07
3.42942e-06
-7.8706e-07
3.43584e-06
-4.5154e-07
3.41625e-06
-4.0794e-07
3.41457e-06
-3.52834e-07
3.40815e-06
-1.77055e-07
3.39554e-06
-1.5745e-07
3.40239e-06
-4.9791e-08
3.40142e-06
2.4647e-08
3.40781e-06
7.86834e-08
3.41305e-06
1.23789e-07
3.41442e-06
1.36249e-07
3.39827e-06
1.58079e-07
1.41345e-07
3.40069e-06
3.57353e-06
-3.01121e-07
3.57087e-06
-2.51031e-07
3.57822e-06
3.90418e-07
3.59987e-06
5.01266e-07
3.61579e-06
2.36323e-07
3.59108e-06
-5.6994e-07
3.59728e-06
-4.11078e-07
3.56042e-06
-7.50204e-07
3.56574e-06
-4.5686e-07
3.54657e-06
-3.8876e-07
3.54535e-06
-3.51624e-07
3.53628e-06
-1.67981e-07
3.52737e-06
-1.48537e-07
3.51969e-06
-4.21157e-08
3.51451e-06
2.9825e-08
3.51157e-06
8.16301e-08
3.51135e-06
1.24008e-07
3.51482e-06
1.32781e-07
3.52746e-06
1.45435e-07
1.37534e-07
3.53127e-06
3.70935e-06
-2.91081e-07
3.70684e-06
-2.48525e-07
3.71535e-06
3.81912e-07
3.73531e-06
4.81299e-07
3.75292e-06
2.18719e-07
3.72697e-06
-5.43991e-07
3.73287e-06
-4.1698e-07
3.69716e-06
-7.14495e-07
3.6999e-06
-4.59599e-07
3.68311e-06
-3.7197e-07
3.67993e-06
-3.4845e-07
3.67259e-06
-1.60636e-07
3.66587e-06
-1.41814e-07
3.65411e-06
-3.03554e-08
3.64893e-06
3.5006e-08
3.64588e-06
8.46777e-08
3.64534e-06
1.24544e-07
3.64839e-06
1.29736e-07
3.66289e-06
1.3093e-07
1.33957e-07
3.66647e-06
3.85041e-06
-2.80905e-07
3.84794e-06
-2.46053e-07
3.85761e-06
3.72248e-07
3.87597e-06
4.62934e-07
3.89492e-06
1.99767e-07
3.86838e-06
-5.17447e-07
3.87312e-06
-4.21718e-07
3.84019e-06
-6.81565e-07
3.83791e-06
-4.57323e-07
3.8266e-06
-3.60658e-07
3.81529e-06
-3.37144e-07
3.81329e-06
-1.58636e-07
3.79738e-06
-1.25899e-07
3.81227e-06
-4.52433e-08
3.81386e-06
3.34148e-08
3.82032e-06
7.82139e-08
3.82574e-06
1.19123e-07
3.82537e-06
1.30107e-07
3.80507e-06
1.51234e-07
1.32815e-07
3.80621e-06
3.99694e-06
-2.70687e-07
3.99432e-06
-2.43436e-07
4.00535e-06
3.61214e-07
4.02174e-06
4.46546e-07
4.04242e-06
1.79088e-07
4.01486e-06
-4.89887e-07
4.01946e-06
-4.26317e-07
3.98631e-06
-6.48417e-07
3.9853e-06
-4.56309e-07
3.96966e-06
-3.45023e-07
3.9665e-06
-3.33986e-07
3.96311e-06
-1.55239e-07
3.95583e-06
-1.18618e-07
3.93821e-06
-2.7625e-08
3.93326e-06
3.83613e-08
3.93016e-06
8.13179e-08
3.92986e-06
1.19419e-07
3.93424e-06
1.25735e-07
3.94873e-06
1.36738e-07
1.28853e-07
3.95269e-06
4.14904e-06
-2.60448e-07
4.14627e-06
-2.40663e-07
4.15848e-06
3.49003e-07
4.17336e-06
4.31665e-07
4.19485e-06
1.57602e-07
4.16741e-06
-4.62454e-07
4.17062e-06
-4.29522e-07
4.13934e-06
-6.17136e-07
4.1367e-06
-4.53675e-07
4.12069e-06
-3.29011e-07
4.11763e-06
-3.30926e-07
4.10232e-06
-1.3993e-07
4.0914e-06
-1.07697e-07
4.08655e-06
-2.27808e-08
4.08419e-06
4.07305e-08
4.08082e-06
8.46868e-08
4.08054e-06
1.19694e-07
4.08396e-06
1.22315e-07
4.10027e-06
1.2043e-07
1.25099e-07
4.10402e-06
4.30697e-06
-2.50232e-07
4.30399e-06
-2.37684e-07
4.31723e-06
3.3577e-07
4.33102e-06
4.17868e-07
4.35243e-06
1.36194e-07
4.32638e-06
-4.36401e-07
4.32607e-06
-4.29216e-07
4.30028e-06
-5.91347e-07
4.29067e-06
-4.44056e-07
4.28152e-06
-3.19866e-07
4.26467e-06
-3.14075e-07
4.27672e-06
-1.5198e-07
4.26838e-06
-9.93552e-08
4.27248e-06
-2.68856e-08
4.2747e-06
3.85152e-08
4.28217e-06
7.72147e-08
4.28823e-06
1.13637e-07
4.28496e-06
1.25578e-07
4.26031e-06
1.45088e-07
1.25495e-07
4.25991e-06
4.47098e-06
-2.4013e-07
4.46752e-06
-2.34224e-07
4.48215e-06
3.21146e-07
4.49429e-06
4.05729e-07
4.51646e-06
1.14021e-07
4.49025e-06
-4.10193e-07
4.49053e-06
-4.29498e-07
4.46099e-06
-5.61808e-07
4.45815e-06
-4.41211e-07
4.44015e-06
-3.01871e-07
4.43758e-06
-3.11502e-07
4.42172e-06
-1.36115e-07
4.41106e-06
-8.87033e-08
4.40425e-06
-2.00751e-08
4.40342e-06
3.93477e-08
4.39948e-06
8.11599e-08
4.39998e-06
1.13136e-07
4.40432e-06
1.21231e-07
4.41995e-06
1.29458e-07
1.21485e-07
4.42396e-06
4.64118e-06
-2.30104e-07
4.63737e-06
-2.30416e-07
4.65291e-06
3.05609e-07
4.66446e-06
3.94177e-07
4.6855e-06
9.29806e-08
4.6617e-06
-3.8639e-07
4.65823e-06
-4.26022e-07
4.63198e-06
-5.35562e-07
4.62704e-06
-4.36272e-07
4.60719e-06
-2.82024e-07
4.59848e-06
-3.0279e-07
4.58845e-06
-1.26087e-07
4.58034e-06
-8.05922e-08
4.57286e-06
-1.25956e-08
4.57255e-06
3.96611e-08
4.56875e-06
8.49613e-08
4.56866e-06
1.13226e-07
4.57259e-06
1.17293e-07
4.58959e-06
1.12463e-07
1.18132e-07
4.59294e-06
4.81786e-06
-2.2018e-07
4.81372e-06
-2.26269e-07
4.82992e-06
2.89402e-07
4.8416e-06
3.82503e-07
4.85973e-06
7.48503e-08
4.84247e-06
-3.69134e-07
4.8288e-06
-4.12346e-07
4.81428e-06
-5.21047e-07
4.79515e-06
-4.17141e-07
4.79413e-06
-2.81e-07
4.77194e-06
-2.80602e-07
4.78747e-06
-1.41614e-07
4.7831e-06
-7.62276e-08
4.78794e-06
-1.7437e-08
4.7911e-06
3.65069e-08
4.80052e-06
7.55363e-08
4.80549e-06
1.08253e-07
4.79933e-06
1.23454e-07
4.77021e-06
1.41586e-07
1.21766e-07
4.76658e-06
5.00137e-06
-2.10481e-07
4.99648e-06
-2.21371e-07
5.01393e-06
2.71944e-07
5.02457e-06
3.71863e-07
5.04279e-06
5.66315e-08
5.02414e-06
-3.50486e-07
5.01419e-06
-4.02389e-07
4.99303e-06
-4.99889e-07
4.97923e-06
-4.03339e-07
4.96652e-06
-2.68293e-07
4.95207e-06
-2.66153e-07
4.94491e-06
-1.34455e-07
4.93659e-06
-6.7901e-08
4.9321e-06
-1.29531e-08
4.92941e-06
3.92028e-08
4.92921e-06
7.57279e-08
4.92649e-06
1.10972e-07
4.93066e-06
1.19293e-07
4.94774e-06
1.24501e-07
1.19268e-07
4.95024e-06
5.19175e-06
-2.0092e-07
5.18649e-06
-2.16109e-07
5.20442e-06
2.54011e-07
5.21531e-06
3.60975e-07
5.23177e-06
4.01748e-08
5.21359e-06
-3.32307e-07
5.20647e-06
-3.95275e-07
5.17905e-06
-4.7246e-07
5.17276e-06
-3.97051e-07
5.15404e-06
-2.49579e-07
5.14114e-06
-2.53255e-07
5.13281e-06
-1.26124e-07
5.12721e-06
-6.22943e-08
5.11996e-06
-5.7036e-09
5.11965e-06
3.95108e-08
5.11853e-06
7.68511e-08
5.12224e-06
1.07256e-07
5.12791e-06
1.13627e-07
5.13467e-06
1.17737e-07
1.14028e-07
5.13991e-06
5.38941e-06
-1.91556e-07
5.38377e-06
-2.10466e-07
5.40192e-06
2.35857e-07
5.41392e-06
3.4898e-07
5.42657e-06
2.75218e-08
5.41219e-06
-3.17926e-07
5.40134e-06
-3.8442e-07
5.37692e-06
-4.48041e-07
5.36395e-06
-3.84085e-07
5.35104e-06
-2.36667e-07
5.33575e-06
-2.37968e-07
5.32925e-06
-1.19619e-07
5.32325e-06
-5.63018e-08
5.31717e-06
3.83204e-10
5.31615e-06
4.05333e-08
5.31724e-06
7.57548e-08
5.32175e-06
1.02752e-07
5.32734e-06
1.08032e-07
5.33054e-06
1.14538e-07
1.08206e-07
5.33636e-06
5.59462e-06
-1.82441e-07
5.58853e-06
-2.04375e-07
5.60691e-06
2.17475e-07
5.62016e-06
3.35738e-07
5.62959e-06
1.80894e-08
5.61662e-06
-3.04958e-07
5.60468e-06
-3.72479e-07
5.58149e-06
-4.24854e-07
5.56666e-06
-3.69251e-07
5.55499e-06
-2.24998e-07
5.53889e-06
-2.21872e-07
5.5332e-06
-1.1392e-07
5.52708e-06
-5.01904e-08
5.52217e-06
5.29373e-09
5.52055e-06
4.21585e-08
5.52302e-06
7.3281e-08
5.52542e-06
1.00353e-07
5.52885e-06
1.04606e-07
5.53451e-06
1.08875e-07
1.02428e-07
5.54029e-06
5.80759e-06
-1.73547e-07
5.80137e-06
-1.98162e-07
5.81944e-06
1.99411e-07
5.83504e-06
3.20131e-07
5.84048e-06
1.26573e-08
5.82876e-06
-2.93243e-07
5.81527e-06
-3.58987e-07
5.79366e-06
-4.03244e-07
5.77768e-06
-3.53271e-07
5.76674e-06
-2.14063e-07
5.75042e-06
-2.05547e-07
5.74483e-06
-1.08328e-07
5.73883e-06
-4.4196e-08
5.73495e-06
9.1807e-09
5.73306e-06
4.40456e-08
5.73594e-06
7.04027e-08
5.73921e-06
9.70798e-08
5.74521e-06
9.86069e-08
5.74665e-06
1.07437e-07
9.72696e-08
5.7518e-06
6.02867e-06
-1.6492e-07
6.02234e-06
-1.91834e-07
6.04001e-06
1.81741e-07
6.05756e-06
3.02585e-07
6.06006e-06
1.01532e-08
6.04835e-06
-2.81527e-07
6.03404e-06
-3.44675e-07
6.01351e-06
-3.82722e-07
5.99714e-06
-3.36894e-07
5.98658e-06
-2.03505e-07
5.97051e-06
-1.89478e-07
5.96431e-06
-1.02126e-07
5.95877e-06
-3.86576e-08
5.95598e-06
1.19661e-08
5.95388e-06
4.61466e-08
5.95651e-06
6.77776e-08
5.95858e-06
9.50125e-08
5.96044e-06
9.67451e-08
5.96694e-06
1.00936e-07
9.27356e-08
5.97147e-06
6.25816e-06
-1.56582e-07
6.25179e-06
-1.8546e-07
6.26896e-06
1.64568e-07
6.28766e-06
2.83888e-07
6.2885e-06
9.31138e-09
6.27604e-06
-2.69069e-07
6.26146e-06
-3.30096e-07
6.24146e-06
-3.62715e-07
6.22511e-06
-3.20551e-07
6.21475e-06
-1.93141e-07
6.19917e-06
-1.73895e-07
6.19238e-06
-9.53368e-08
6.18747e-06
-3.37467e-08
6.18539e-06
1.40368e-08
6.18298e-06
4.85619e-08
6.18554e-06
6.5219e-08
6.18927e-06
9.12855e-08
6.19443e-06
9.15849e-08
6.19584e-06
9.95163e-08
8.88774e-08
6.1997e-06
6.49639e-06
-1.48568e-07
6.48992e-06
-1.78993e-07
6.50667e-06
1.47818e-07
6.52584e-06
2.64722e-07
6.52614e-06
9.01368e-09
6.51249e-06
-2.5542e-07
6.49785e-06
-3.15463e-07
6.47795e-06
-3.42814e-07
6.46189e-06
-3.04491e-07
6.45165e-06
-1.82899e-07
6.43682e-06
-1.59067e-07
6.4295e-06
-8.80088e-08
6.42476e-06
-2.90136e-08
6.42316e-06
1.56405e-08
6.42104e-06
5.06795e-08
6.42321e-06
6.30543e-08
6.42531e-06
8.9182e-08
6.42714e-06
8.97585e-08
6.43343e-06
9.32196e-08
8.5655e-08
6.43666e-06
6.74367e-06
-1.40902e-07
6.73706e-06
-1.72378e-07
6.75349e-06
1.31385e-07
6.7727e-06
2.45512e-07
6.77308e-06
8.63882e-09
6.75842e-06
-2.40761e-07
6.74355e-06
-3.00596e-07
6.72372e-06
-3.2298e-07
6.70778e-06
-2.88553e-07
6.69751e-06
-1.72634e-07
6.68348e-06
-1.45036e-07
6.67597e-06
-8.04964e-08
6.67111e-06
-2.41564e-08
6.67014e-06
1.66131e-08
6.66843e-06
5.23903e-08
6.67e-06
6.14811e-08
6.67382e-06
8.53624e-08
6.67854e-06
8.50422e-08
6.6798e-06
9.19538e-08
8.27735e-08
6.68269e-06
7.00037e-06
-1.33626e-07
6.99343e-06
-1.65429e-07
7.00978e-06
1.15029e-07
7.02867e-06
2.26627e-07
7.0295e-06
7.80601e-09
7.01432e-06
-2.25579e-07
6.99894e-06
-2.85218e-07
6.97894e-06
-3.02986e-07
6.96295e-06
-2.72557e-07
6.95281e-06
-1.625e-07
6.93971e-06
-1.31937e-07
6.93225e-06
-7.30315e-08
6.92704e-06
-1.89433e-08
6.92635e-06
1.7299e-08
6.92509e-06
5.36506e-08
6.92614e-06
6.04349e-08
6.9286e-06
8.29009e-08
6.93043e-06
8.32078e-08
6.93596e-06
8.64247e-08
7.99829e-08
6.93875e-06
7.26683e-06
-1.26765e-07
7.25933e-06
-1.57935e-07
7.27588e-06
9.84819e-08
7.29428e-06
2.08227e-07
7.297e-06
5.09268e-09
7.28041e-06
-2.08991e-07
7.2644e-06
-2.69206e-07
7.24418e-06
-2.82772e-07
7.22798e-06
-2.56359e-07
7.21794e-06
-1.52457e-07
7.20554e-06
-1.19537e-07
7.19834e-06
-6.58252e-08
7.19283e-06
-1.34412e-08
7.19231e-06
1.78193e-08
7.19164e-06
5.43192e-08
7.19231e-06
5.97676e-08
7.19612e-06
7.90945e-08
7.20001e-06
7.93196e-08
7.20173e-06
8.47021e-08
7.75786e-08
7.20413e-06
7.54341e-06
-1.20341e-07
7.53536e-06
-1.49889e-07
7.55197e-06
8.18729e-08
7.57012e-06
1.90075e-07
7.57531e-06
-9.40102e-11
7.55615e-06
-1.89833e-07
7.54038e-06
-2.53437e-07
7.51975e-06
-2.62141e-07
7.50308e-06
-2.39689e-07
7.49331e-06
-1.42685e-07
7.48148e-06
-1.07712e-07
7.47482e-06
-5.91665e-08
7.46915e-06
-7.76948e-09
7.46837e-06
1.8606e-08
7.46834e-06
5.43466e-08
7.46873e-06
5.93755e-08
7.47122e-06
7.66072e-08
7.47261e-06
7.79242e-08
7.4777e-06
7.96195e-08
7.53722e-08
7.4799e-06
7.83043e-06
-1.14313e-07
7.82238e-06
-1.41842e-07
7.838e-06
6.62494e-08
7.85669e-06
1.71388e-07
7.85368e-06
2.92009e-09
7.84029e-06
-1.76443e-07
7.82755e-06
-2.40703e-07
7.80601e-06
-2.40598e-07
7.78876e-06
-2.22438e-07
7.77928e-06
-1.33201e-07
7.76786e-06
-9.62995e-08
7.76176e-06
-5.30607e-08
7.75626e-06
-2.27158e-09
7.75497e-06
1.98951e-08
7.75555e-06
5.37661e-08
7.75566e-06
5.92694e-08
7.75892e-06
7.33411e-08
7.7623e-06
7.45447e-08
7.76429e-06
7.76282e-08
7.31901e-08
7.76648e-06
8.12831e-06
-1.08665e-07
8.12015e-06
-1.33682e-07
8.13456e-06
5.18383e-08
8.15509e-06
1.50862e-07
8.15928e-06
-1.27426e-09
8.15467e-06
-1.71831e-07
8.12837e-06
-2.144e-07
8.10302e-06
-2.15254e-07
8.08559e-06
-2.05e-07
8.07644e-06
-1.24051e-07
8.06537e-06
-8.52291e-08
8.05965e-06
-4.73447e-08
8.05457e-06
2.8115e-09
8.05256e-06
2.19047e-08
8.05353e-06
5.27954e-08
8.05355e-06
5.92465e-08
8.05588e-06
7.1015e-08
8.05733e-06
7.30956e-08
8.06175e-06
7.32072e-08
7.08963e-08
8.06404e-06
8.4376e-06
-1.03502e-07
8.4286e-06
-1.24687e-07
8.44361e-06
3.68297e-08
8.46203e-06
1.32446e-07
8.46385e-06
-3.0977e-09
8.44713e-06
-1.55114e-07
8.43278e-06
-2.00045e-07
8.41199e-06
-1.94465e-07
8.39408e-06
-1.87091e-07
8.38495e-06
-1.14916e-07
8.37405e-06
-7.43347e-08
8.36859e-06
-4.18822e-08
8.36427e-06
7.13432e-09
8.36167e-06
2.44998e-08
8.36287e-06
5.15928e-08
8.36301e-06
5.91101e-08
8.36585e-06
6.81781e-08