/*--------------------------------*- C++ -*----------------------------------*\
| =========                 |                                                 |
| \\      /  F ield         | OpenFOAM: The Open Source CFD Toolbox           |
|  \\    /   O peration     | Version:  v2012                                 |
|   \\  /    A nd           | Website:  www.openfoam.com                      |
|    \\/     M anipulation  |                                                 |
\*---------------------------------------------------------------------------*/
FoamFile
{
    version     2.0;
    format      ascii;
    class       surfaceScalarField;
    location    "9.9";
    object      phi;
}
// * * * * * * * * * * * * * * * * * * * * * * * * * * * * * * * * * * * * * //

dimensions      [0 3 -1 0 0 0 0];
oriented        oriented;


internalField   nonuniform List<scalar> 
13830
(
9.4101e-07
-6.37822e-07
9.51684e-07
1.48616e-08
9.44755e-07
8.93821e-07
9.1055e-07
9.37181e-07
8.82675e-07
-3.39135e-07
9.21561e-07
-1.17895e-06
9.54508e-07
-7.91294e-07
8.84732e-07
-1.69531e-06
9.61349e-07
-1.37898e-07
9.08229e-07
-6.88213e-07
9.53328e-07
4.58945e-08
9.40377e-07
-1.4456e-07
9.57284e-07
2.15023e-07
9.57116e-07
2.93914e-07
9.51392e-07
2.70641e-07
9.56571e-07
3.35358e-07
9.50594e-07
2.28188e-07
9.57353e-07
2.57604e-07
9.52324e-07
1.82055e-07
1.95011e-07
9.48657e-07
9.77695e-07
-6.42986e-07
9.8808e-07
4.47689e-09
9.78511e-07
9.0339e-07
9.51931e-07
9.63761e-07
9.23408e-07
-3.10612e-07
9.5504e-07
-1.21058e-06
9.82804e-07
-8.19057e-07
9.16134e-07
-1.62864e-06
9.92244e-07
-2.14008e-07
9.38551e-07
-6.3452e-07
9.8629e-07
-1.84468e-09
9.71068e-07
-1.29338e-07
9.90928e-07
1.95163e-07
9.93249e-07
2.91592e-07
9.84162e-07
2.79729e-07
9.97051e-07
3.22469e-07
9.81829e-07
2.4341e-07
9.99402e-07
2.40031e-07
9.79781e-07
2.01676e-07
1.76706e-07
9.98087e-07
1.01514e-06
-6.48675e-07
1.02613e-06
-6.51129e-09
1.01331e-06
9.16211e-07
9.95357e-07
9.81714e-07
9.69007e-07
-2.84262e-07
9.90866e-07
-1.23244e-06
1.01208e-06
-8.40274e-07
9.54489e-07
-1.57104e-06
1.02277e-06
-2.82293e-07
9.78329e-07
-5.90075e-07
1.01745e-06
-4.09667e-08
1.01333e-06
-1.25216e-07
1.02024e-06
1.88249e-07
1.03813e-06
2.73709e-07
1.01469e-06
3.03167e-07
1.03747e-06
2.99683e-07
1.01504e-06
2.65846e-07
1.03265e-06
2.22421e-07
1.01683e-06
2.17496e-07
1.68558e-07
1.02498e-06
1.05301e-06
-6.53908e-07
1.06481e-06
-1.83076e-08
1.05053e-06
9.30486e-07
1.03948e-06
9.92764e-07
1.0175e-06
-2.62277e-07
1.02969e-06
-1.24464e-06
1.04278e-06
-8.53364e-07
9.98343e-07
-1.5266e-06
1.05369e-06
-3.37641e-07
1.02562e-06
-5.62005e-07
1.05112e-06
-6.64705e-08
1.06114e-06
-1.35229e-07
1.05444e-06
1.94947e-07
1.07972e-06
2.4843e-07
1.05253e-06
3.30354e-07
1.07124e-06
2.80977e-07
1.05517e-06
2.81908e-07
1.06432e-06
2.13276e-07
1.05735e-06
2.24469e-07
1.67068e-07
1.05883e-06
1.09132e-06
-6.5767e-07
1.10332e-06
-3.03064e-08
1.09033e-06
9.43477e-07
1.08445e-06
9.98639e-07
1.06812e-06
-2.4595e-07
1.07149e-06
-1.24801e-06
1.0761e-06
-8.57977e-07
1.04517e-06
-1.49567e-06
1.08552e-06
-3.77989e-07
1.0759e-06
-5.52385e-07
1.08836e-06
-7.89254e-08
1.10892e-06
-1.55788e-07
1.09669e-06
2.07178e-07
1.11941e-06
2.25701e-07
1.09893e-06
3.50838e-07
1.10874e-06
2.7117e-07
1.10096e-06
2.89691e-07
1.10398e-06
2.10256e-07
1.1016e-06
2.26843e-07
1.68053e-07
1.10062e-06
1.13046e-06
-6.59283e-07
1.14151e-06
-4.13616e-08
1.13206e-06
9.52931e-07
1.13047e-06
1.00023e-06
1.12021e-06
-2.35691e-07
1.11605e-06
-1.24385e-06
1.11287e-06
-8.54789e-07
1.09209e-06
-1.4749e-06
1.11912e-06
-4.05016e-07
1.125e-06
-5.58268e-07
1.12896e-06
-8.28796e-08
1.15423e-06
-1.81061e-07
1.14534e-06
2.16068e-07
1.16197e-06
2.0907e-07
1.15035e-06
3.62457e-07
1.15399e-06
2.67529e-07
1.15044e-06
2.93241e-07
1.15092e-06
2.09775e-07
1.14978e-06
2.27986e-07
1.69709e-07
1.14813e-06
1.17089e-06
-6.58473e-07
1.17994e-06
-5.04108e-08
1.17512e-06
9.57748e-07
1.17766e-06
9.97692e-07
1.17308e-06
-2.31117e-07
1.16313e-06
-1.2339e-06
1.15327e-06
-8.44929e-07
1.1377e-06
-1.45933e-06
1.15514e-06
-4.22463e-07
1.17152e-06
-5.74648e-07
1.17175e-06
-8.31006e-08
1.19749e-06
-2.06806e-07
1.19577e-06
2.17789e-07
1.20813e-06
1.96711e-07
1.20256e-06
3.68027e-07
1.20403e-06
2.66061e-07
1.20159e-06
2.9568e-07
1.20129e-06
2.10072e-07
1.20016e-06
2.29117e-07
1.71499e-07
1.19837e-06
1.21296e-06
-6.55253e-07
1.21956e-06
-5.70127e-08
1.21942e-06
9.57893e-07
1.22608e-06
9.91035e-07
1.22622e-06
-2.31259e-07
1.21239e-06
-1.22008e-06
1.19699e-06
-8.29527e-07
1.1824e-06
-1.44473e-06
1.19377e-06
-4.33841e-07
1.21601e-06
-5.96886e-07
1.21551e-06
-8.2601e-08
1.23986e-06
-2.31157e-07
1.24463e-06
2.13022e-07
1.25586e-06
1.85478e-07
1.25352e-06
3.70372e-07
1.25515e-06
2.64428e-07
1.25287e-06
2.97958e-07
1.25227e-06
2.10677e-07
1.25106e-06
2.30323e-07
1.73353e-07
1.24921e-06
1.2569e-06
-6.49799e-07
1.26138e-06
-6.14924e-08
1.26533e-06
9.53939e-07
1.2757e-06
9.80667e-07
1.27926e-06
-2.34821e-07
1.26342e-06
-1.20423e-06
1.24354e-06
-8.09651e-07
1.22759e-06
-1.42878e-06
1.23494e-06
-4.41196e-07
1.25954e-06
-6.21487e-07
1.25975e-06
-8.28042e-08
1.28237e-06
-2.53782e-07
1.29147e-06
2.03924e-07
1.30365e-06
1.73302e-07
1.30328e-06
3.70744e-07
1.3059e-06
2.61808e-07
1.30398e-06
2.99875e-07
1.30311e-06
2.11548e-07
1.30208e-06
2.31347e-07
1.75297e-07
1.30014e-06
1.30286e-06
-6.42382e-07
1.30604e-06
-6.46669e-08
1.31335e-06
9.46627e-07
1.32649e-06
9.67523e-07
1.33204e-06
-2.4037e-07
1.31575e-06
-1.18794e-06
1.29253e-06
-7.86434e-07
1.27473e-06
-1.41098e-06
1.27865e-06
-4.45116e-07
1.30307e-06
-6.4591e-07
1.30448e-06
-8.42115e-08
1.32562e-06
-2.74924e-07
1.33743e-06
1.92121e-07
1.35134e-06
1.59386e-07
1.35287e-06
3.69216e-07
1.35661e-06
2.5807e-07
1.35556e-06
3.00929e-07
1.35443e-06
2.12674e-07
1.3538e-06
2.31975e-07
1.77345e-07
1.35175e-06
1.35102e-06
-6.3338e-07
1.35372e-06
-6.73691e-08
1.36369e-06
9.36658e-07
1.37843e-06
9.52779e-07
1.38457e-06
-2.46504e-07
1.36901e-06
-1.17238e-06
1.34375e-06
-7.61173e-07
1.32482e-06
-1.39205e-06
1.32505e-06
-4.45349e-07
1.34739e-06
-6.68243e-07
1.34988e-06
-8.6701e-08
1.36971e-06
-2.94755e-07
1.38355e-06
1.7828e-07
1.39936e-06
1.43574e-07
1.40329e-06
3.65289e-07
1.40807e-06
2.5329e-07
1.40833e-06
3.00661e-07
1.407e-06
2.14007e-07
1.40684e-06
2.32133e-07
1.79509e-07
1.40468e-06
1.40154e-06
-6.2327e-07
1.40425e-06
-7.00721e-08
1.41622e-06
9.24686e-07
1.43156e-06
9.37438e-07
1.43708e-06
-2.52025e-07
1.42299e-06
-1.1583e-06
1.39712e-06
-7.353e-07
1.3783e-06
-1.37323e-06
1.37438e-06
-4.41428e-07
1.39326e-06
-6.87119e-07
1.39618e-06
-8.96255e-08
1.41447e-06
-3.13037e-07
1.43021e-06
1.6254e-07
1.44782e-06
1.25963e-07
1.45481e-06
3.58293e-07
1.4605e-06
2.47603e-07
1.46241e-06
2.98751e-07
1.46093e-06
2.15491e-07
1.46119e-06
2.31866e-07
1.81803e-07
1.4589e-06
1.45455e-06
-6.12577e-07
1.45727e-06
-7.27908e-08
1.47062e-06
9.11336e-07
1.486e-06
9.22059e-07
1.49006e-06
-2.56088e-07
1.47768e-06
-1.14592e-06
1.45264e-06
-7.10253e-07
1.43509e-06
-1.35568e-06
1.42679e-06
-4.33128e-07
1.44147e-06
-7.01797e-07
1.44388e-06
-9.20361e-08
1.45989e-06
-3.29049e-07
1.47729e-06
1.4514e-07
1.49633e-06
1.06921e-07
1.5069e-06
3.47726e-07
1.51332e-06
2.41183e-07
1.51703e-06
2.95045e-07
1.51546e-06
2.1706e-07
1.51605e-06
2.31272e-07
1.84229e-07
1.51363e-06
1.51008e-06
-6.01781e-07
1.51252e-06
-7.52384e-08
1.52668e-06
8.97179e-07
1.54199e-06
9.06752e-07
1.54415e-06
-2.58254e-07
1.53327e-06
-1.13503e-06
1.51032e-06
-6.87303e-07
1.49467e-06
-1.34004e-06
1.48225e-06
-4.20704e-07
1.49266e-06
-7.1221e-07
1.4937e-06
-9.30731e-08
1.50643e-06
-3.41779e-07
1.52475e-06
1.26815e-07
1.54439e-06
8.72857e-08
1.55855e-06
3.33564e-07
1.56545e-06
2.34284e-07
1.5709e-06
2.89588e-07
1.56935e-06
2.18616e-07
1.57018e-06
2.30438e-07
1.86732e-07
1.56768e-06
1.56806e-06
-5.91232e-07
1.56991e-06
-7.70831e-08
1.58443e-06
8.82657e-07
1.59982e-06
8.91359e-07
1.6e-06
-2.58433e-07
1.59011e-06
-1.12513e-06
1.57017e-06
-6.67367e-07
1.55633e-06
-1.3262e-06
1.54054e-06
-4.04918e-07
1.54714e-06
-7.18802e-07
1.54641e-06
-9.23482e-08
1.55493e-06
-3.50298e-07
1.57299e-06
1.08758e-07
1.59186e-06
6.84163e-08
1.609e-06
3.1642e-07
1.61599e-06
2.27296e-07
1.62297e-06
2.82609e-07
1.62156e-06
2.20023e-07
1.6226e-06
2.29397e-07
1.89177e-07
1.62016e-06
1.62842e-06
-5.81106e-07
1.62948e-06
-7.81439e-08
1.6441e-06
8.68033e-07
1.65981e-06
8.75654e-07
1.65812e-06
-2.56745e-07
1.64867e-06
-1.11568e-06
1.63217e-06
-6.5087e-07
1.61947e-06
-1.31349e-06
1.60141e-06
-3.86857e-07
1.60481e-06
-7.22209e-07
1.60258e-06
-9.01131e-08
1.6064e-06
-3.54118e-07
1.62296e-06
9.21969e-08
1.63944e-06
5.19323e-08
1.6584e-06
2.97461e-07
1.66499e-06
2.20704e-07
1.6731e-06
2.745e-07
1.672e-06
2.21122e-07
1.67328e-06
2.28123e-07
1.91368e-07
1.67109e-06
1.69106e-06
-5.71422e-07
1.69137e-06
-7.84527e-08
1.706e-06
8.53402e-07
1.72218e-06
8.59478e-07
1.71883e-06
-2.53396e-07
1.7094e-06
-1.10625e-06
1.69625e-06
-6.37722e-07
1.6838e-06
-1.30105e-06
1.6646e-06
-3.67652e-07
1.66534e-06
-7.22955e-07
1.66238e-06
-8.71444e-08
1.6616e-06
-3.53342e-07
1.67593e-06
7.78651e-08
1.6886e-06
3.92666e-08
1.70802e-06
2.78035e-07
1.71374e-06
2.14988e-07
1.72249e-06
2.65753e-07
1.72184e-06
2.21769e-07
1.72338e-06
2.26586e-07
1.93104e-07
1.72164e-06
1.75598e-06
-5.62086e-07
1.75573e-06
-7.82001e-08
1.77039e-06
8.38741e-07
1.7871e-06
8.42767e-07
1.7823e-06
-2.48593e-07
1.77267e-06
-1.09662e-06
1.76235e-06
-6.27398e-07
1.74944e-06
-1.28815e-06
1.73003e-06
-3.4824e-07
1.72838e-06
-7.21307e-07
1.72568e-06
-8.44367e-08
1.7209e-06
-3.48562e-07
1.73305e-06
6.57066e-08
1.74107e-06
3.1249e-08
1.75987e-06
2.59241e-07
1.76437e-06
2.10482e-07
1.77326e-06
2.56869e-07
1.77316e-06
2.2187e-07
1.77495e-06
2.24792e-07
1.94251e-07
1.7738e-06
1.8232e-06
-5.52948e-07
1.82263e-06
-7.76331e-08
1.8374e-06
8.23968e-07
1.85466e-06
8.25508e-07
1.8486e-06
-2.42533e-07
1.83874e-06
-1.08675e-06
1.83045e-06
-6.19115e-07
1.81673e-06
-1.27443e-06
1.79777e-06
-3.29285e-07
1.79377e-06
-7.17308e-07
1.79224e-06
-8.29023e-08
1.78424e-06
-3.40563e-07
1.79496e-06
5.49844e-08
1.79827e-06
2.79389e-08
1.81583e-06
2.41683e-07
1.81904e-06
2.07272e-07
1.82764e-06
2.48276e-07
1.82811e-06
2.21395e-07
1.8301e-06
2.22802e-07
1.94778e-07
1.82957e-06
1.8928e-06
-5.43844e-07
1.89213e-06
-7.69664e-08
1.9071e-06
8.08993e-07
1.92492e-06
8.07694e-07
1.91779e-06
-2.35409e-07
1.90773e-06
-1.07669e-06
1.90063e-06
-6.12014e-07
1.88603e-06
-1.25982e-06
1.86801e-06
-3.11264e-07
1.86158e-06
-7.10883e-07
1.86188e-06
-8.32022e-08
1.85134e-06
-3.30018e-07
1.86164e-06
4.46828e-08
1.86081e-06
2.87644e-08
1.87702e-06
2.25472e-07
1.8791e-06
2.05193e-07
1.88711e-06
2.40269e-07
1.88814e-06
2.20365e-07
1.89024e-06
2.20699e-07
1.94739e-07
1.89028e-06
1.96488e-06
-5.34625e-07
1.96425e-06
-7.63352e-08
1.97951e-06
7.9374e-07
1.99791e-06
7.89287e-07
1.98994e-06
-2.27436e-07
1.97972e-06
-1.06646e-06
1.97302e-06
-6.05319e-07
1.95762e-06
-1.24442e-06
1.94095e-06
-2.94596e-07
1.932e-06
-7.0194e-07
1.93452e-06
-8.57163e-08
1.92185e-06
-3.17346e-07
1.93259e-06
3.39387e-08
1.92853e-06
3.28259e-08
1.94354e-06
2.10458e-07
1.94484e-06
2.03894e-07
1.95211e-06
2.33002e-07
1.95364e-06
2.1883e-07
1.95579e-06
2.18554e-07
1.94219e-07
1.95631e-06
2.03959e-06
-5.2517e-07
2.03905e-06
-7.57894e-08
2.05462e-06
7.78165e-07
2.07369e-06
7.70219e-07
2.0651e-06
-2.18847e-07
2.05471e-06
-1.05607e-06
2.04782e-06
-5.98428e-07
2.03165e-06
-1.22824e-06
2.01679e-06
-2.7974e-07
2.00525e-06
-6.90397e-07
2.01013e-06
-9.05964e-08
1.99553e-06
-3.02744e-07
2.00716e-06
2.23076e-08
2.00082e-06
3.9166e-08
2.01481e-06
1.9647e-07
2.01573e-06
2.02969e-07
2.02221e-06
2.26518e-07
2.0242e-06
2.16843e-07
2.02635e-06
2.16401e-07
1.93298e-07
2.02727e-06
2.11707e-06
-5.15401e-07
2.11659e-06
-7.53107e-08
2.13249e-06
7.6227e-07
2.1523e-06
7.50406e-07
2.14334e-06
-2.09885e-07
2.13273e-06
-1.04546e-06
2.12525e-06
-5.9095e-07
2.10822e-06
-1.21122e-06
2.09569e-06
-2.67209e-07
2.08148e-06
-6.76186e-07
2.0887e-06
-9.78173e-08
2.07228e-06
-2.86318e-07
2.08478e-06
9.80676e-09
2.07702e-06
4.69189e-08
2.09005e-06
1.83447e-07
2.09096e-06
2.02054e-07
2.09668e-06
2.20798e-07
2.09904e-06
2.1449e-07
2.10123e-06
2.14203e-07
1.92042e-07
2.10249e-06
2.19747e-06
-5.05284e-07
2.197e-06
-7.48421e-08
2.21316e-06
7.46109e-07
2.2338e-06
7.29768e-07
2.2247e-06
-2.00788e-07
2.21378e-06
-1.03455e-06
2.20555e-06
-5.82712e-07
2.18744e-06
-1.19312e-06
2.17776e-06
-2.57521e-07
2.16086e-06
-6.59289e-07
2.17022e-06
-1.0718e-07
2.15211e-06
-2.68201e-07
2.16513e-06
-3.21737e-09
2.15668e-06
5.53648e-08
2.16867e-06
1.71459e-07
2.16985e-06
2.00877e-07
2.17485e-06
2.15799e-07
2.17748e-06
2.11861e-07
2.17979e-06
2.1189e-07
1.9051e-07
2.18132e-06
2.28094e-06
-4.94827e-07
2.28041e-06
-7.43172e-08
2.29673e-06
7.29792e-07
2.31824e-06
7.08251e-07
2.30924e-06
-1.91783e-07
2.2979e-06
-1.02321e-06
2.28893e-06
-5.73745e-07
2.26944e-06
-1.17362e-06
2.26301e-06
-2.51092e-07
2.24353e-06
-6.39806e-07
2.25469e-06
-1.18338e-07
2.2351e-06
-2.48616e-07
2.24812e-06
-1.62353e-08
2.23958e-06
6.38997e-08
2.25039e-06
1.60655e-07
2.25197e-06
1.99291e-07
2.25632e-06
2.11454e-07
2.25906e-06
2.09124e-07
2.26164e-06
2.09303e-07
1.8875e-07
2.2634e-06
2.36763e-06
-4.84069e-07
2.367e-06
-7.3688e-08
2.38332e-06
7.13474e-07
2.40571e-06
6.85853e-07
2.39701e-06
-1.83079e-07
2.38512e-06
-1.01131e-06
2.37562e-06
-5.64253e-07
2.35438e-06
-1.15237e-06
2.35141e-06
-2.48124e-07
2.32959e-06
-6.17984e-07
2.34211e-06
-1.30866e-07
2.3214e-06
-2.27905e-07
2.33383e-06
-2.86628e-08
2.32571e-06
7.20166e-08
2.33513e-06
1.51233e-07
2.33722e-06
1.97207e-07
2.34087e-06
2.07807e-07
2.34344e-06
2.06552e-07
2.34665e-06
2.06093e-07
1.86785e-07
2.34861e-06
2.45768e-06
-4.73069e-07
2.45693e-06
-7.29436e-08
2.47308e-06
6.9733e-07
2.4963e-06
6.62636e-07
2.48809e-06
-1.7487e-07
2.47548e-06
-9.98708e-07
2.46581e-06
-5.54581e-07
2.44244e-06
-1.129e-06
2.44293e-06
-2.48611e-07
2.41911e-06
-5.94168e-07
2.43253e-06
-1.44287e-07
2.41115e-06
-2.06526e-07
2.42246e-06
-3.99681e-08
2.41518e-06
7.92923e-08
2.42302e-06
1.43394e-07
2.42567e-06
1.94555e-07
2.42808e-06
2.05399e-07
2.43044e-06
2.04192e-07
2.43487e-06
2.01659e-07
1.84647e-07
2.43701e-06
2.55122e-06
-4.61887e-07
2.55039e-06
-7.21193e-08
2.5662e-06
6.81525e-07
2.5901e-06
6.38734e-07
2.58256e-06
-1.67332e-07
2.56905e-06
-9.85198e-07
2.55965e-06
-5.45177e-07
2.53387e-06
-1.10322e-06
2.53758e-06
-2.52324e-07
2.51217e-06
-5.68752e-07
2.52602e-06
-1.58142e-07
2.50448e-06
-1.84985e-07
2.51425e-06
-4.97351e-08
2.5081e-06
8.5438e-08
2.51428e-06
1.37211e-07
2.51747e-06
1.91372e-07
2.52397e-06
1.98892e-07
2.52839e-06
1.9977e-07
2.52647e-06
2.03583e-07
1.82381e-07
2.52874e-06
2.64836e-06
-4.50571e-07
2.64754e-06
-7.12928e-08
2.66288e-06
6.66182e-07
2.68727e-06
6.14348e-07
2.68055e-06
-1.60617e-07
2.66593e-06
-9.70573e-07
2.65728e-06
-5.36528e-07
2.62893e-06
-1.07487e-06
2.63544e-06
-2.58832e-07
2.60883e-06
-5.42149e-07
2.62269e-06
-1.71997e-07
2.60153e-06
-1.63828e-07
2.60946e-06
-5.766e-08
2.60461e-06
9.02828e-08
2.60965e-06
1.32169e-07
2.61126e-06
1.89762e-07
2.61305e-06
1.9711e-07
2.61554e-06
1.97271e-07
2.6216e-06
1.97529e-07
1.7996e-07
2.62402e-06
2.74924e-06
-4.39158e-07
2.74852e-06
-7.05733e-08
2.76334e-06
6.51366e-07
2.78797e-06
5.89713e-07
2.78219e-06
-1.54837e-07
2.76624e-06
-9.5462e-07
2.75876e-06
-5.29048e-07
2.72788e-06
-1.04399e-06
2.73656e-06
-2.6751e-07
2.70931e-06
-5.149e-07
2.72259e-06
-1.85279e-07
2.70256e-06
-1.43795e-07
2.70814e-06
-6.32438e-08
2.70515e-06
9.32689e-08
2.70889e-06
1.28437e-07
2.7095e-06
1.89143e-07
2.71039e-06
1.96219e-07
2.71265e-06
1.95012e-07
2.72069e-06
1.8949e-07
1.77612e-07
2.72304e-06
2.85397e-06
-4.27666e-07
2.85348e-06
-7.00817e-08
2.86778e-06
6.37065e-07
2.8924e-06
5.65091e-07
2.88764e-06
-1.50076e-07
2.87013e-06
-9.37111e-07
2.8641e-06
-5.23022e-07
2.8309e-06
-1.01079e-06
2.84111e-06
-2.77714e-07
2.81374e-06
-4.8753e-07
2.82588e-06
-1.97421e-07
2.80782e-06
-1.25731e-07
2.81044e-06
-6.58669e-08
2.80973e-06
9.398e-08
2.8133e-06
1.24869e-07
2.82082e-06
1.8162e-07
2.82704e-06
1.89999e-07
2.83046e-06
1.91593e-07
2.82394e-06
1.96008e-07
1.75611e-07
2.82594e-06
2.96267e-06
-4.16095e-07
2.96253e-06
-6.99393e-08
2.9764e-06
6.23199e-07
3.00076e-06
5.40728e-07
2.99708e-06
-1.46394e-07
2.97779e-06
-9.17826e-07
2.97336e-06
-5.18593e-07
2.93815e-06
-9.75584e-07
2.9493e-06
-2.8886e-07
2.92223e-06
-4.60457e-07
2.93291e-06
-2.08111e-07
2.91721e-06
-1.10022e-07
2.91695e-06
-6.56135e-08
2.91816e-06
9.27769e-08
2.91634e-06
1.2668e-07
2.91825e-06
1.79719e-07
2.91763e-06
1.90611e-07
2.91948e-06
1.89744e-07
2.93107e-06
1.84425e-07
1.73468e-07
2.93321e-06
3.07549e-06
-4.0443e-07
3.0758e-06
-7.02499e-08
3.08938e-06
6.09624e-07
3.11326e-06
5.16852e-07
3.11071e-06
-1.43849e-07
3.08947e-06
-8.9659e-07
3.08662e-06
-5.15734e-07
3.0498e-06
-9.38766e-07
3.06136e-06
-3.00421e-07
3.0349e-06
-4.33997e-07
3.04403e-06
-2.17237e-07
3.0305e-06
-9.64912e-08
3.02839e-06
-6.35123e-08
3.03119e-06
8.99803e-08
3.03434e-06
1.23527e-07
3.04419e-06
1.69868e-07
3.04998e-06
1.84824e-07
3.05301e-06
1.86713e-07
3.0426e-06
1.94833e-07
1.7139e-07
3.04468e-06
3.19258e-06
-3.92651e-07
3.1934e-06
-7.10702e-08
3.20689e-06
5.96134e-07
3.23005e-06
4.93699e-07
3.22877e-06
-1.42569e-07
3.20538e-06
-8.73205e-07
3.20404e-06
-5.14391e-07
3.16591e-06
-9.00636e-07
3.17757e-06
-3.12085e-07
3.15184e-06
-4.08262e-07
3.15975e-06
-2.25145e-07
3.14692e-06
-8.3667e-08
3.146e-06
-6.2594e-08
3.147e-06
8.89825e-08
3.15058e-06
1.19949e-07
3.14402e-06
1.76424e-07
3.1439e-06
1.84951e-07
3.14716e-06
1.83449e-07
3.15784e-06
1.84151e-07
1.68246e-07
3.16099e-06
3.31409e-06
-3.80732e-07
3.31545e-06
-7.24294e-08
3.32905e-06
5.82532e-07
3.35134e-06
4.71415e-07
3.35133e-06
-1.42556e-07
3.32587e-06
-8.47747e-07
3.32563e-06
-5.1415e-07
3.28692e-06
-8.61935e-07
3.29783e-06
-3.22988e-07
3.27382e-06
-3.84259e-07
3.27939e-06
-2.30716e-07
3.26894e-06
-7.32172e-08
3.26675e-06
-6.04041e-08
3.26233e-06
9.34099e-08
3.26055e-06
1.21731e-07
3.26278e-06
1.74192e-07
3.26357e-06
1.84156e-07
3.26641e-06
1.80616e-07
3.27847e-06
1.72091e-07
1.65017e-07
3.28169e-06
3.44021e-06
-3.68658e-07
3.44208e-06
-7.4298e-08
3.45601e-06
5.68603e-07
3.47725e-06
4.50169e-07
3.47851e-06
-1.43814e-07
3.45116e-06
-8.20395e-07
3.45153e-06
-5.14518e-07
3.41305e-06
-8.2346e-07
3.42227e-06
-3.32202e-07
3.40162e-06
-3.63611e-07
3.40275e-06
-2.31848e-07
3.39658e-06
-6.70433e-08
3.3883e-06
-5.2127e-08
3.39976e-06
8.19476e-08
3.40269e-06
1.18801e-07
3.4121e-06
1.64785e-07
3.41849e-06
1.77762e-07
3.42064e-06
1.7847e-07
3.40471e-06
1.8802e-07
1.62991e-07
3.40674e-06
3.57112e-06
-3.56433e-07
3.5734e-06
-7.65764e-08
3.58796e-06
5.54044e-07
3.60781e-06
4.3032e-07
3.61062e-06
-1.4663e-07
3.58122e-06
-7.90995e-07
3.5823e-06
-5.156e-07
3.54375e-06
-7.84907e-07
3.55219e-06
-3.4064e-07
3.53202e-06
-3.43437e-07
3.53395e-06
-2.33777e-07
3.52488e-06
-5.79774e-08
3.51986e-06
-4.71074e-08
3.51708e-06
8.47247e-08
3.51571e-06
1.20169e-07
3.5157e-06
1.648e-07
3.51677e-06
1.76694e-07
3.52113e-06
1.74113e-07
3.53394e-06
1.75203e-07
1.59525e-07
3.53741e-06
3.707e-06
-3.44046e-07
3.70962e-06
-7.91994e-08
3.72494e-06
5.38722e-07
3.74331e-06
4.11952e-07
3.74751e-06
-1.50833e-07
3.71662e-06
-7.60104e-07
3.71761e-06
-5.16588e-07
3.68026e-06
-7.47553e-07
3.68634e-06
-3.46725e-07
3.66872e-06
-3.25818e-07
3.66888e-06
-2.33937e-07
3.66202e-06
-5.11152e-08
3.65934e-06
-4.44261e-08
3.6519e-06
9.21627e-08
3.65017e-06
1.21897e-07
3.65004e-06
1.6493e-07
3.65083e-06
1.75906e-07
3.65465e-06
1.70293e-07
3.66939e-06
1.60462e-07
1.56276e-07
3.67264e-06
3.84806e-06
-3.31514e-07
3.85091e-06
-8.20501e-08
3.86714e-06
5.2249e-07
3.88399e-06
3.95107e-07
3.88933e-06
-1.56173e-07
3.85758e-06
-7.28355e-07
3.85755e-06
-5.16562e-07
3.8232e-06
-7.13206e-07
3.82424e-06
-3.47763e-07
3.81246e-06
-3.14033e-07
3.80408e-06
-2.25564e-07
3.80252e-06
-4.95549e-08
3.79052e-06
-3.24218e-08
3.81074e-06
7.19447e-08
3.81537e-06
1.17262e-07
3.8247e-06
1.556e-07
3.83117e-06
1.6944e-07
3.8317e-06
1.69765e-07
3.81161e-06
1.80546e-07
1.55433e-07
3.81246e-06
3.99453e-06
-3.18891e-07
3.9974e-06
-8.49206e-08
4.01486e-06
5.0503e-07
4.02977e-06
3.80198e-07
4.03668e-06
-1.63078e-07
4.00361e-06
-6.95292e-07
4.00364e-06
-5.16593e-07
3.96912e-06
-6.78677e-07
3.97167e-06
-3.50318e-07
3.95527e-06
-2.97636e-07
3.95612e-06
-2.26409e-07
3.95362e-06
-4.70591e-08
3.94975e-06
-2.85458e-08
3.93674e-06
8.49527e-08
3.93478e-06
1.19219e-07
3.93434e-06
1.56041e-07
3.9353e-06
1.68482e-07
3.94049e-06
1.64568e-07
3.95533e-06
1.65708e-07
1.51775e-07
3.95899e-06
4.14657e-06
-3.06182e-07
4.14941e-06
-8.77599e-08
4.16798e-06
4.86464e-07
4.18137e-06
3.66806e-07
4.18904e-06
-1.70747e-07
4.1558e-06
-6.62052e-07
4.15453e-06
-5.1532e-07
4.12207e-06
-6.46223e-07
4.12298e-06
-3.51223e-07
4.10635e-06
-2.81013e-07
4.10734e-06
-2.27397e-07
4.09316e-06
-3.28728e-08
4.08534e-06
-2.07265e-08
4.08563e-06
8.46635e-08
4.08589e-06
1.18957e-07
4.08507e-06
1.56859e-07
4.08596e-06
1.67591e-07
4.09011e-06
1.60414e-07
4.1068e-06
1.4902e-07
1.48256e-07
4.11032e-06
4.30443e-06
-2.93427e-07
4.30716e-06
-9.04831e-08
4.32671e-06
4.66914e-07
4.33898e-06
3.54531e-07
4.34659e-06
-1.78356e-07
4.31446e-06
-6.29927e-07
4.30962e-06
-5.10474e-07
4.28318e-06
-6.19782e-07
4.27645e-06
-3.44494e-07
4.26759e-06
-2.72149e-07
4.25421e-06
-2.14017e-07
4.26803e-06
-4.67001e-08
4.26251e-06
-1.52006e-08
4.27163e-06
7.55429e-08
4.27649e-06
1.14093e-07
4.28659e-06
1.46759e-07
4.29366e-06
1.60526e-07
4.29107e-06
1.63004e-07
4.26689e-06
1.73196e-07
1.48802e-07
4.26634e-06
4.46839e-06
-2.80728e-07
4.4707e-06
-9.27953e-08
4.4916e-06
4.4601e-07
4.50218e-06
3.43952e-07
4.5106e-06
-1.86774e-07
4.47802e-06
-5.9735e-07
4.47405e-06
-5.06499e-07
4.44367e-06
-5.89403e-07
4.44443e-06
-3.45254e-07
4.4261e-06
-2.53818e-07
4.42673e-06
-2.14652e-07
4.41334e-06
-3.33079e-08
4.40532e-06
-7.18483e-09
4.40353e-06
7.73413e-08
4.40517e-06
1.12451e-07
4.40361e-06
1.48316e-07
4.40539e-06
1.58744e-07
4.4103e-06
1.58092e-07
4.42652e-06
1.56981e-07
1.44906e-07
4.43042e-06
4.63855e-06
-2.68073e-07
4.64055e-06
-9.4789e-08
4.66235e-06
4.24212e-07
4.67217e-06
3.34126e-07
4.67977e-06
-1.94372e-07
4.64909e-06
-5.66668e-07
4.64197e-06
-4.99385e-07
4.61416e-06
-5.61586e-07
4.61383e-06
-3.44928e-07
4.59319e-06
-2.33177e-07
4.59056e-06
-2.12026e-07
4.58081e-06
-2.35549e-08
4.57451e-06
-8.86549e-10
4.57214e-06
7.97132e-08
4.57441e-06
1.10186e-07
4.57285e-06
1.49875e-07
4.57396e-06
1.57631e-07
4.57837e-06
1.53679e-07
4.596e-06
1.39354e-07
1.41516e-07
4.59939e-06
4.81522e-06
-2.5551e-07
4.81688e-06
-9.64447e-08
4.83932e-06
4.01772e-07
4.84909e-06
3.2436e-07
4.85421e-06
-1.995e-07
4.82908e-06
-5.4154e-07
4.81261e-06
-4.82911e-07
4.79639e-06
-5.45363e-07
4.78136e-06
-3.29903e-07
4.7802e-06
-2.32015e-07
4.76278e-06
-1.94602e-07
4.78044e-06
-4.12163e-08
4.77794e-06
1.6104e-09
4.78699e-06
7.06615e-08
4.79284e-06
1.04335e-07
4.8046e-06
1.38115e-07
4.81083e-06
1.5141e-07
4.80516e-06
1.59341e-07
4.77661e-06
1.67908e-07
1.44909e-07
4.77322e-06
4.99874e-06
-2.43178e-07
4.99967e-06
-9.73773e-08
5.02326e-06
3.78179e-07
5.03193e-06
3.1569e-07
5.03712e-06
-2.04681e-07
5.01117e-06
-5.15594e-07
4.99753e-06
-4.69269e-07
4.97551e-06
-5.23341e-07
4.96529e-06
-3.19682e-07
4.95227e-06
-2.19003e-07
4.94141e-06
-1.83735e-07
4.93732e-06
-3.71261e-08
4.93111e-06
7.81814e-09
4.93101e-06
7.07545e-08
4.93115e-06
1.04198e-07
4.93295e-06
1.36321e-07
4.93155e-06
1.52808e-07
4.9363e-06
1.54589e-07
4.95398e-06
1.50227e-07
1.42104e-07
4.95678e-06
5.18915e-06
-2.31014e-07
5.18967e-06
-9.79026e-08
5.21368e-06
3.54169e-07
5.22244e-06
3.06932e-07
5.22605e-06
-2.08292e-07
5.20093e-06
-4.90474e-07
5.1893e-06
-4.57642e-07
5.16186e-06
-4.95894e-07
5.15802e-06
-3.15847e-07
5.13964e-06
-2.00619e-07
5.1306e-06
-1.74693e-07
5.12538e-06
-3.1906e-08
5.12165e-06
1.15422e-08
5.11872e-06
7.36874e-08
5.12131e-06
1.01611e-07
5.12212e-06
1.3551e-07
5.12715e-06
1.47773e-07
5.13358e-06
1.48162e-07
5.14081e-06
1.43002e-07
1.36437e-07
5.14647e-06
5.38686e-06
-2.19099e-07
5.38692e-06
-9.79653e-08
5.41111e-06
3.29981e-07
5.42073e-06
2.97313e-07
5.42092e-06
-2.08481e-07
5.39955e-06
-4.69104e-07
5.38429e-06
-4.42384e-07
5.35963e-06
-4.7123e-07
5.34977e-06
-3.05987e-07
5.33666e-06
-1.87509e-07
5.32522e-06
-1.63259e-07
5.32204e-06
-2.87185e-08
5.31786e-06
1.57182e-08
5.31575e-06
7.57986e-08
5.31772e-06
9.96358e-08
5.32066e-06
1.3257e-07
5.32644e-06
1.41998e-07
5.33287e-06
1.41732e-07
5.33652e-06
1.39346e-07
1.30003e-07
5.34296e-06
5.59214e-06
-2.07506e-07
5.59164e-06
-9.74635e-08
5.61601e-06
3.05614e-07
5.62662e-06
2.86706e-07
5.62377e-06
-2.05635e-07
5.60408e-06
-4.49415e-07
5.58786e-06
-4.26167e-07
5.56408e-06
-4.47443e-07
5.55283e-06
-2.94741e-07
5.54078e-06
-1.75459e-07
5.52832e-06
-1.50797e-07
5.52613e-06
-2.65281e-08
5.52193e-06
1.99155e-08
5.52053e-06
7.72057e-08
5.52193e-06
9.82315e-08
5.52633e-06
1.28173e-07
5.5298e-06
1.38529e-07
5.53388e-06
1.37656e-07
5.54034e-06
1.32876e-07
1.2356e-07
5.54679e-06
5.8052e-06
-1.96221e-07
5.80437e-06
-9.66407e-08
5.82844e-06
2.81551e-07
5.84106e-06
2.74083e-07
5.83467e-06
-1.9925e-07
5.81621e-06
-4.30949e-07
5.79868e-06
-4.0864e-07
5.77623e-06
-4.2499e-07
5.76396e-06
-2.8247e-07
5.75282e-06
-1.64321e-07
5.73978e-06
-1.37756e-07
5.73787e-06
-2.46268e-08
5.73387e-06
2.39154e-08
5.73311e-06
7.79685e-08
5.73426e-06
9.70793e-08
5.73917e-06
1.23264e-07
5.7436e-06
1.34104e-07
5.75075e-06
1.30504e-07
5.75238e-06
1.31249e-07
1.17697e-07
5.75824e-06
6.02639e-06
-1.85312e-07
6.02519e-06
-9.54394e-08
6.04892e-06
2.57821e-07
6.06318e-06
2.59823e-07
6.0543e-06
-1.90372e-07
6.03563e-06
-4.12283e-07
6.01758e-06
-3.90588e-07
5.99612e-06
-4.03528e-07
5.98348e-06
-2.69828e-07
5.97289e-06
-1.53733e-07
5.95984e-06
-1.24702e-07
5.95735e-06
-2.21364e-08
5.95408e-06
2.71775e-08
5.9541e-06
7.79541e-08
5.95488e-06
9.62963e-08
5.95954e-06
1.186e-07
5.96239e-06
1.31258e-07
5.96519e-06
1.277e-07
5.97255e-06
1.23896e-07
1.12386e-07
5.97786e-06
6.256e-06
-1.74808e-07
6.25444e-06
-9.38825e-08
6.27774e-06
2.34518e-07
6.29296e-06
2.44607e-07
6.28267e-06
-1.80082e-07
6.26336e-06
-3.92974e-07
6.24508e-06
-3.72304e-07
6.22414e-06
-3.82597e-07
6.21152e-06
-2.57202e-07
6.20133e-06
-1.43539e-07
6.18854e-06
-1.11916e-07
6.18548e-06
-1.90776e-08
6.18303e-06
2.96293e-08
6.18332e-06
7.76593e-08
6.18358e-06
9.60442e-08
6.18837e-06
1.13808e-07
6.19324e-06
1.26385e-07
6.19967e-06
1.21275e-07
6.20144e-06
1.22125e-07
1.07832e-07
6.20599e-06
6.49435e-06
-1.64758e-07
6.49236e-06
-9.18846e-08
6.51528e-06
2.11592e-07
6.53091e-06
2.28985e-07
6.52011e-06
-1.6929e-07
6.50003e-06
-3.7289e-07
6.48163e-06
-3.53901e-07
6.46077e-06
-3.61744e-07
6.44842e-06
-2.44848e-07
6.43852e-06
-1.33642e-07
6.42626e-06
-9.96555e-08
6.42246e-06
-1.52768e-08
6.4204e-06
3.16902e-08
6.42115e-06
7.69064e-08
6.42153e-06
9.5668e-08
6.42614e-06
1.09194e-07
6.42901e-06
1.23523e-07
6.43174e-06
1.18539e-07
6.43854e-06
1.15324e-07
1.0374e-07
6.44263e-06
6.74178e-06
-1.55194e-07
6.73924e-06
-8.93478e-08
6.76188e-06
1.88951e-07
6.77759e-06
2.13272e-07
6.76675e-06
-1.5845e-07
6.74622e-06
-3.52354e-07
6.72767e-06
-3.35352e-07
6.70664e-06
-3.40719e-07
6.69436e-06
-2.32567e-07
6.68458e-06
-1.23863e-07
6.67306e-06
-8.81318e-08
6.66888e-06
-1.10963e-08
6.66703e-06
3.35391e-08
6.66831e-06
7.56302e-08
6.66852e-06
9.54542e-08
6.67251e-06
1.05202e-07
6.67734e-06
1.1869e-07
6.68331e-06
1.1257e-07
6.685e-06
1.13634e-07
9.97942e-08
6.68895e-06
6.99862e-06
-1.46169e-07
6.99536e-06
-8.60833e-08
7.01792e-06
1.66395e-07
7.03341e-06
1.97773e-07
7.02301e-06
-1.48046e-07
7.00245e-06
-3.31793e-07
6.9834e-06
-3.16301e-07
6.96203e-06
-3.19348e-07
6.94967e-06
-2.20208e-07
6.9402e-06
-1.14393e-07
6.92951e-06
-7.7447e-08
6.92506e-06
-6.64539e-09
6.92286e-06
3.57469e-08
6.92455e-06
7.39364e-08
6.92495e-06
9.5055e-08
6.92863e-06
1.0152e-07
6.93212e-06
1.15205e-07
6.93493e-06
1.0976e-07
6.94093e-06
1.0763e-07
9.62386e-08
6.94449e-06
7.26524e-06
-1.37721e-07
7.26113e-06
-8.19711e-08
7.28374e-06
1.43783e-07
7.29891e-06
1.82601e-07
7.29124e-06
-1.40377e-07
7.26902e-06
-3.09571e-07
7.24925e-06
-2.96528e-07
7.22754e-06
-2.97637e-07
7.21481e-06
-2.07479e-07
7.20552e-06
-1.05101e-07
7.19551e-06
-6.74439e-08
7.19119e-06
-2.32022e-09
7.18867e-06
3.82636e-08
7.19074e-06
7.18658e-08
7.19141e-06
9.43862e-08
7.19464e-06
9.82886e-08
7.19932e-06
1.10528e-07
7.20439e-06
1.04693e-07
7.20649e-06
1.05527e-07
9.31206e-08
7.20961e-06
7.54198e-06
-1.29867e-07
7.53716e-06
-7.7158e-08
7.55946e-06
1.21486e-07
7.57466e-06
1.67399e-07
7.56939e-06
-1.35104e-07
7.54452e-06
-2.84701e-07
7.52556e-06
-2.77569e-07
7.50348e-06
-2.75559e-07
7.49007e-06
-1.94064e-07
7.48113e-06
-9.61636e-08
7.47172e-06
-5.80293e-08
7.46776e-06
1.6337e-09
7.46482e-06
4.12042e-08
7.46691e-06
6.97764e-08
7.46804e-06
9.32606e-08
7.47077e-06
9.55539e-08
7.47417e-06
1.07129e-07
7.4768e-06
1.02061e-07
7.48242e-06
9.99103e-08
9.03228e-08
7.48522e-06
7.82916e-06
-1.2257e-07
7.82423e-06
-7.22341e-08
7.84502e-06
1.00699e-07
7.86106e-06
1.5136e-07
7.84643e-06
-1.20471e-07
7.828e-06
-2.66278e-07
7.8131e-06
-2.62668e-07
7.7902e-06
-2.52657e-07
7.77593e-06
-1.79791e-07
7.76728e-06
-8.7519e-08
7.75835e-06
-4.90928e-08
7.75492e-06
5.05699e-09
7.75181e-06
4.43149e-08
7.75365e-06
6.79406e-08
7.75517e-06
9.1737e-08
7.75744e-06
9.32903e-08
7.76191e-06
1.02655e-07
7.76647e-06
9.75021e-08
7.76889e-06
9.74914e-08
8.75958e-08
7.77161e-06
8.12723e-06
-1.15834e-07
8.12199e-06
-6.70034e-08
8.14109e-06
8.15997e-08
8.15959e-06
1.32868e-07
8.1533e-06
-1.14182e-07
8.1428e-06
-2.55782e-07
8.11519e-06
-2.35054e-07
8.08762e-06
-2.25094e-07
8.07302e-06
-1.65185e-07
8.06471e-06
-7.92114e-08
8.05602e-06
-4.04055e-08
8.05304e-06
8.04428e-09
8.04988e-06
4.74685e-08
8.05118e-06
6.66395e-08
8.05318e-06
8.97404e-08
8.0553e-06
9.11713e-08
8.05873e-06
9.92222e-08
8.06114e-06
9.50951e-08
8.06618e-06
9.24522e-08
8.49657e-08
8.06881e-06
8.43671e-06
-1.09787e-07
8.43029e-06
-6.05833e-08
8.44996e-06
6.19346e-08
8.46627e-06
1.16555e-07
8.45707e-06
-1.04983e-07
8.43465e-06
-2.33361e-07
8.41893e-06
-2.19334e-07
8.39698e-06
-2.03139e-07
8.38182e-06
-1.50025e-07
8.37351e-06
-7.08984e-08
8.36489e-06
-3.17911e-08
8.36235e-06
1.05869e-08
8.35958e-06
5.02402e-08
8.36028e-06
6.59318e-08
8.36266e-06
8.73609e-08
8.36458e-06
8.9258e-08
8.36845e-06
9.53527e-08
8.37205e-06
9.14873e-08
8.37492e-06
8.95905e-08