/*--------------------------------*- C++ -*----------------------------------*\
| =========                 |                                                 |
| \\      /  F ield         | OpenFOAM: The Open Source CFD Toolbox           |
|  \\    /   O peration     | Version:  v2012                                 |
|   \\  /    A nd           | Website:  www.openfoam.com                      |
|    \\/     M anipulation  |                                                 |
\*---------------------------------------------------------------------------*/
FoamFile
{
    version     2.0;
    format      ascii;
    class       volScalarField;
    location    "2";
    object      p;
}
// * * * * * * * * * * * * * * * * * * * * * * * * * * * * * * * * * * * * * //

dimensions      [0 2 -2 0 0 0 0];


internalField   nonuniform List<scalar> 
7000
(
1.01886e-10
0.00374163
0.00901168
0.00590811
0.00173101
0.0104607
0.00452334
0.0034939
0.00178519
0.00174562
0.00140483
0.00389444
0.00239271
0.00453907
0.00376275
0.0051634
0.00516821
0.00666072
0.00751408
0.00981438
3.88248e-06
0.00375065
0.00898365
0.00590169
0.00184319
0.0103643
0.00453091
0.00346287
0.0018083
0.00174778
0.00141129
0.00389819
0.00239826
0.00456009
0.0037674
0.00515788
0.00517624
0.00664917
0.00752073
0.00970416
9.4377e-06
0.00376147
0.0089491
0.00589704
0.00189285
0.0102752
0.00454521
0.00342806
0.0018328
0.00176028
0.00142696
0.00389372
0.00241344
0.00454705
0.00378574
0.00513486
0.00519502
0.00662077
0.00752698
0.00953024
1.61416e-05
0.00377072
0.00891464
0.00589362
0.00193807
0.0101801
0.00455657
0.00341064
0.0018543
0.00178809
0.00145244
0.00387799
0.00243955
0.00451748
0.00381189
0.00509869
0.0052153
0.00658223
0.00752326
0.00933851
2.51501e-05
0.00377891
0.00887784
0.0058918
0.00198331
0.0100751
0.00456501
0.00341126
0.00187199
0.00182954
0.00148572
0.00385178
0.00247386
0.00447465
0.00383858
0.00505544
0.00523487
0.00653851
0.00750872
0.0091543
3.76559e-05
0.00378565
0.00883842
0.00589184
0.00203046
0.0099604
0.00457297
0.00342694
0.00188646
0.00187979
0.00152388
0.00381746
0.0025125
0.00442428
0.00386711
0.00500872
0.0052535
0.00649146
0.00748473
0.00898409
5.43484e-05
0.00379056
0.00879731
0.00589326
0.00208079
0.00983774
0.00458224
0.00345333
0.00189878
0.0019342
0.00156513
0.00377771
0.00255356
0.00437095
0.00389645
0.00495987
0.00527057
0.00644148
0.00745215
0.00882443
7.5441e-05
0.00379402
0.00875549
0.0058951
0.00213494
0.00970981
0.00459379
0.00348547
0.00191042
0.0019895
0.00160931
0.0037344
0.00259646
0.00431685
0.00392609
0.00490919
0.00528507
0.00638886
0.00741055
0.00866997
0.00010076
0.00379683
0.00871365
0.00589624
0.00219299
0.00957906
0.0046081
0.00351929
0.00192256
0.00204358
0.00165698
0.00368835
0.00264114
0.00426273
0.00395614
0.0048569
0.00529599
0.00633403
0.00735913
0.00851776
0.000129837
0.00379971
0.00867195
0.00589578
0.00225464
0.00944736
0.00462527
0.00355204
0.00193578
0.00209509
0.00170864
0.00363979
0.00268757
0.00420896
0.0039865
0.00480379
0.0053026
0.00627766
0.00729799
0.00836732
0.000162056
0.00380313
0.00863017
0.00589319
0.00231937
0.00931587
0.00464505
0.00358201
0.00195037
0.00214318
0.00176445
0.00358881
0.00273539
0.00415576
0.00401677
0.00475135
0.0053043
0.00622068
0.00722845
0.00821925
0.000196811
0.00380727
0.00858788
0.00588837
0.00238663
0.00918496
0.004667
0.00360833
0.00196666
0.00218729
0.00182436
0.00353561
0.00278392
0.00410345
0.0040463
0.00470132
0.00530052
0.00616403
0.00715225
0.00807405
0.000233608
0.00381218
0.00854458
0.00588152
0.00245595
0.00905444
0.00469059
0.00363069
0.0019853
0.00222703
0.00188814
0.00348062
0.00283233
0.00405266
0.00407409
0.004655
0.00529086
0.00610831
0.00707082
0.00793179
0.00027211
0.00381778
0.0084999
0.00587296
0.00252698
0.00892382
0.00471541
0.0036491
0.00200706
0.00226216
0.00195552
0.00342441
0.00287966
0.00400424
0.00409876
0.00461305
0.00527515
0.00605352
0.00698518
0.00779222
0.00031211
0.00382405
0.00845357
0.00586306
0.0025995
0.00879264
0.00474122
0.00366376
0.00203262
0.0022926
0.00202609
0.00336775
0.00292488
0.0039592
0.00411896
0.00457568
0.00525331
0.00599898
0.00689614
0.00765499
0.000353491
0.00383096
0.00840544
0.00585215
0.0026734
0.00866056
0.00476797
0.00367485
0.00206253
0.00231845
0.00209928
0.00331161
0.00296682
0.00391859
0.00413379
0.00454282
0.00522538
0.00594344
0.00680438
0.00751981
0.000396168
0.00383852
0.00835545
0.00584057
0.00274863
0.00852742
0.00479572
0.00368256
0.00209717
0.00233997
0.00217428
0.0032572
0.00300422
0.00388329
0.0041429
0.00451406
0.00519181
0.00588525
0.00671002
0.00738653
0.000440055
0.00384676
0.00830365
0.00582867
0.00282516
0.00839312
0.00482455
0.00368705
0.00213672
0.0023577
0.00225008
0.00320587
0.00303575
0.00385382
0.00414604
0.00448848
0.00515377
0.00582299
0.00661241
0.00725494
0.000485057
0.00385566
0.0082501
0.00581674
0.00290293
0.00825757
0.00485452
0.00368849
0.00218115
0.00237246
0.00232548
0.0031591
0.0030603
0.0038302
0.00414285
0.00446446
0.00511279
0.00575646
0.00651063
0.00712429
0.000531084
0.00386518
0.00819495
0.00580498
0.00298187
0.00812064
0.0048856
0.00368708
0.00223026
0.00238527
0.00239899
0.00311835
0.0030773
0.00381188
0.00413254
0.00443956
0.00506975
0.00568649
0.00640467
0.0069936
0.000578079
0.00387524
0.00813831
0.00579351
0.00306183
0.00798226
0.00491768
0.00368301
0.00228358
0.0023974
0.00246899
0.00308471
0.00308671
0.00379776
0.00411147
0.00441128
0.00502397
0.00561345
0.00629551
0.00686287
0.00062604
0.00388574
0.0080803
0.00578225
0.00314269
0.00784237
0.00495064
0.00367649
0.0023404
0.00241036
0.00253394
0.00305879
0.00308857
0.00378654
0.00406587
0.00437837
0.00497473
0.0055362
0.00618322
0.0067334
0.000675018
0.00389658
0.00802103
0.00577108
0.00322432
0.00770102
0.00498435
0.00366785
0.00239968
0.00242558
0.00259253
0.00304106
0.00308307
0.00377704
0.00402637
0.00433999
0.00492277
0.00545458
0.00606637
0.00660556
0.000725107
0.00390762
0.0079606
0.00575982
0.00330662
0.00755837
0.00501866
0.00365751
0.00246025
0.00244449
0.00264365
0.00303149
0.00307116
0.00376806
0.0039973
0.00429414
0.00486798
0.00537138
0.00594499
0.00647774
0.000776421
0.00391877
0.00789912
0.0057483
0.00338948
0.0074147
0.00505334
0.00364593
0.00252079
0.00246867
0.0026866
0.00302956
0.0030541
0.00375726
0.00397242
0.00424025
0.00480776
0.00528975
0.00582211
0.00634836
0.000829071
0.00392992
0.00783675
0.00573635
0.00347281
0.00727039
0.00508817
0.0036339
0.00257974
0.00249915
0.00272125
0.00303449
0.00303311
0.00374166
0.00395651
0.00417953
0.00473947
0.00521053
0.00570148
0.00621778
0.000883161
0.00394097
0.00777365
0.0057239
0.00355644
0.00712587
0.00512293
0.00362246
0.00263553
0.00253636
0.00274766
0.00304519
0.00301031
0.00371914
0.00396036
0.00411394
0.0046612
0.00513205
0.00558589
0.00608794
0.000938789
0.00395182
0.00770997
0.00571092
0.00364016
0.00698168
0.0051572
0.00361248
0.00268697
0.0025808
0.00276616
0.00306021
0.00298754
0.00368771
0.00395466
0.00404683
0.00457317
0.00505145
0.00547629
0.00595979
0.000996046
0.00396236
0.00764587
0.00569738
0.00372372
0.00683845
0.00519026
0.00360498
0.00273291
0.00263277
0.00277757
0.00307789
0.00296602
0.0036464
0.00394086
0.00398015
0.00447921
0.00496896
0.00537471
0.00583248
0.00105499
0.00397252
0.00758149
0.0056833
0.00380671
0.00669695
0.00522123
0.00360099
0.00277249
0.00269218
0.0027827
0.00309662
0.0029469
0.0035966
0.00391294
0.00391099
0.00437465
0.00488774
0.00529228
0.00570651
0.0011157
0.00398217
0.00751691
0.00566882
0.00388863
0.00655808
0.00524918
0.00360097
0.00280487
0.00275897
0.00278372
0.00311356
0.00293289
0.00353869
0.00387078
0.00383305
0.00425827
0.004802
0.00523389
0.00558679
0.00117819
0.00399124
0.0074521
0.00565402
0.00396892
0.00642272
0.00527328
0.0036056
0.00282933
0.00283101
0.00278553
0.00312376
0.00292815
0.00347302
0.00382494
0.00376169
0.00413417
0.00469285
0.00514637
0.00548404
0.00124252
0.0039997
0.00738698
0.00563897
0.00404709
0.00629148
0.00529262
0.00361561
0.00284702
0.00290356
0.00279178
0.00312318
0.00293319
0.0034004
0.00378025
0.00369287
0.00400027
0.00454195
0.00502999
0.00540559
0.00130887
0.00400725
0.00732174
0.00562371
0.00412314
0.006164
0.00530659
0.00363093
0.00286053
0.00297767
0.00280338
0.00311145
0.00294593
0.00332513
0.00373652
0.00363865
0.00386459
0.0043776
0.00485878
0.00534169
0.00137706
0.00401405
0.00725597
0.00560887
0.00419581
0.00604247
0.00531471
0.00365161
0.00286547
0.00305591
0.00282218
0.00309321
0.00295784
0.00325809
0.00364819
0.00353144
0.00372583
0.00423334
0.00475064
0.00527895
0.00144706
0.00402027
0.0071893
0.0055947
0.00426403
0.00592871
0.00531542
0.00367888
0.00285623
0.00313273
0.00285067
0.00306991
0.00296243
0.003188
0.00353201
0.00339181
0.00358025
0.00409853
0.00471279
0.00521512
0.00151943
0.00402524
0.00712226
0.00558096
0.00432942
0.00581805
0.00530953
0.00371104
0.0028744
0.00320022
0.00288866
0.00303956
0.00295789
0.00310416
0.003428
0.003328
0.00346857
0.00395417
0.00451815
0.00515196
0.00159366
0.0040294
0.00705398
0.00556919
0.00438981
0.00571474
0.00529751
0.003748
0.00287353
0.00326782
0.00293382
0.00300531
0.00294279
0.00301755
0.00330379
0.0032187
0.00334784
0.00382247
0.00441352
0.00508935
0.00166967
0.0040332
0.00698376
0.00555957
0.00444429
0.00562157
0.00527741
0.00379052
0.00283152
0.0033311
0.00298865
0.00296419
0.00291864
0.00294367
0.00314391
0.00306265
0.0032163
0.00369872
0.00441561
0.00502685
0.00174837
0.00403564
0.00691225
0.00555119
0.00449668
0.00552872
0.00525315
0.00383261
0.00284222
0.00337082
0.00305184
0.00291652
0.00288784
0.00287027
0.00305122
0.00299441
0.00309738
0.00352673
0.00415973
0.00496671
0.00182874
0.00403805
0.00683797
0.00554626
0.0045436
0.00544239
0.00522611
0.00387516
0.00284899
0.00340076
0.00311628
0.00286905
0.00284719
0.00280816
0.00294931
0.00286425
0.00293512
0.00337007
0.00403377
0.00490886
0.00191093
0.00404059
0.0067605
0.00554449
0.00458518
0.00536507
0.0051934
0.00392129
0.00283429
0.00342663
0.00318012
0.00282409
0.00279441
0.00275842
0.00283083
0.00271646
0.00272022
0.00321732
0.00404881
0.00484754
0.00199581
0.00404208
0.00668071
0.00554409
0.00462668
0.00528586
0.00515934
0.00396564
0.00283546
0.00343692
0.00324376
0.00278409
0.00273245
0.00270269
0.00273225
0.00259938
0.00262651
0.00303268
0.00376402
0.00478636
0.00208195
0.00404482
0.00659661
0.0055476
0.00466411
0.00520977
0.00512586
0.0040078
0.00284325
0.0034299
0.00330461
0.00275452
0.002661
0.00264327
0.00265044
0.00247934
0.00248616
0.00282132
0.00356475
0.00473778
0.00216998
0.00404838
0.00650878
0.00555257
0.00470046
0.00513825
0.00508737
0.00405326
0.00284004
0.00340929
0.00336326
0.0027363
0.00258047
0.00259265
0.00257153
0.00235861
0.00232225
0.00264112
0.00343962
0.00468455
0.00226018
0.00405219
0.00641734
0.00555806
0.00473956
0.00506456
0.00504509
0.00410177
0.00283717
0.00337579
0.00341596
0.00272891
0.00249753
0.00252215
0.00249813
0.00224425
0.00216619
0.0024922
0.00330545
0.00462431
0.00235141
0.00405795
0.00632163
0.0055649
0.00477907
0.00499175
0.00500142
0.00414818
0.00284145
0.00332706
0.00345697
0.00273674
0.00241875
0.00243287
0.00242668
0.00214077
0.00201843
0.00234067
0.00318082
0.00456595
0.00244416
0.00406536
0.00622292
0.00556932
0.00482234
0.00492291
0.00494963
0.00419337
0.00285281
0.00326168
0.0034875
0.0027596
0.00234324
0.00232624
0.00234969
0.00205622
0.00188471
0.00219797
0.00305362
0.00451043
0.00253814
0.0040747
0.00612067
0.00557153
0.00487032
0.00485487
0.00488978
0.00423844
0.0028634
0.00318343
0.00350337
0.00279206
0.00227619
0.00220982
0.0022671
0.00199077
0.00176594
0.00205291
0.00292865
0.00445504
0.00263291
0.00408611
0.00601646
0.00557016
0.00492051
0.0047919
0.00482473
0.00427749
0.0028619
0.0030979
0.00350237
0.00283359
0.00222485
0.00209061
0.0021693
0.00192929
0.0016621
0.00191405
0.00280671
0.00440358
0.00272844
0.00410005
0.00591134
0.00556271
0.00497397
0.00473602
0.00475082
0.00430871
0.00290005
0.00300875
0.003481
0.00287897
0.0021874
0.00197165
0.00204963
0.0018668
0.00158407
0.00179556
0.00269187
0.00435217
0.00282442
0.00411674
0.00580552
0.00554911
0.00502854
0.00468714
0.00466992
0.00433276
0.00295033
0.0029156
0.0034355
0.00292485
0.00217041
0.00185665
0.00191376
0.00180452
0.00152877
0.00169627
0.00258608
0.00429481
0.00292071
0.00413602
0.00570099
0.00552768
0.0050819
0.00464827
0.00458429
0.00434605
0.00300898
0.0028266
0.00337099
0.00297046
0.00216663
0.00175082
0.00176831
0.00173072
0.0014871
0.0016235
0.00249323
0.00423573
0.00301702
0.00415831
0.00559829
0.00549779
0.00513304
0.00461951
0.00449491
0.0043467
0.00307514
0.00274833
0.00328662
0.00300113
0.00217527
0.00166289
0.00162249
0.00164214
0.00145803
0.00157992
0.00241437
0.00417324
0.00311317
0.00418353
0.00549884
0.00545882
0.00518017
0.00460167
0.00440469
0.00433435
0.00314721
0.00268199
0.00318216
0.00301555
0.00219731
0.00159964
0.00148208
0.00153426
0.001426
0.00154915
0.00234997
0.00412569
0.0032089
0.00421177
0.00540369
0.00541053
0.00522159
0.00459427
0.00431539
0.0043089
0.00322128
0.00263127
0.00306481
0.00301307
0.00222882
0.0015553
0.00134535
0.0014084
0.00138065
0.00152928
0.0023279
0.00410897
0.0033038
0.00424332
0.00531386
0.0053538
0.0052523
0.0045953
0.00422973
0.00427126
0.00329411
0.00259986
0.00294036
0.00298829
0.00226038
0.00152346
0.00122299
0.00127861
0.00132354
0.00153004
0.0023445
0.00410133
0.00339757
0.00427863
0.00523066
0.00528882
0.00527235
0.00460295
0.00414962
0.00422256
0.00336299
0.00258812
0.00281355
0.00293919
0.00228654
0.00150784
0.00112442
0.00114745
0.00125762
0.00153564
0.00236577
0.0041012
0.00349006
0.00431704
0.00515474
0.00521745
0.00527939
0.00461365
0.00407666
0.00416535
0.0034255
0.00259506
0.00269
0.00286665
0.00230701
0.00150797
0.001044
0.0010205
0.00118277
0.00152302
0.0023861
0.00412658
0.00358107
0.00436156
0.00508722
0.00514083
0.00527093
0.00462443
0.00401313
0.0041022
0.00347924
0.00261853
0.00257589
0.00277462
0.0023174
0.00151623
0.000981586
0.000904653
0.0010949
0.00149597
0.00241437
0.00416889
0.00367043
0.0044069
0.00502883
0.00506096
0.00524591
0.00463276
0.00396058
0.00403521
0.00352166
0.00265503
0.00247758
0.00266712
0.00231087
0.00152955
0.000938823
0.000800711
0.00100295
0.00146559
0.00243745
0.00420921
0.00375832
0.00445023
0.00498016
0.00497969
0.00520108
0.00464025
0.00392039
0.00396548
0.0035494
0.0026999
0.00239847
0.00254877
0.00228556
0.00154595
0.000912623
0.000712698
0.000914708
0.00142615
0.00244313
0.00424351
0.00384449
0.00449301
0.00494012
0.00489724
0.00514496
0.00464802
0.00389249
0.00389388
0.00356046
0.00274755
0.00233962
0.00242662
0.00224083
0.00156023
0.000900401
0.000642373
0.000829293
0.00137541
0.00243553
0.00427349
0.00392886
0.00453442
0.00490713
0.00481784
0.0050803
0.00465195
0.00387407
0.00382219
0.00355585
0.00279282
0.00230013
0.0023073
0.00217701
0.00156839
0.000899648
0.000587448
0.00074746
0.00131863
0.00242142
0.00429894
0.00401144
0.00457384
0.00488051
0.0047443
0.00500756
0.00464807
0.00386335
0.00375331
0.00353769
0.00283162
0.00227662
0.00219646
0.00209786
0.00156683
0.000905454
0.000545964
0.000673025
0.00126144
0.00240436
0.00432027
0.00409205
0.00461115
0.00485973
0.00467748
0.00492742
0.00463497
0.00385908
0.00368914
0.00350797
0.00286135
0.00226519
0.00209871
0.00200871
0.00155149
0.000913915
0.000518683
0.0006092
0.0012053
0.00238324
0.00433715
0.00417071
0.0046462
0.00484374
0.00461804
0.00484235
0.00461169
0.00385862
0.003631
0.00346965
0.00288121
0.00226225
0.00201569
0.00191434
0.00152121
0.000922943
0.000504192
0.000555093
0.00114879
0.00235699
0.00435113
0.00424743
0.00467884
0.00483154
0.00456643
0.00475488
0.00457786
0.00385942
0.00357969
0.00342529
0.00289115
0.00226395
0.00194594
0.00181907
0.00147816
0.000928605
0.000498742
0.000510978
0.00109403
0.00232751
0.00436328
0.0043222
0.00470912
0.00482211
0.00452278
0.004667
0.0045338
0.00385896
0.00353484
0.00337708
0.00289184
0.0022677
0.00188787
0.00172699
0.00142471
0.000926444
0.00049999
0.00047842
0.00104356
0.00229495
0.00437135
0.00439503
0.00473714
0.0048145
0.00448678
0.00458079
0.00448043
0.00385485
0.00349572
0.0033273
0.00288407
0.00227132
0.00183997
0.00163982
0.00136263
0.000914544
0.000506075
0.00045804
0.000999948
0.00226063
0.00437393
0.00446591
0.00476292
0.0048079
0.00445792
0.00449805
0.004419
0.00384559
0.00346153
0.00327708
0.00286798
0.00227307
0.001801
0.00155815
0.00129476
0.000893414
0.000513753
0.000449229
0.00096646
0.00222722
0.00437106
0.00453481
0.00478671
0.00480152
0.00443543
0.00442022
0.00435104
0.00383002
0.00343068
0.00322687
0.00284482
0.00227238
0.0017701
0.00148305
0.00122425
0.000863018
0.000517834
0.000448914
0.000943592
0.0021975
0.00436542
0.00460161
0.00480879
0.00479496
0.00441793
0.00434809
0.00427873
0.00380756
0.00340118
0.00317759
0.00281643
0.00226827
0.00174562
0.00141531
0.00115262
0.000823249
0.00051512
0.000453815
0.00093127
0.00217556
0.00436011
0.00466617
0.00482944
0.00478789
0.00440516
0.00428231
0.00420395
0.00377796
0.00337182
0.00312967
0.00278344
0.00225952
0.00172604
0.0013555
0.00108099
0.000775783
0.000504446
0.000460405
0.000929043
0.00216341
0.00435593
0.00472834
0.004849
0.00477991
0.00439423
0.0042233
0.00412865
0.00374135
0.00334129
0.00308281
0.00274652
0.00224574
0.00170925
0.00130383
0.00101164
0.000722997
0.00048473
0.000464819
0.000933725
0.00215994
0.0043544
0.00478803
0.00486764
0.00477091
0.00438509
0.00417094
0.00405426
0.00369858
0.00330855
0.00303659
0.00270637
0.00222701
0.00169307
0.00125927
0.000946202
0.000666957
0.000456664
0.000463945
0.000940673
0.00216296
0.00435613
0.00484505
0.00488564
0.00476106
0.00437651
0.00412481
0.00398198
0.0036508
0.00327308
0.00299052
0.00266293
0.0022035
0.00167665
0.00122025
0.000884783
0.000608955
0.000421238
0.000455576
0.000946099
0.00216928
0.00435964
0.00489926
0.00490311
0.00475054
0.00436764
0.00408406
0.00391313
0.00359939
0.00323384
0.00294439
0.00261671
0.00217431
0.00165889
0.00118601
0.000827776
0.000549475
0.000378391
0.000437914
0.000946158
0.00217454
0.00436319
0.00495052
0.0049202
0.00473956
0.0043579
0.00404796
0.00384823
0.00354542
0.00319032
0.00289773
0.00256898
0.00213906
0.00163783
0.00115489
0.000775706
0.000489851
0.000329329
0.000410197
0.000937308
0.00217462
0.00436411
0.00499866
0.00493692
0.00472862
0.00434675
0.00401549
0.00378778
0.00349026
0.00314239
0.00284901
0.0025206
0.00209803
0.00161176
0.00112475
0.000727717
0.000431424
0.000275607
0.000372745
0.000917908
0.00216691
0.00436003
0.0050437
0.00495325
0.00471782
0.00433426
0.00398556
0.00373129
0.00343561
0.00309141
0.0027967
0.00247177
0.00205106
0.00157838
0.00109363
0.000683165
0.000375443
0.000218857
0.000326342
0.000886626
0.0021482
0.00434814
0.0050855
0.00496912
0.00470764
0.00432028
0.0039573
0.00367819
0.00338195
0.00303935
0.00274008
0.00242226
0.00200064
0.00153563
0.00105688
0.000638761
0.000321644
0.000161206
0.000273729
0.000844497
0.00211751
0.00432631
0.00512408
0.00498437
0.00469856
0.00430523
0.00392996
0.00362809
0.00332901
0.00298721
0.00267841
0.00237083
0.00195107
0.001486
0.00101199
0.000589238
0.000265928
0.000101069
0.000215563
0.000793097
0.00207567
0.00429407
0.00515943
0.00499898
0.00469034
0.00428913
0.00390353
0.0035811
0.00327597
0.00293603
0.00261234
0.0023131
0.00190206
0.00143309
0.000961402
0.000533724
0.000205012
3.56584e-05
0.000150075
0.000731798
0.0020221
0.00425048
0.00519162
0.00501279
0.00468333
0.00427242
0.00387725
0.00353709
0.00322235
0.00288656
0.0025459
0.00224642
0.00185031
0.00137776
0.000905103
0.000472281
0.000137686
-3.65878e-05
7.57124e-05
0.00065922
0.00195522
0.00419328
0.00522062
0.00502576
0.00467753
0.00425565
0.00385089
0.00349572
0.00316747
0.00283679
0.00248242
0.00217254
0.00179318
0.00132065
0.000843715
0.000405185
6.41483e-05
-0.000116123
-8.71084e-06
0.000573346
0.00187188
0.00411804
0.00524652
0.00503774
0.00467291
0.00423921
0.00382395
0.00345715
0.00311267
0.00278403
0.00242297
0.00209436
0.00172731
0.00126049
0.000778671
0.000333735
-1.45669e-05
-0.000200702
-0.000100596
0.000475612
0.00177143
0.00402087
0.0052695
0.00504885
0.00466891
0.00422445
0.00379733
0.00341927
0.00305784
0.00272657
0.00236724
0.00201719
0.00165247
0.00119425
0.000708025
0.000255872
-0.000100923
-0.0002926
-0.000198873
0.000370729
0.00165992
0.00390564
0.00528943
0.00505947
0.00466417
0.00421061
0.0037724
0.00338305
0.00300379
0.00266252
0.00231064
0.00194474
0.0015729
0.00112152
0.000630554
0.000169084
-0.000199786
-0.000399404
-0.000312043
0.000252917
0.00153716
0.00377645
0.00530531
0.00506998
0.00466313
0.00419801
0.00374741
0.00334747
0.00295299
0.00259478
0.00224776
0.00187486
0.0014899
0.00104222
0.000547432
7.51806e-05
-0.000309327
-0.000521503
-0.000443265
0.000114341
0.00139271
0.00362777
0.00531454
0.00507798
0.00466136
0.0041877
0.00372217
0.0033085
0.00290323
0.00252918
0.0021811
0.00180555
0.00140551
0.000956569
0.000458179
-2.61621e-05
-0.00043019
-0.000660915
-0.000595868
-4.86351e-05
0.00122119
0.00345107
0.00534108
0.00509233
0.00466872
0.00418728
0.00370064
0.00326655
0.00284923
0.00246669
0.00211775
0.00174383
0.00132839
0.000870901
0.000365781
-0.000134254
-0.000562074
-0.000820343
-0.000780698
-0.00025056
0.00100935
0.00323372
0.00530773
0.00510073
0.004679
0.0041844
0.00367938
0.00321764
0.00278988
0.00240493
0.00205854
0.00169816
0.00128454
0.000814961
0.000290157
-0.00023864
-0.00070308
-0.00100581
-0.00101027
-0.000518498
0.000705812
0.00289603
0.00534777
0.00511246
0.00469346
0.00417783
0.00364
0.003138
0.00269542
0.00231828
0.00199173
0.00167086
0.00128792
0.0008332
0.000319187
-0.00020102
-0.000673404
-0.00101605
-0.00109453
-0.000712546
0.000390003
0.00245327
0.00529508
0.00513152
0.00469364
0.00424474
0.00371117
0.00310186
0.002562
0.0021733
0.00180839
0.00147429
0.00106554
0.000607055
0.000103296
-0.000363713
-0.000732302
-0.000922057
-0.000857738
-0.000377114
0.000766843
0.00281455
0.00542123
0.00509038
0.00466318
0.00413751
0.0035887
0.00311391
0.0027113
0.0023897
0.00209455
0.00178074
0.00134585
0.000814446
0.000183901
-0.000530983
-0.00127254
-0.00192656
-0.00231813
-0.00223453
-0.00125913
0.000529097
0.00563566
0.00500735
0.00449426
0.00400431
0.00352977
0.00289128
0.00228636
0.00183372
0.00152752
0.00128102
0.000960768
0.000591534
0.00038291
0.000491598
0.00099028
0.00180102
0.00273542
0.00350399
0.00359131
0.00297153
0.00561659
0.00502087
0.00447824
0.00404034
0.00372131
0.00342127
0.00305868
0.00268824
0.00232301
0.00180695
0.001143
0.000334507
-0.000585178
-0.00156105
-0.00253268
-0.00341453
-0.00404853
-0.00420568
-0.00361326
-0.00200062
0.00577794
0.00497347
0.00441483
0.00397264
0.00361185
0.00310149
0.00255001
0.0019396
0.00143814
0.00116706
0.000847246
0.000376986
-3.90298e-05
-0.000249507
-0.000147928
0.000270192
0.000907924
0.00148348
0.00160523
0.00090195
0.00577347
0.0049497
0.00437904
0.00403404
0.00388613
0.00374785
0.00352882
0.00321167
0.00279495
0.00208584
0.00102469
-0.000361775
-0.00198175
-0.0036822
-0.00525602
-0.0065157
-0.00729295
-0.0074084
-0.0066449
-0.00481042
0.0122326
0.00155945
-0.00229912
-0.00117102
0.000572618
0.00206096
0.00344267
0.00474251
0.00584312
0.00671187
0.00760632
0.00876454
0.0100039
0.0110521
0.0119572
0.0128579
0.0136556
0.0144284
0.0155763
0.0168979
0.0180926
0.0193116
0.0205855
0.021793
0.0230471
0.0244138
0.0258062
0.027226
0.02875
0.0303711
0.0319934
0.0336572
0.0353636
0.0371835
0.0390519
0.0410537
0.0430824
0.0451579
0.0473104
0.0495076
0.051836
0.0541704
0.0566417
0.059115
0.0617087
0.0644238
0.0671187
0.0700335
0.0725958
0.0753
0.0120143
0.00161937
-0.00225487
-0.00115437
0.000580793
0.0020661
0.00344641
0.00474557
0.00584583
0.00671423
0.00760828
0.00876618
0.0100054
0.0110534
0.0119584
0.012859
0.0136566
0.0144292
0.015577
0.0168986
0.0180932
0.0193122
0.020586
0.0217934
0.0230475
0.0244142
0.0258065
0.0272263
0.0287502
0.0303714
0.0319937
0.0336574
0.0353638
0.0371837
0.039052
0.0410539
0.0430825
0.045158
0.0473105
0.0495078
0.0518361
0.0541705
0.0566418
0.0591151
0.0617088
0.0644239
0.0671188
0.0700335
0.0725958
0.0753
0.0117422
0.00170897
-0.00218602
-0.00113146
0.000590918
0.00207196
0.00345031
0.00474853
0.00584832
0.00671636
0.00761003
0.00876768
0.0100068
0.0110547
0.0119595
0.01286
0.0136575
0.0144299
0.0155776
0.0168992
0.0180938
0.0193127
0.0205865
0.0217938
0.0230478
0.0244145
0.0258068
0.0272265
0.0287505
0.0303716
0.0319939
0.0336576
0.035364
0.0371838
0.0390522
0.041054
0.0430827
0.0451581
0.0473107
0.0495079
0.0518362
0.0541706
0.0566419
0.0591152
0.0617089
0.064424
0.0671188
0.0700336
0.0725959
0.0753001
0.0114921
0.00182828
-0.00208412
-0.00109457
0.000606734
0.00208046
0.00345545
0.00475199
0.00585097
0.00671861
0.00761192
0.00876927
0.0100082
0.011056
0.0119607
0.012861
0.0136584
0.0144306
0.0155782
0.0168999
0.0180944
0.0193132
0.0205869
0.0217943
0.0230482
0.0244148
0.0258071
0.0272268
0.0287507
0.0303718
0.0319941
0.0336578
0.0353642
0.037184
0.0390524
0.0410542
0.0430828
0.0451583
0.0473108
0.049508
0.0518363
0.0541707
0.056642
0.0591153
0.061709
0.064424
0.0671189
0.0700337
0.0725959
0.0753001
0.0112613
0.00196789
-0.00195442
-0.00104252
0.000630208
0.00209305
0.00346274
0.00475648
0.00585412
0.00672126
0.00761423
0.00877115
0.0100097
0.0110574
0.011962
0.0128622
0.0136594
0.0144313
0.0155789
0.0169007
0.018095
0.0193137
0.0205875
0.0217947
0.0230485
0.0244152
0.0258075
0.0272271
0.028751
0.030372
0.0319943
0.033658
0.0353643
0.0371842
0.0390525
0.0410543
0.043083
0.0451584
0.0473109
0.0495081
0.0518364
0.0541708
0.0566421
0.0591154
0.0617091
0.0644241
0.067119
0.0700337
0.072596
0.0753002
0.0110331
0.00211648
-0.00180914
-0.000979907
0.000660339
0.00210978
0.00347238
0.00476223
0.00585797
0.00672455
0.00761717
0.0087734
0.0100113
0.0110589
0.0119634
0.0128636
0.0136605
0.0144321
0.0155797
0.0169015
0.0180957
0.0193143
0.020588
0.0217952
0.023049
0.0244156
0.0258078
0.0272274
0.0287512
0.0303723
0.0319946
0.0336582
0.0353645
0.0371844
0.0390527
0.0410545
0.0430831
0.0451586
0.047311
0.0495082
0.0518366
0.0541709
0.0566422
0.0591155
0.0617091
0.0644242
0.0671191
0.0700338
0.0725962
0.0753003
0.0108
0.00226791
-0.0016556
-0.000911261
0.000694849
0.00212967
0.00348398
0.00476915
0.00586265
0.00672868
0.00762094
0.00877609
0.010013
0.0110603
0.0119649
0.0128651
0.0136619
0.0144331
0.0155806
0.0169025
0.0180964
0.0193149
0.0205887
0.0217958
0.0230494
0.024416
0.0258082
0.0272277
0.0287516
0.0303726
0.0319948
0.0336584
0.0353647
0.0371846
0.0390529
0.0410547
0.0430833
0.0451587
0.0473112
0.0495084
0.0518367
0.054171
0.0566423
0.0591156
0.0617092
0.0644243
0.0671192
0.070034
0.0725964
0.0753005
0.0105612
0.00242026
-0.00149593
-0.000838696
0.000732017
0.00215165
0.00349693
0.00477693
0.0058681
0.00673373
0.00762561
0.00877929
0.0100147
0.0110616
0.0119664
0.0128667
0.0136636
0.0144345
0.0155819
0.0169037
0.0180973
0.0193156
0.0205894
0.0217965
0.02305
0.0244166
0.0258087
0.0272281
0.0287519
0.030373
0.0319951
0.0336587
0.035365
0.0371848
0.0390531
0.0410549
0.0430835
0.0451589
0.0473113
0.0495085
0.0518368
0.0541712
0.0566424
0.0591157
0.0617093
0.0644244
0.0671193
0.0700341
0.0725966
0.0753007
0.0103181
0.00257329
-0.00132995
-0.000762728
0.000770922
0.00217503
0.00351081
0.00478531
0.00587415
0.0067396
0.00763115
0.00878301
0.0100164
0.0110628
0.0119678
0.0128683
0.0136653
0.0144362
0.0155837
0.0169052
0.0180982
0.0193164
0.0205902
0.0217972
0.0230507
0.0244172
0.0258092
0.0272286
0.0287523
0.0303733
0.0319955
0.033659
0.0353652
0.037185
0.0390533
0.0410551
0.0430837
0.045159
0.0473115
0.0495087
0.051837
0.0541713
0.0566426
0.0591158
0.0617094
0.0644245
0.0671194
0.0700342
0.0725969
0.075301
0.0100731
0.00272698
-0.00115725
-0.000683427
0.000811072
0.00219942
0.00352544
0.00479415
0.00588063
0.00674609
0.00763741
0.00878717
0.0100182
0.0110638
0.0119689
0.0128697
0.0136671
0.0144383
0.0155859
0.0169071
0.0180992
0.0193171
0.020591
0.021798
0.0230514
0.0244179
0.0258099
0.0272292
0.0287528
0.0303738
0.0319959
0.0336593
0.0353655
0.0371852
0.0390535
0.0410553
0.0430839
0.0451592
0.0473117
0.0495088
0.0518371
0.0541715
0.0566427
0.0591159
0.0617096
0.0644247
0.0671195
0.0700344
0.0725974
0.0753013
0.00982852
0.0028808
-0.000978117
-0.000600956
0.000852119
0.0022246
0.00354075
0.00480346
0.00588744
0.00675301
0.0076442
0.00879171
0.01002
0.0110647
0.0119698
0.0128708
0.0136687
0.0144404
0.0155888
0.0169096
0.0181006
0.0193179
0.0205917
0.0217987
0.0230522
0.0244187
0.0258107
0.0272298
0.0287534
0.0303743
0.0319964
0.0336597
0.0353658
0.0371855
0.0390537
0.0410555
0.0430841
0.0451594
0.0473119
0.049509
0.0518373
0.0541716
0.0566429
0.0591161
0.0617097
0.0644248
0.0671197
0.0700347
0.0725979
0.0753017
0.00958634
0.0030338
-0.000793289
-0.000515526
0.00089379
0.00225041
0.00355674
0.00481327
0.00589458
0.00676023
0.00765136
0.00879652
0.0100219
0.0110654
0.0119706
0.0128715
0.0136699
0.0144425
0.015592
0.0169127
0.0181022
0.0193186
0.0205923
0.0217994
0.0230531
0.0244196
0.0258116
0.0272307
0.0287541
0.0303749
0.0319969
0.0336602
0.0353662
0.0371858
0.039054
0.0410558
0.0430843
0.0451596
0.0473121
0.0495092
0.0518375
0.0541718
0.056643
0.0591163
0.0617099
0.064425
0.0671199
0.0700349
0.0725985
0.0753023
0.00934811
0.00318494
-0.000603493
-0.000427228
0.000935894
0.00227673
0.00357344
0.00482366
0.00590206
0.00676771
0.00765882
0.00880157
0.0100237
0.0110661
0.0119711
0.012872
0.0136707
0.0144443
0.0155954
0.0169164
0.0181042
0.0193195
0.0205928
0.0218
0.0230539
0.0244206
0.0258126
0.0272316
0.0287549
0.0303756
0.0319975
0.0336608
0.0353667
0.0371862
0.0390542
0.041056
0.0430846
0.0451598
0.0473123
0.0495094
0.0518377
0.054172
0.0566433
0.0591165
0.06171
0.0644252
0.0671201
0.0700352
0.0725993
0.0753029
0.00911486
0.00333344
-0.000409195
-0.000335957
0.000978342
0.00230344
0.00359085
0.00483467
0.00590992
0.00677546
0.00766656
0.00880685
0.0100255
0.0110665
0.0119715
0.0128722
0.0136711
0.0144457
0.0155987
0.0169204
0.0181066
0.0193203
0.0205931
0.0218004
0.0230546
0.0244215
0.0258136
0.0272327
0.0287559
0.0303764
0.0319982
0.0336615
0.0353673
0.0371867
0.0390546
0.0410563
0.0430848
0.04516
0.0473125
0.0495096
0.0518379
0.0541722
0.0566435
0.0591167
0.0617103
0.0644254
0.0671203
0.0700356
0.0726002