/*--------------------------------*- C++ -*----------------------------------*\
| =========                 |                                                 |
| \\      /  F ield         | OpenFOAM: The Open Source CFD Toolbox           |
|  \\    /   O peration     | Version:  v2012                                 |
|   \\  /    A nd           | Website:  www.openfoam.com                      |
|    \\/     M anipulation  |                                                 |
\*---------------------------------------------------------------------------*/
FoamFile
{
    version     2.0;
    format      ascii;
    class       surfaceScalarField;
    location    "2";
    object      phi;
}
// * * * * * * * * * * * * * * * * * * * * * * * * * * * * * * * * * * * * * //

dimensions      [0 3 -1 0 0 0 0];
oriented        oriented;


internalField   nonuniform List<scalar> 
13830
(
9.83732e-07
-9.51234e-07
1.0273e-06
1.08156e-06
9.03705e-07
4.49656e-07
9.11179e-07
-1.10114e-06
1.01316e-06
-1.43979e-08
9.25008e-07
8.2679e-08
9.66658e-07
1.15344e-06
8.77478e-07
5.74369e-07
9.16715e-07
-9.67573e-08
9.02853e-07
-4.06944e-07
9.18667e-07
-7.43336e-07
9.34306e-07
-2.85074e-07
9.35951e-07
-3.84177e-07
9.4599e-07
-7.13843e-09
9.42418e-07
-3.09607e-08
9.47638e-07
1.2124e-07
9.42986e-07
9.22725e-08
9.46109e-07
1.38875e-07
9.41543e-07
1.1388e-07
1.31379e-07
9.33435e-07
1.02287e-06
-1.00158e-06
1.07207e-06
1.03236e-06
9.46782e-07
5.74948e-07
9.50849e-07
-1.10521e-06
1.05181e-06
-1.15361e-07
9.61212e-07
1.73279e-07
9.98865e-07
1.11578e-06
9.25612e-07
6.47622e-07
9.54269e-07
-1.25414e-07
9.46825e-07
-3.995e-07
9.61302e-07
-7.57813e-07
9.75788e-07
-2.9956e-07
9.7708e-07
-3.85469e-07
9.88694e-07
-1.87523e-08
9.80582e-07
-2.28495e-08
9.91105e-07
1.10718e-07
9.77534e-07
1.05843e-07
9.8924e-07
1.27169e-07
9.70556e-07
1.32564e-07
1.18599e-07
9.83336e-07
1.06161e-06
-1.05373e-06
1.11867e-06
9.75301e-07
9.9656e-07
6.97058e-07
9.93533e-07
-1.10218e-06
1.08923e-06
-2.1106e-07
1.00645e-06
2.56061e-07
1.03139e-06
1.09084e-06
9.83958e-07
6.95058e-07
9.96122e-07
-1.37578e-07
9.98758e-07
-4.02137e-07
1.00267e-06
-7.61729e-07
1.02302e-06
-3.19911e-07
1.01539e-06
-3.77832e-07
1.03541e-06
-3.87698e-08
1.01721e-06
-4.64962e-09
1.03359e-06
9.43293e-08
1.01432e-06
1.25121e-07
1.02532e-06
1.16163e-07
1.00943e-06
1.48462e-07
1.14657e-07
1.01337e-06
1.0995e-06
-1.10545e-06
1.16347e-06
9.11323e-07
1.0485e-06
8.12029e-07
1.03823e-06
-1.09191e-06
1.1249e-06
-2.97733e-07
1.05821e-06
3.22758e-07
1.06899e-06
1.08005e-06
1.04582e-06
7.18233e-07
1.04006e-06
-1.31823e-07
1.04986e-06
-4.11936e-07
1.04127e-06
-7.53134e-07
1.06511e-06
-3.43755e-07
1.05208e-06
-3.64804e-07
1.07365e-06
-6.03412e-08
1.05533e-06
1.36766e-08
1.06795e-06
8.17092e-08
1.05397e-06
1.39093e-07
1.05816e-06
1.11979e-07
1.04927e-06
1.57346e-07
1.16523e-07
1.04741e-06
1.13606e-06
-1.15395e-06
1.20361e-06
8.43776e-07
1.10038e-06
9.15257e-07
1.08406e-06
-1.07559e-06
1.15821e-06
-3.71879e-07
1.11329e-06
3.6767e-07
1.11247e-06
1.08087e-06
1.10579e-06
7.24917e-07
1.08529e-06
-1.11322e-07
1.09546e-06
-4.22108e-07
1.07821e-06
-7.35879e-07
1.10062e-06
-3.66174e-07
1.08924e-06
-3.53417e-07
1.10748e-06
-7.85856e-08
1.09568e-06
2.54796e-08
1.10275e-06
7.4637e-08
1.09508e-06
1.46764e-07
1.09488e-06
1.12183e-07
1.08974e-06
1.62478e-07
1.20495e-07
1.08577e-06
1.17138e-06
-1.19649e-06
1.23782e-06
7.77341e-07
1.15103e-06
1.00204e-06
1.13058e-06
-1.05514e-06
1.18959e-06
-4.30892e-07
1.16758e-06
3.89679e-07
1.16048e-06
1.08798e-06
1.16113e-06
7.24264e-07
1.13219e-06
-8.23805e-08
1.13702e-06
-4.26941e-07
1.11652e-06
-7.15375e-07
1.13446e-06
-3.84116e-07
1.12832e-06
-3.47279e-07
1.14342e-06
-9.3679e-08
1.13835e-06
3.05407e-08
1.14277e-06
7.02172e-08
1.1386e-06
1.50935e-07
1.1371e-06
1.13691e-07
1.13327e-06
1.66308e-07
1.24781e-07
1.12898e-06
1.20614e-06
-1.23093e-06
1.2666e-06
7.16877e-07
1.19987e-06
1.06877e-06
1.17753e-06
-1.03279e-06
1.22034e-06
-4.73705e-07
1.21788e-06
3.92139e-07
1.2101e-06
1.09576e-06
1.21194e-06
7.22423e-07
1.18069e-06
-5.11323e-08
1.17843e-06
-4.2468e-07
1.15786e-06
-6.948e-07
1.17094e-06
-3.97199e-07
1.16898e-06
-3.45324e-07
1.18329e-06
-1.07981e-07
1.1828e-06
3.10281e-08
1.1876e-06
6.54207e-08
1.18521e-06
1.53318e-07
1.18409e-06
1.14814e-07
1.18087e-06
1.69528e-07
1.2868e-07
1.17697e-06
1.24148e-06
-1.25622e-06
1.29202e-06
6.66336e-07
1.24683e-06
1.11396e-06
1.2249e-06
-1.01086e-06
1.25207e-06
-5.00871e-07
1.26301e-06
3.81196e-07
1.25815e-06
1.10063e-06
1.25942e-06
7.21148e-07
1.22993e-06
-2.16459e-08
1.22234e-06
-4.17084e-07
1.20215e-06
-6.74607e-07
1.21133e-06
-4.06385e-07
1.21065e-06
-3.44642e-07
1.22567e-06
-1.23004e-07
1.22805e-06
2.86544e-08
1.2347e-06
5.87675e-08
1.2339e-06
1.54121e-07
1.23379e-06
1.14917e-07
1.23144e-06
1.71885e-07
1.3195e-07
1.22817e-06
1.2787e-06
-1.27257e-06
1.31702e-06
6.28019e-07
1.29236e-06
1.13861e-06
1.27291e-06
-9.91414e-07
1.28621e-06
-5.14168e-07
1.30374e-06
3.63668e-07
1.30271e-06
1.10166e-06
1.30474e-06
7.19108e-07
1.27913e-06
3.97145e-09
1.26945e-06
-4.07403e-07
1.24894e-06
-6.54104e-07
1.25522e-06
-4.1266e-07
1.25345e-06
-3.42874e-07
1.26906e-06
-1.38611e-07
1.2732e-06
2.4509e-08
1.28178e-06
5.01939e-08
1.28283e-06
1.5307e-07
1.28381e-06
1.13938e-07
1.28275e-06
1.72942e-07
1.34505e-07
1.2802e-06
1.31889e-06
-1.28118e-06
1.34453e-06
6.02377e-07
1.3374e-06
1.14574e-06
1.32189e-06
-9.75904e-07
1.32381e-06
-5.16087e-07
1.34216e-06
3.45318e-07
1.34401e-06
1.09981e-06
1.34902e-06
7.141e-07
1.32822e-06
2.47682e-08
1.31934e-06
-3.98522e-07
1.29804e-06
-6.32804e-07
1.30204e-06
-4.16655e-07
1.298e-06
-3.38838e-07
1.31312e-06
-1.53728e-07
1.31808e-06
1.9546e-08
1.3278e-06
4.04743e-08
1.33073e-06
1.50145e-07
1.33253e-06
1.12134e-07
1.33296e-06
1.7251e-07
1.36343e-07
1.33113e-06
1.36265e-06
-1.28382e-06
1.37669e-06
5.88341e-07
1.38307e-06
1.13936e-06
1.37211e-06
-9.64948e-07
1.36546e-06
-5.09432e-07
1.38091e-06
3.29867e-07
1.38407e-06
1.09665e-06
1.39352e-06
7.0465e-07
1.37781e-06
4.04774e-08
1.37141e-06
-3.92128e-07
1.34935e-06
-6.10739e-07
1.35149e-06
-4.18802e-07
1.34494e-06
-3.3228e-07
1.35841e-06
-1.67203e-07
1.36328e-06
1.4674e-08
1.37307e-06
3.0691e-08
1.37744e-06
1.45768e-07
1.37963e-06
1.0995e-07
1.38138e-06
1.7076e-07
1.37564e-07
1.38016e-06
1.41006e-06
-1.28222e-06
1.41445e-06
5.83952e-07
1.43033e-06
1.12348e-06
1.42371e-06
-9.58328e-07
1.41127e-06
-4.96991e-07
1.4223e-06
3.18836e-07
1.42546e-06
1.0935e-06
1.43956e-06
6.90546e-07
1.42861e-06
5.14297e-08
1.42524e-06
-3.88763e-07
1.40272e-06
-5.88215e-07
1.40338e-06
-4.19458e-07
1.39459e-06
-3.23493e-07
1.40565e-06
-1.7826e-07
1.40976e-06
1.05563e-08
1.4186e-06
2.18527e-08
1.42375e-06
1.4062e-07
1.42581e-06
1.07893e-07
1.42845e-06
1.68121e-07
1.38371e-07
1.42764e-06
1.4608e-06
-1.27778e-06
1.45776e-06
5.86987e-07
1.47982e-06
1.10143e-06
1.47672e-06
-9.55234e-07
1.46096e-06
-4.81229e-07
1.46776e-06
3.12037e-07
1.47025e-06
1.091e-06
1.48826e-06
6.72543e-07
1.4812e-06
5.84849e-08
1.48067e-06
-3.88235e-07
1.45801e-06
-5.65553e-07
1.45743e-06
-4.18879e-07
1.44696e-06
-3.13018e-07
1.45527e-06
-1.86579e-07
1.45838e-06
7.44876e-09
1.46556e-06
1.46755e-08
1.47082e-06
1.35359e-07
1.4723e-06
1.0641e-07
1.47531e-06
1.65113e-07
1.39023e-07
1.47466e-06
1.51437e-06
-1.27128e-06
1.50604e-06
5.95321e-07
1.53182e-06
1.07565e-06
1.53115e-06
-9.54564e-07
1.51398e-06
-4.64058e-07
1.51766e-06
3.08357e-07
1.51947e-06
1.08919e-06
1.54024e-06
6.51772e-07
1.53591e-06
6.28144e-08
1.53768e-06
-3.90006e-07
1.51514e-06
-5.43014e-07
1.51342e-06
-4.17151e-07
1.50182e-06
-3.01426e-07
1.5074e-06
-1.92153e-07
1.50963e-06
5.21225e-09
1.51481e-06
9.49779e-09
1.51975e-06
1.30421e-07
1.52039e-06
1.05771e-07
1.52332e-06
1.62184e-07
1.39761e-07
1.52258e-06
1.57034e-06
-1.26301e-06
1.55868e-06
6.06987e-07
1.5865e-06
1.04783e-06
1.58706e-06
-9.55124e-07
1.56976e-06
-4.46756e-07
1.57166e-06
3.0645e-07
1.5732e-06
1.08765e-06
1.59573e-06
6.29246e-07
1.59292e-06
6.56217e-08
1.59632e-06
-3.93403e-07
1.57413e-06
-5.20833e-07
1.5712e-06
-4.14215e-07
1.55898e-06
-2.89208e-07
1.56192e-06
-1.95093e-07
1.56366e-06
3.47751e-09
1.56684e-06
6.31759e-09
1.5713e-06
1.25961e-07
1.57106e-06
1.0601e-07
1.57364e-06
1.59603e-07
1.4072e-07
1.57268e-06
1.62848e-06
-1.25295e-06
1.61538e-06
6.20086e-07
1.64402e-06
1.01919e-06
1.64461e-06
-9.55711e-07
1.62789e-06
-4.30042e-07
1.62921e-06
3.05133e-07
1.63105e-06
1.08582e-06
1.65466e-06
6.05634e-07
1.65235e-06
6.79276e-08
1.65663e-06
-3.9768e-07
1.63507e-06
-4.99271e-07
1.6308e-06
-4.09948e-07
1.61834e-06
-2.76749e-07
1.61876e-06
-1.95514e-07
1.62038e-06
1.86384e-09
1.62179e-06
4.90641e-09
1.62585e-06
1.21901e-07
1.62492e-06
1.06941e-07
1.62709e-06
1.57426e-07
1.41897e-07
1.62592e-06
1.6888e-06
-1.241e-06
1.67617e-06
6.32714e-07
1.70461e-06
9.90756e-07
1.70405e-06
-9.55159e-07
1.68826e-06
-4.14247e-07
1.68991e-06
3.03485e-07
1.69257e-06
1.08316e-06
1.71692e-06
5.8128e-07
1.71439e-06
7.04599e-08
1.71873e-06
-4.02019e-07
1.69809e-06
-4.78629e-07
1.69238e-06
-4.04244e-07
1.67999e-06
-2.64358e-07
1.67798e-06
-1.93502e-07
1.67972e-06
1.19119e-10
1.67969e-06
4.94401e-09
1.68352e-06
1.18066e-07
1.68223e-06
1.08232e-07
1.68413e-06
1.55533e-07
1.43147e-07
1.68287e-06
1.75151e-06
-1.22719e-06
1.74117e-06
6.43054e-07
1.76844e-06
9.63479e-07
1.7657e-06
-9.52413e-07
1.75097e-06
-3.99516e-07
1.75363e-06
3.00821e-07
1.75745e-06
1.07934e-06
1.78238e-06
5.5635e-07
1.77922e-06
7.36188e-08
1.78276e-06
-4.05556e-07
1.76334e-06
-4.59207e-07
1.75613e-06
-3.97043e-07
1.74412e-06
-2.52341e-07
1.73977e-06
-1.89157e-07
1.74171e-06
-1.82072e-09
1.74054e-06
6.11644e-09
1.7443e-06
1.14309e-07
1.743e-06
1.09524e-07
1.74483e-06
1.53708e-07
1.44246e-07
1.74373e-06
1.8169e-06
-1.21175e-06
1.81035e-06
6.49601e-07
1.8356e-06
9.38226e-07
1.82985e-06
-9.46655e-07
1.81629e-06
-3.85958e-07
1.82045e-06
2.96655e-07
1.82552e-06
1.07427e-06
1.85088e-06
5.30983e-07
1.84702e-06
7.74833e-08
1.84892e-06
-4.07462e-07
1.83097e-06
-4.41252e-07
1.82226e-06
-3.88333e-07
1.81094e-06
-2.4102e-07
1.80444e-06
-1.82657e-07
1.80647e-06
-3.85443e-09
1.80443e-06
8.15886e-09
1.80814e-06
1.10603e-07
1.80711e-06
1.10547e-07
1.80907e-06
1.51748e-07
1.44964e-07
1.80836e-06
1.88523e-06
-1.19508e-06
1.88343e-06
6.51405e-07
1.90599e-06
9.15659e-07
1.89676e-06
-9.37421e-07
1.88452e-06
-3.73717e-07
1.89047e-06
2.90702e-07
1.89664e-06
1.0681e-06
1.92223e-06
5.05395e-07
1.91786e-06
8.185e-08
1.91746e-06
-4.07062e-07
1.90112e-06
-4.24907e-07
1.89091e-06
-3.78122e-07
1.8806e-06
-2.30713e-07
1.87225e-06
-1.74303e-07
1.87418e-06
-5.78628e-09
1.87149e-06
1.08435e-08
1.87504e-06
1.07055e-07
1.87442e-06
1.11171e-07
1.87662e-06
1.4954e-07
1.45144e-07
1.87644e-06
1.95664e-06
-1.17762e-06
1.95985e-06
6.48191e-07
1.97939e-06
8.96117e-07
1.96663e-06
-9.24653e-07
1.95586e-06
-3.62954e-07
1.96367e-06
2.8289e-07
1.97072e-06
1.06106e-06
1.99621e-06
4.79904e-07
1.99175e-06
8.63143e-08
1.98861e-06
-4.03922e-07
1.97389e-06
-4.10193e-07
1.96215e-06
-3.66383e-07
1.95315e-06
-2.21705e-07
1.94336e-06
-1.64511e-07
1.94497e-06
-7.40273e-09
1.94187e-06
1.39456e-08
1.94507e-06
1.03853e-07
1.94483e-06
1.11416e-07
1.94729e-06
1.47079e-07
1.44746e-07
1.94769e-06
2.03112e-06
-1.15969e-06
2.03904e-06
6.40278e-07
2.05559e-06
8.79563e-07
2.03959e-06
-9.08646e-07
2.03038e-06
-3.53746e-07
2.03993e-06
2.7334e-07
2.04767e-06
1.05331e-06
2.07266e-06
4.54915e-07
2.0686e-06
9.03821e-08
2.06254e-06
-3.97868e-07
2.04939e-06
-3.9704e-07
2.03608e-06
-3.53074e-07
2.02855e-06
-2.14175e-07
2.01782e-06
-1.53781e-07
2.01893e-06
-8.51133e-09
2.01567e-06
1.72067e-08
2.01834e-06
1.01182e-07
2.01836e-06
1.11394e-07
2.021e-06
1.44437e-07
1.43823e-07
2.02192e-06
2.10862e-06
-1.14147e-06
2.12055e-06
6.28348e-07
2.13448e-06
8.65634e-07
2.11576e-06
-8.89921e-07
2.10801e-06
-3.45996e-07
2.11903e-06
2.62315e-07
2.1275e-06
1.04484e-06
2.15154e-06
4.30875e-07
2.14834e-06
9.35876e-08
2.13939e-06
-3.88923e-07
2.12773e-06
-3.85378e-07
2.11283e-06
-3.38172e-07
2.10679e-06
-2.08138e-07
2.09561e-06
-1.42602e-07
2.09608e-06
-8.97691e-09
2.09292e-06
2.0363e-08
2.09497e-06
9.91367e-08
2.0951e-06
1.11259e-07
2.09783e-06
1.41703e-07
1.42463e-07
2.0992e-06
2.18906e-06
-1.12295e-06
2.20425e-06
6.13165e-07
2.21612e-06
8.53755e-07
2.19526e-06
-8.69053e-07
2.18865e-06
-3.39392e-07
2.20082e-06
2.50151e-07
2.2103e-06
1.03535e-06
2.23293e-06
4.08242e-07
2.23095e-06
9.55699e-08
2.21925e-06
-3.77221e-07
2.20904e-06
-3.75168e-07
2.19262e-06
-3.21758e-07
2.18789e-06
-2.03406e-07
2.17672e-06
-1.31427e-07
2.17645e-06
-8.70605e-09
2.1736e-06
2.32071e-08
2.17506e-06
9.76748e-08
2.17516e-06
1.1116e-07
2.17793e-06
1.38935e-07
1.40734e-07
2.17966e-06
2.27244e-06
-1.104e-06
2.29022e-06
5.95382e-07
2.30072e-06
8.43255e-07
2.27821e-06
-8.46543e-07
2.27226e-06
-3.3344e-07
2.28519e-06
2.37216e-07
2.29621e-06
1.02434e-06
2.317e-06
3.87449e-07
2.31646e-06
9.61103e-08
2.30221e-06
-3.62974e-07
2.2934e-06
-3.66358e-07
2.27572e-06
-3.04071e-07
2.27196e-06
-1.99654e-07
2.26116e-06
-1.20622e-07
2.26011e-06
-7.65368e-09
2.25766e-06
2.56533e-08
2.25869e-06
9.66445e-08
2.25866e-06
1.11188e-07
2.26143e-06
1.3617e-07
1.38686e-07
2.26348e-06
2.3588e-06
-1.08442e-06
2.37872e-06
5.75468e-07
2.38852e-06
8.33448e-07
2.36474e-06
-8.22761e-07
2.35885e-06
-3.27547e-07
2.37218e-06
2.23889e-07
2.38538e-06
1.01114e-06
2.40396e-06
3.68868e-07
2.40493e-06
9.51391e-08
2.38837e-06
-3.46413e-07
2.38088e-06
-3.58871e-07
2.36232e-06
-2.85511e-07
2.35916e-06
-1.96495e-07
2.34899e-06
-1.10444e-07
2.34719e-06
-5.85353e-09
2.34503e-06
2.78137e-08
2.34583e-06
9.58383e-08
2.34573e-06
1.11294e-07
2.34841e-06
1.33485e-07
1.36382e-07
2.35072e-06
2.44829e-06
-1.06403e-06
2.47001e-06
5.53752e-07
2.47977e-06
8.23683e-07
2.45496e-06
-7.97955e-07
2.44855e-06
-3.2113e-07
2.46187e-06
2.10571e-07
2.47791e-06
9.95089e-07
2.49403e-06
3.52755e-07
2.49646e-06
9.27007e-08
2.47785e-06
-3.27796e-07
2.47153e-06
-3.52557e-07
2.4526e-06
-2.66576e-07
2.44965e-06
-1.93549e-07
2.44027e-06
-1.0106e-07
2.43786e-06
-3.44005e-09
2.43565e-06
3.00153e-08
2.43682e-06
9.46742e-08
2.43662e-06
1.11488e-07
2.43893e-06
1.31178e-07
1.33927e-07
2.44139e-06
2.54106e-06
-1.04269e-06
2.56431e-06
5.305e-07
2.57462e-06
8.13371e-07
2.54897e-06
-7.72305e-07
2.54155e-06
-3.13707e-07
2.55443e-06
1.97688e-07
2.57384e-06
9.7568e-07
2.58734e-06
3.39252e-07
2.59119e-06
8.88516e-08
2.5708e-06
-3.07401e-07
2.56541e-06
-3.47165e-07
2.54666e-06
-2.47834e-07
2.54354e-06
-1.90426e-07
2.5351e-06
-9.26153e-08
2.53224e-06
-5.85043e-10
2.52942e-06
3.28344e-08
2.53282e-06
9.12745e-08
2.53142e-06
1.12886e-07
2.53303e-06
1.29572e-07
1.31477e-07
2.53548e-06
2.63729e-06
-1.0203e-06
2.6618e-06
5.05989e-07
2.67316e-06
8.02011e-07
2.64683e-06
-7.45975e-07
2.63809e-06
-3.04966e-07
2.6501e-06
1.85682e-07
2.67317e-06
9.52606e-07
2.68404e-06
3.28382e-07
2.68926e-06
8.36339e-08
2.66742e-06
-2.85558e-07
2.66257e-06
-3.42314e-07
2.64467e-06
-2.29936e-07
2.64089e-06
-1.86647e-07
2.63364e-06
-8.53629e-08
2.63055e-06
2.50422e-09
2.6261e-06
3.72808e-08
2.62647e-06
9.08999e-08
2.62695e-06
1.12413e-07
2.63083e-06
1.25685e-07
1.29267e-07
2.63304e-06
2.7372e-06
-9.96845e-07
2.76265e-06
4.80538e-07
2.77544e-06
7.89223e-07
2.7486e-06
-7.19138e-07
2.73844e-06
-2.94802e-07
2.74915e-06
1.74964e-07
2.77592e-06
9.25845e-07
2.78426e-06
3.20034e-07
2.7908e-06
7.71021e-08
2.76794e-06
-2.62701e-07
2.76307e-06
-3.37441e-07
2.74684e-06
-2.13706e-07
2.74166e-06
-1.81467e-07
2.7363e-06
-8.00063e-08
2.73282e-06
5.98717e-09
2.72697e-06
4.31314e-08
2.72562e-06
9.22426e-08
2.7254e-06
1.12635e-07
2.73255e-06
1.18541e-07
1.27713e-07
2.7341e-06
2.84098e-06
-9.72369e-07
2.86702e-06
4.54505e-07
2.88147e-06
7.74771e-07
2.85431e-06
-6.9198e-07
2.84283e-06
-2.83324e-07
2.85193e-06
1.65862e-07
2.88213e-06
8.95648e-07
2.88819e-06
3.1397e-07
2.89594e-06
6.93524e-08
2.8726e-06
-2.39359e-07
2.86701e-06
-3.31853e-07
2.85343e-06
-2.0012e-07
2.84589e-06
-1.73931e-07
2.84366e-06
-7.77743e-08
2.83984e-06
9.81095e-09
2.84114e-06
4.18236e-08
2.84273e-06
9.06589e-08
2.84306e-06
1.12306e-07
2.83832e-06
1.23275e-07
1.27293e-07
2.83874e-06
2.94885e-06
-9.46973e-07
2.9751e-06
4.28249e-07
2.9913e-06
7.58575e-07
2.96399e-06
-6.6467e-07
2.95149e-06
-2.70827e-07
2.95877e-06
1.58588e-07
2.99193e-06
8.62486e-07
2.99604e-06
3.09864e-07
3.0049e-06
6.04871e-08
2.98154e-06
-2.15995e-07
2.97472e-06
-3.25038e-07
2.96438e-06
-1.89777e-07
2.95413e-06
-1.63681e-07
2.95455e-06
-7.81903e-08
2.95064e-06
1.37165e-08
2.95327e-06
3.91941e-08
2.95248e-06
9.14438e-08
2.94862e-06
1.16172e-07
2.9476e-06
1.24299e-07
1.27487e-07
2.9474e-06
3.06099e-06
-9.20805e-07
3.08715e-06
4.02092e-07
3.10504e-06
7.40682e-07
3.07769e-06
-6.37317e-07
3.06461e-06
-2.57753e-07
3.06993e-06
1.5327e-07
3.10554e-06
8.26883e-07
3.10796e-06
3.0744e-07
3.11792e-06
5.05323e-08
3.09473e-06
-1.92807e-07
3.08677e-06
-3.17085e-07
3.07867e-06
-1.81672e-07
3.06783e-06
-1.52841e-07
3.06818e-06
-7.85405e-08
3.06563e-06
1.62648e-08
3.06833e-06
3.64989e-08
3.07e-06
8.97704e-08
3.07145e-06
1.14725e-07
3.06029e-06
1.35453e-07
1.27532e-07
3.06025e-06
3.17759e-06
-8.94032e-07
3.20339e-06
3.76293e-07
3.22285e-06
7.21222e-07
3.19545e-06
-6.09919e-07
3.18236e-06
-2.44661e-07
3.18566e-06
1.49968e-07
3.22321e-06
7.89328e-07
3.22415e-06
3.06504e-07
3.23519e-06
3.94901e-08
3.21221e-06
-1.69822e-07
3.20372e-06
-3.08602e-07
3.1954e-06
-1.73352e-07
3.18734e-06
-1.44774e-07
3.18556e-06
-7.6763e-08
3.18476e-06
1.70594e-08
3.16975e-06
5.15174e-08
3.16583e-06
9.36824e-08
3.16653e-06
1.14026e-07
3.17624e-06
1.25743e-07
1.2621e-07
3.17756e-06
3.2988e-06
-8.66817e-07
3.32406e-06
3.51027e-07
3.34488e-06
7.00401e-07
3.31743e-06
-5.82462e-07
3.30475e-06
-2.3198e-07
3.30625e-06
1.48467e-07
3.34507e-06
7.50506e-07
3.34509e-06
3.06486e-07
3.35656e-06
2.80139e-08
3.3347e-06
-1.47963e-07
3.32473e-06
-2.98626e-07
3.31784e-06
-1.66461e-07
3.30903e-06
-1.35963e-07
3.30173e-06
-6.94698e-08
3.29898e-06
1.98085e-08
3.28952e-06
6.09855e-08
3.28631e-06
9.68911e-08
3.28687e-06
1.1346e-07
3.29732e-06
1.15296e-07
1.24597e-07
3.29893e-06
3.42478e-06
-8.39319e-07
3.44942e-06
3.26391e-07
3.47139e-06
6.78431e-07
3.44378e-06
-5.54853e-07
3.43185e-06
-2.20046e-07
3.4319e-06
1.48415e-07
3.47126e-06
7.11147e-07
3.47109e-06
3.06656e-07
3.4821e-06
1.70061e-08
3.46258e-06
-1.28443e-07
3.44973e-06
-2.8578e-07
3.44584e-06
-1.6257e-07
3.43401e-06
-1.24132e-07
3.4291e-06
-6.45592e-08
3.42394e-06
2.49673e-08
3.43475e-06
5.01735e-08
3.44183e-06
8.98117e-08
3.44213e-06
1.1316e-07
3.42403e-06
1.33392e-07
1.24228e-07
3.4244e-06
3.5557e-06
-8.11676e-07
3.57965e-06
3.0244e-07
3.60268e-06
6.55401e-07
3.57457e-06
-5.26742e-07
3.56391e-06
-2.09384e-07
3.56255e-06
1.49778e-07
3.60236e-06
6.71335e-07
3.60177e-06
3.0725e-07
3.61267e-06
6.10483e-09
3.59445e-06
-1.1023e-07
3.58109e-06
-2.72419e-07
3.57457e-06
-1.56049e-07
3.56724e-06
-1.16797e-07
3.55808e-06
-5.53985e-08
3.55563e-06
2.74106e-08
3.54371e-06
6.20932e-08
3.54067e-06
9.28608e-08
3.54217e-06
1.11658e-07
3.55335e-06
1.2221e-07
1.22281e-07
3.5553e-06
3.69169e-06
-7.83984e-07
3.71499e-06
2.79139e-07
3.73893e-06
6.3147e-07
3.71019e-06
-4.98004e-07
3.70082e-06
-2.00015e-07
3.69864e-06
1.51962e-07
3.73804e-06
6.31934e-07
3.73807e-06
3.0722e-07
3.74743e-06
-3.25618e-09
3.73236e-06
-9.51654e-08
3.71584e-06
-2.55901e-07
3.7086e-06
-1.48807e-07
3.69684e-06
-1.05033e-07
3.69183e-06
-5.0388e-08
3.68994e-06
2.9301e-08
3.67849e-06
7.35446e-08
3.67522e-06
9.61301e-08
3.67599e-06
1.10883e-07
3.68894e-06
1.09264e-07
1.20539e-07
3.69068e-06
3.83292e-06
-7.56317e-07
3.85561e-06
2.56449e-07
3.88035e-06
6.06729e-07
3.85094e-06
-4.68589e-07
3.84263e-06
-1.91706e-07
3.84042e-06
1.54166e-07
3.87819e-06
5.94165e-07
3.88048e-06
3.04936e-07
3.88611e-06
-8.88642e-09
3.87678e-06
-8.58427e-08
3.85233e-06
-2.31448e-07
3.85322e-06
-1.49702e-07
3.83519e-06
-8.69953e-08
3.83188e-06
-4.70835e-08
3.83179e-06
2.93928e-08
3.8504e-06
5.49373e-08
3.85691e-06
8.96173e-08
3.85413e-06
1.13664e-07
3.83155e-06
1.31843e-07
1.21471e-07
3.83062e-06
3.97959e-06
-7.2875e-07
4.00161e-06
2.34422e-07
4.02737e-06
5.80971e-07
3.99679e-06
-4.38006e-07
3.98994e-06
-1.8486e-07
3.98738e-06
1.56731e-07
4.02447e-06
5.57075e-07
4.0269e-06
3.02508e-07
4.0322e-06
-1.41939e-08
4.02205e-06
-7.56899e-08
4.001e-06
-2.10399e-07
3.99321e-06
-1.41912e-07
3.98331e-06
-7.70896e-08
3.9758e-06
-3.95784e-08
3.97437e-06
3.0819e-08
3.96494e-06
6.43732e-08
3.96126e-06
9.32944e-08
3.96215e-06
1.12778e-07
3.97519e-06
1.18803e-07
1.19408e-07
3.97725e-06
4.13184e-06
-7.01304e-07
4.15325e-06
2.13013e-07
4.17991e-06
5.54305e-07
4.14844e-06
-4.06539e-07
4.14247e-06
-1.78886e-07
4.14037e-06
1.58835e-07
4.17575e-06
5.2169e-07
4.17928e-06
2.98975e-07
4.1834e-06
-1.83137e-08
4.17307e-06
-6.53584e-08
4.15386e-06
-1.91189e-07
4.14322e-06
-1.31264e-07
4.13556e-06
-6.94331e-08
4.12556e-06
-2.9583e-08
4.12445e-06
3.19369e-08
4.1184e-06
7.04215e-08
4.11311e-06
9.85826e-08
4.11268e-06
1.13209e-07
4.12663e-06
1.04847e-07
1.17208e-07
4.12883e-06
4.2899e-06
-6.74018e-07
4.31065e-06
1.92267e-07
4.33817e-06
5.26783e-07
4.30622e-06
-3.74593e-07
4.30031e-06
-1.72972e-07
4.29984e-06
1.59301e-07
4.33188e-06
4.8965e-07
4.33836e-06
2.92501e-07
4.33862e-06
-1.8576e-08
4.33278e-06
-5.95153e-08
4.30783e-06
-1.66246e-07
4.30181e-06
-1.25245e-07
4.2911e-06
-5.87147e-08
4.28336e-06
-2.18458e-08
4.27929e-06
3.60028e-08
4.2871e-06
6.26164e-08
4.30098e-06
8.46982e-08
4.30838e-06
1.05811e-07
4.28655e-06
1.26681e-07
1.18369e-07
4.28539e-06
4.45405e-06
-6.46979e-07
4.47392e-06
1.72394e-07
4.50251e-06
4.98196e-07
4.46996e-06
-3.42049e-07
4.46434e-06
-1.67352e-07
4.46478e-06
1.58869e-07
4.49539e-06
4.59036e-07
4.50156e-06
2.86333e-07
4.50197e-06
-1.89888e-08
4.49502e-06
-5.25648e-08
4.47228e-06
-1.43502e-07
4.46297e-06
-1.15943e-07
4.45487e-06
-5.06118e-08
4.44661e-06
-1.35877e-08
4.44378e-06
3.88378e-08
4.44176e-06
6.46384e-08
4.43527e-06
9.11857e-08
4.43332e-06
1.07756e-07
4.44746e-06
1.12545e-07
1.16231e-07
4.4496e-06
4.62444e-06
-6.20208e-07
4.64349e-06
1.53345e-07
4.67275e-06
4.68927e-07
4.64039e-06
-3.09685e-07
4.63409e-06
-1.61051e-07
4.63643e-06
1.5653e-07
4.66479e-06
4.30673e-07
4.671e-06
2.80128e-07
4.67132e-06
-1.93158e-08
4.66368e-06
-4.49273e-08
4.64259e-06
-1.22406e-07
4.63102e-06
-1.0437e-07
4.6248e-06
-4.43964e-08
4.61624e-06
-5.02662e-09
4.61335e-06
4.173e-08
4.60978e-06
6.82037e-08
4.60914e-06
9.18243e-08
4.60962e-06
1.0728e-07
4.61618e-06
1.05981e-07
1.12712e-07
4.6197e-06
4.80135e-06
-5.93771e-07
4.81944e-06
1.35251e-07
4.84927e-06
4.39101e-07
4.81765e-06
-2.78065e-07
4.80979e-06
-1.53188e-07
4.81477e-06
1.51552e-07
4.84033e-06
4.05107e-07
4.84752e-06
2.72944e-07
4.8455e-06
-1.73007e-08
4.84042e-06
-3.98517e-08
4.81811e-06
-1.00092e-07
4.80689e-06
-9.31464e-08
4.80005e-06
-3.75549e-08
4.79329e-06
1.72746e-09
4.78883e-06
4.61925e-08
4.78711e-06
6.9924e-08
4.79008e-06
8.88548e-08
4.79574e-06
1.01613e-07
4.79271e-06
1.09015e-07
1.09515e-07
4.79591e-06
4.98506e-06
-5.6776e-07
5.00201e-06
1.183e-07
5.03238e-06
4.08733e-07
5.00172e-06
-2.47404e-07
4.99225e-06
-1.43717e-07
4.99905e-06
1.44751e-07
5.02341e-06
3.80744e-07
5.02997e-06
2.6639e-07
5.02663e-06
-1.39668e-08
5.02299e-06
-3.62126e-08
5.0011e-06
-7.82015e-08
4.98921e-06
-8.1255e-08
4.98243e-06
-3.07712e-08
4.97682e-06
7.3369e-09
4.97203e-06
5.09799e-08
4.97038e-06
7.15707e-08
4.97025e-06
8.89832e-08
4.96894e-06
1.02924e-07
4.97593e-06
1.0203e-07
1.06502e-07
4.97894e-06
5.17578e-06
-5.42225e-07
5.19164e-06
1.02433e-07
5.22216e-06
3.7822e-07
5.1932e-06
-2.18451e-07
5.18154e-06
-1.3205e-07
5.19005e-06
1.3624e-07
5.21329e-06
3.57507e-07
5.21933e-06
2.60346e-07
5.21448e-06
-9.11343e-09
5.21199e-06
-3.3726e-08
5.19114e-06
-5.73561e-08
5.17869e-06
-6.88049e-08
5.17188e-06
-2.39625e-08
5.16688e-06
1.23384e-08
5.16254e-06
5.5327e-08
5.16086e-06
7.32429e-08
5.16325e-06
8.65981e-08
5.16747e-06
9.87062e-08
5.16638e-06
1.03114e-07
1.03831e-07
5.16905e-06
5.3738e-06
-5.17243e-07
5.38848e-06
8.77481e-08
5.41902e-06
3.47686e-07
5.39219e-06
-1.91627e-07
5.37842e-06
-1.18278e-07
5.38767e-06
1.26993e-07
5.41039e-06
3.34785e-07
5.41584e-06
2.54898e-07
5.40922e-06
-2.49214e-09
5.40765e-06
-3.21612e-08
5.38876e-06
-3.84682e-08
5.37556e-06
-5.5604e-08
5.36858e-06
-1.69858e-08
5.36417e-06
1.6749e-08
5.36084e-06
5.86585e-08
5.35849e-06
7.55976e-08
5.35866e-06
8.6427e-08
5.35875e-06
9.8618e-08
5.36385e-06
9.80121e-08
1.01157e-07
5.36652e-06
5.57937e-06
-4.92875e-07
5.59288e-06
7.42331e-08
5.62319e-06
3.17376e-07
5.59896e-06
-1.67394e-07
5.58327e-06
-1.02582e-07
5.59224e-06
1.18021e-07
5.61473e-06
3.1229e-07
5.61971e-06
2.49921e-07
5.61146e-06
5.76181e-09
5.61056e-06
-3.12693e-08
5.59407e-06
-2.19772e-08
5.5801e-06
-4.1635e-08
5.57297e-06
-9.85472e-09
5.56891e-06
2.08164e-08
5.5665e-06
6.10667e-08
5.56367e-06
7.84284e-08
5.56459e-06
8.55017e-08
5.5666e-06
9.66135e-08
5.56892e-06
9.56905e-08
9.83977e-08
5.57168e-06
5.79278e-06
-4.69176e-07
5.80517e-06
6.1847e-08
5.83497e-06
2.87572e-07
5.81381e-06
-1.46233e-07
5.79631e-06
-8.50787e-08
5.80416e-06
1.10165e-07
5.82636e-06
2.90092e-07
5.8314e-06
2.44882e-07
5.82177e-06
1.53942e-08
5.82105e-06
-3.05541e-08
5.80703e-06
-7.95083e-09
5.79263e-06
-2.72437e-08
5.78534e-06
-2.55575e-09
5.78134e-06
2.48113e-08
5.77984e-06
6.25651e-08
5.7772e-06
8.10738e-08
5.77826e-06
8.44357e-08
5.78113e-06
9.37444e-08
5.78184e-06
9.49868e-08
9.55329e-08
5.7847e-06
6.01432e-06
-4.462e-07
6.02559e-06
5.05799e-08
6.05471e-06
2.58451e-07
6.03664e-06
-1.28163e-07
6.018e-06
-6.64334e-08
6.02378e-06
1.04378e-07
6.04598e-06
2.67899e-07
6.05119e-06
2.39666e-07
6.04052e-06
2.60654e-08
6.03931e-06
-2.93431e-08
6.02798e-06
3.38178e-09
6.01349e-06
-1.27565e-08
6.00608e-06
4.85277e-09
6.00189e-06
2.90002e-08
6.00125e-06
6.32127e-08
5.99889e-06
8.34288e-08
5.99828e-06
8.50466e-08
5.99846e-06
9.35628e-08
6.00282e-06
9.06257e-08
9.25775e-08
6.00578e-06
6.24428e-06
-4.23984e-07
6.25453e-06
4.03389e-08
6.28265e-06
2.30322e-07
6.26774e-06
-1.13254e-07
6.24841e-06
-4.71027e-08
6.25208e-06
1.00713e-07
6.27368e-06
2.46304e-07
6.27951e-06
2.33831e-07
6.26805e-06
3.75276e-08
6.26585e-06
-2.7146e-08
6.25717e-06
1.20647e-08
6.24304e-06
1.37105e-09
6.23536e-06
1.25319e-08
6.23089e-06
3.3475e-08
6.23067e-06
6.34318e-08
6.22901e-06
8.5084e-08
6.22886e-06
8.51978e-08
6.23183e-06
9.05948e-08
6.2324e-06
9.00543e-08
8.96407e-08
6.23534e-06
6.48299e-06
-4.02571e-07
6.4922e-06
3.11252e-08
6.5192e-06
2.03326e-07
6.50717e-06
-1.0122e-07
6.4879e-06
-2.78377e-08
6.48931e-06
9.93057e-08
6.51004e-06
2.2557e-07
6.51664e-06
2.27236e-07
6.50467e-06
4.94928e-08
6.50111e-06
-2.3578e-08
6.49478e-06
1.8395e-08
6.48142e-06
1.47242e-08
6.47347e-06
2.04812e-08
6.46876e-06
3.81845e-08
6.46877e-06
6.34235e-08
6.46797e-06
8.58811e-08
6.46664e-06
8.65347e-08
6.46712e-06
9.01104e-08
6.4706e-06
8.65729e-08
8.67322e-08
6.47351e-06
6.73074e-06
-3.81976e-07
6.73896e-06
2.29063e-08
6.76468e-06
1.77611e-07
6.75525e-06
-9.17953e-08
6.73672e-06
-9.30292e-09
6.73601e-06
1.00012e-07
6.75541e-06
2.06175e-07
6.76275e-06
2.1989e-07
6.75064e-06
6.16044e-08
6.74549e-06
-1.84208e-08
6.74119e-06
2.26917e-08
6.72898e-06
2.69279e-08
6.72085e-06
2.86132e-08
6.71594e-06
4.3095e-08
6.71571e-06
6.36534e-08
6.71573e-06
8.5866e-08
6.71492e-06
8.73423e-08
6.71689e-06
8.81365e-08
6.71782e-06
8.56446e-08
8.3678e-08
6.72088e-06
6.98789e-06
-3.62214e-07
6.99505e-06
1.57457e-08
7.01945e-06
1.53213e-07
7.01244e-06
-8.4791e-08
6.99538e-06
7.76409e-09
6.99254e-06
1.02844e-07
7.01013e-06
1.88591e-07
7.01818e-06
2.11834e-07
7.00631e-06
7.34794e-08
6.99957e-06
-1.1685e-08
6.99666e-06
2.56032e-08
6.98596e-06
3.76251e-08
6.97765e-06
3.69311e-08
6.9727e-06
4.80407e-08
6.97197e-06
6.43833e-08
6.9728e-06
8.5032e-08
6.97194e-06
8.82033e-08
6.97262e-06
8.74578e-08
6.97463e-06
8.36374e-08
8.05504e-08
6.97776e-06
7.25475e-06
-3.43273e-07
7.26081e-06
9.681e-09
7.28389e-06
1.30133e-07
7.27906e-06
-7.99586e-08
7.26431e-06
2.2519e-08
7.25934e-06
1.0781e-07
7.27465e-06
1.73278e-07
7.2832e-06
2.0329e-07
7.27196e-06
8.47173e-08
7.26369e-06
-3.41936e-09
7.26158e-06
2.77212e-08
7.25264e-06
4.65577e-08
7.24432e-06
4.52526e-08
7.23949e-06
5.28717e-08
7.23815e-06
6.57282e-08
7.23958e-06
8.35946e-08
7.23929e-06
8.84935e-08
7.24045e-06
8.62988e-08
7.24127e-06
8.28184e-08
7.78353e-08
7.24399e-06
7.53168e-06
-3.25125e-07
7.53675e-06
4.60973e-09
7.55834e-06
1.08543e-07
7.55556e-06
-7.71741e-08
7.54337e-06
3.47079e-08
7.5368e-06
1.14375e-07
7.54928e-06
1.60802e-07
7.55817e-06
1.94405e-07
7.54791e-06
9.49757e-08
7.53833e-06
6.15532e-09
7.53642e-06
2.96298e-08
7.52939e-06
5.3595e-08
7.52121e-06
5.34275e-08
7.51657e-06
5.751e-08
7.51456e-06
6.77379e-08
7.51627e-06
8.18875e-08
7.51634e-06
8.84275e-08
7.51723e-06
8.54023e-08
7.51822e-06
8.18297e-08
7.57438e-08
7.52031e-06
7.81904e-06
-3.07709e-07
7.82342e-06
2.24817e-10
7.84323e-06
8.87383e-08
7.84224e-06
-7.61893e-08
7.83264e-06
4.43136e-08
7.82509e-06
1.21927e-07
7.83439e-06
1.51498e-07
7.84344e-06
1.85355e-07
7.83446e-06
1.03953e-07
7.82388e-06
1.67423e-08
7.82165e-06
3.18582e-08
7.8165e-06
5.87436e-08
7.80866e-06
6.12639e-08
7.8042e-06
6.19756e-08
7.80175e-06
7.01836e-08
7.80337e-06
8.02711e-08
7.80383e-06
8.79662e-08
7.80497e-06
8.42608e-08
7.80576e-06
8.10407e-08
7.41214e-08
7.80738e-06
8.1172e-06
-2.9095e-07
8.12125e-06
-3.82709e-09
8.13891e-06
7.10824e-08
8.13946e-06
-7.67416e-08
8.13259e-06
5.11838e-08
8.1238e-06
1.30722e-07
8.13025e-06
1.45048e-07
8.13944e-06
1.76159e-07
8.13196e-06
1.11436e-07
8.12076e-06
2.79394e-08
8.11778e-06
3.48422e-08
8.1143e-06
6.22191e-08
8.10703e-06
6.85374e-08
8.1028e-06
6.62018e-08
8.10008e-06
7.29045e-08
8.10133e-06
7.90201e-08
8.1023e-06
8.69995e-08
8.1036e-06
8.29595e-08
8.1042e-06
8.04445e-08
7.29071e-08
8.10541e-06
8.42656e-06
-2.74746e-07
8.4306e-06
-7.87222e-09
8.44542e-06
5.62654e-08
8.4474e-06
-7.87231e-08
8.44277e-06
5.58106e-08
8.4319e-06
1.41596e-07
8.43726e-06
1.39683e-07
8.44666e-06
1.66763e-07
8.44068e-06
1.17411e-07
8.42936e-06
3.92632e-08
8.4253e-06
3.88991e-08
8.42316e-06
6.43661e-08
8.41676e-06
7.493e-08
8.41273e-06
7.02319e-08
8.40994e-06
7.56943e-08
8.41075e-06
7.82173e-08
8.41194e-06
8.58067e-08
8.41304e-06
8.18624e-08
8.41396e-06
7.95243e-08
7.20664e-08
8.4148e-06
8.74753e-06
-2.5899e-07
8.75181e-06
-1.21558e-08
8.76223e-06
4.58479e-08
8.76497e-06
-8.14586e-08
8.75821e-06
6.25667e-08