/*--------------------------------*- C++ -*----------------------------------*\
| =========                 |                                                 |
| \\      /  F ield         | OpenFOAM: The Open Source CFD Toolbox           |
|  \\    /   O peration     | Version:  v2012                                 |
|   \\  /    A nd           | Website:  www.openfoam.com                      |
|    \\/     M anipulation  |                                                 |
\*---------------------------------------------------------------------------*/
FoamFile
{
    version     2.0;
    format      ascii;
    class       volVectorField;
    location    "2";
    object      U;
}
// * * * * * * * * * * * * * * * * * * * * * * * * * * * * * * * * * * * * * //

dimensions      [0 1 -1 0 0 0 0];


internalField   nonuniform List<vector> 
7000
(
(0.774866 -0.0073369 0)
(1.29537 0.0100543 0)
(0.924035 0.00356956 0)
(0.996214 -0.0126094 0)
(0.951526 0.000730672 0)
(1.20278 4.28707e-05 0)
(0.788848 0.0194225 0)
(1.25087 0.00949846 0)
(0.653834 -0.00144276 0)
(1.27103 -0.00990151 0)
(0.68503 -0.0197224 0)
(1.25034 -0.00826739 0)
(0.764323 -0.0131647 0)
(1.21626 3.45578e-05 0)
(0.81685 -0.00152488 0)
(1.18275 0.00636412 0)
(0.8492 0.00467472 0)
(1.15477 0.00922828 0)
(0.868405 0.00749213 0)
(1.13109 0.0107869 0)
(0.785545 -0.00776408 0)
(1.28814 0.00953747 0)
(0.940472 0.00520198 0)
(0.999667 -0.0126527 0)
(0.957105 -0.000909852 0)
(1.19659 0.00182863 0)
(0.80009 0.0188492 0)
(1.22998 0.0113481 0)
(0.702697 -0.00231579 0)
(1.2318 -0.00958325 0)
(0.739729 -0.0201756 0)
(1.21429 -0.00877598 0)
(0.811302 -0.0132567 0)
(1.18069 -0.000400586 0)
(0.867223 -0.00127856 0)
(1.13639 0.00582576 0)
(0.912211 0.00544713 0)
(1.08969 0.00834641 0)
(0.950016 0.0088855 0)
(1.04287 0.00949433 0)
(0.804952 -0.00822251 0)
(1.27084 0.00903707 0)
(0.966905 0.00653667 0)
(1.0019 -0.0127116 0)
(0.967498 -0.00220308 0)
(1.18281 0.00321069 0)
(0.828545 0.0181871 0)
(1.19474 0.012654 0)
(0.777101 -0.00289148 0)
(1.17671 -0.00946617 0)
(0.817997 -0.0204677 0)
(1.15442 -0.00933966 0)
(0.883096 -0.0130797 0)
(1.11958 -0.00107409 0)
(0.938339 -0.000601647 0)
(1.07235 0.00496301 0)
(0.977977 0.00654623 0)
(1.03078 0.00743075 0)
(0.99972 0.0101223 0)
(1.00237 0.00894403 0)
(0.831364 -0.0086447 0)
(1.24318 0.00852703 0)
(0.99569 0.00772555 0)
(1.00159 -0.0126388 0)
(0.9804 -0.00336736 0)
(1.16125 0.00433044 0)
(0.871922 0.0178394 0)
(1.15358 0.0132906 0)
(0.857481 -0.00295355 0)
(1.11686 -0.00962647 0)
(0.894362 -0.020364 0)
(1.08802 -0.0100589 0)
(0.947537 -0.0126436 0)
(1.0593 -0.00197675 0)
(0.989737 0.000278095 0)
(1.02595 0.00419027 0)
(1.01032 0.00743855 0)
(1.00408 0.00699272 0)
(1.01277 0.0108659 0)
(0.993209 0.00908125 0)
(0.862239 -0.00904213 0)
(1.20695 0.0079314 0)
(1.02085 0.00883271 0)
(1.00004 -0.0124712 0)
(0.992987 -0.00440232 0)
(1.13389 0.00513022 0)
(0.92193 0.0177806 0)
(1.11439 0.0135476 0)
(0.927129 -0.00262538 0)
(1.06546 -0.00991774 0)
(0.949494 -0.0199578 0)
(1.03494 -0.0108224 0)
(0.985876 -0.0121967 0)
(1.02058 -0.0027634 0)
(1.01198 0.000929398 0)
(1.00671 0.00374742 0)
(1.01749 0.00798103 0)
(0.999474 0.00695572 0)
(1.01124 0.0113094 0)
(0.995315 0.0094673 0)
(0.894395 -0.00940393 0)
(1.16553 0.00730395 0)
(1.03841 0.00980349 0)
(0.999133 -0.012246 0)
(1.00285 -0.0052669 0)
(1.10419 0.00560087 0)
(0.968226 0.0178842 0)
(1.08312 0.0135839 0)
(0.976913 -0.00206114 0)
(1.03121 -0.010134 0)
(0.979466 -0.0194284 0)
(1.00421 -0.0114535 0)
(0.999737 -0.0119161 0)
(1.00453 -0.00336862 0)
(1.016 0.00127205 0)
(1.00489 0.00353566 0)
(1.01615 0.00829579 0)
(1.00372 0.007069 0)
(1.00896 0.011636 0)
(1.00062 0.00984858 0)
(0.9247 -0.00970852 0)
(1.12316 0.00671522 0)
(1.04666 0.0105873 0)
(0.999934 -0.0119887 0)
(1.00874 -0.00592177 0)
(1.07581 0.00576224 0)
(1.00289 0.0180349 0)
(1.06149 0.0135409 0)
(1.00666 -0.00139836 0)
(1.01406 -0.0101671 0)
(0.991546 -0.018886 0)
(0.99195 -0.0119042 0)
(0.999954 -0.0118109 0)
(1.00081 -0.00390593 0)
(1.01365 0.00138085 0)
(1.00883 0.00334992 0)
(1.01515 0.00848684 0)
(1.00982 0.00717152 0)
(1.01011 0.0118957 0)
(1.00671 0.0101671 0)
(0.950798 -0.00994232 0)
(1.08396 0.00620608 0)
(1.04624 0.011155 0)
(1.00232 -0.0117248 0)
(1.01089 -0.00636426 0)
(1.05129 0.00567927 0)
(1.02282 0.0181545 0)
(1.04722 0.0135001 0)
(1.02135 -0.000742196 0)
(1.00821 -0.0100306 0)
(0.995208 -0.0183545 0)
(0.989303 -0.0122138 0)
(0.996018 -0.0117949 0)
(1.00001 -0.00445799 0)
(1.01052 0.00133233 0)
(1.01197 0.00306885 0)
(1.01573 0.00857974 0)
(1.01474 0.00720493 0)
(1.01353 0.0120831 0)
(1.01233 0.0104339 0)
(0.971517 -0.0101035 0)
(1.05094 0.00580147 0)
(1.03955 0.0115049 0)
(1.00542 -0.0114803 0)
(1.01054 -0.00661762 0)
(1.03159 0.0054514 0)
(1.02941 0.0182076 0)
(1.03672 0.0134643 0)
(1.02671 -0.000154218 0)
(1.00746 -0.0098029 0)
(0.996731 -0.0178156 0)
(0.989707 -0.0124305 0)
(0.992596 -0.0117684 0)
(0.998192 -0.0050554 0)
(1.00758 0.00117631 0)
(1.01216 0.00267473 0)
(1.01616 0.00856742 0)
(1.01714 0.00716692 0)
(1.01658 0.0121884 0)
(1.01624 0.0106569 0)
(0.986837 -0.0101993 0)
(1.02548 0.00551397 0)
(1.02969 0.0116581 0)
(1.00824 -0.0112773 0)
(1.00913 -0.00670665 0)
(1.01665 0.00517758 0)
(1.02666 0.0181984 0)
(1.02755 0.0133949 0)
(1.02707 0.00033595 0)
(1.00814 -0.00956697 0)
(0.998446 -0.0172543 0)
(0.990571 -0.0125792 0)
(0.990766 -0.0116705 0)
(0.995257 -0.00566381 0)
(1.00446 0.000965231 0)
(1.00965 0.00220625 0)
(1.01495 0.00844582 0)
(1.01668 0.00707621 0)
(1.01739 0.0122011 0)
(1.01754 0.0108309 0)
(0.997518 -0.0102419 0)
(1.00742 0.00533973 0)
(1.01943 0.0116516 0)
(1.01014 -0.0111275 0)
(1.00764 -0.00666513 0)
(1.00599 0.00492764 0)
(1.01914 0.0181519 0)
(1.01909 0.0132541 0)
(1.02506 0.000717371 0)
(1.00893 -0.00937892 0)
(1.00043 -0.0166704 0)
(0.991508 -0.0126691 0)
(0.990174 -0.011483 0)
(0.992266 -0.00622714 0)
(1.00106 0.00074834 0)
(1.00557 0.00171599 0)
(1.01185 0.00822825 0)
(1.01377 0.00695611 0)
(1.01552 0.0121188 0)
(1.01604 0.0109522 0)
(1.00463 -0.0102452 0)
(0.995504 0.00526262 0)
(1.01051 0.0115289 0)
(1.01095 -0.0110311 0)
(1.00642 -0.00653402 0)
(0.99897 0.00473579 0)
(1.01059 0.0180953 0)
(1.01184 0.013026 0)
(1.02219 0.000992233 0)
(1.00959 -0.00926369 0)
(1.0022 -0.0160706 0)
(0.992605 -0.0127093 0)
(0.99025 -0.0112118 0)
(0.98997 -0.00670663 0)
(0.997656 0.000555542 0)
(1.00109 0.00125438 0)
(1.00748 0.00794678 0)
(1.00927 0.00683042 0)
(1.01155 0.011958 0)
(1.01229 0.0110293 0)
(1.00917 -0.010221 0)
(0.988049 0.00526215 0)
(1.00362 0.0113284 0)
(1.01079 -0.0109811 0)
(1.00536 -0.00634615 0)
(0.994826 0.00460896 0)
(1.00326 0.0180462 0)
(1.0064 0.0127182 0)
(1.01924 0.00117469 0)
(1.01015 -0.00922167 0)
(1.00349 -0.0154629 0)
(0.993804 -0.0127103 0)
(0.990559 -0.0108739 0)
(0.988511 -0.00708256 0)
(0.994577 0.000400821 0)
(0.99699 0.00086461 0)
(1.00274 0.00764209 0)
(1.00416 0.00672392 0)
(1.0065 0.0117518 0)
(1.00722 0.0110822 0)
(1.01183 -0.0101777 0)
(0.983518 0.0053183 0)
(0.99872 0.0110791 0)
(1.00992 -0.0109651 0)
(1.00425 -0.00612942 0)
(0.992699 0.00453592 0)
(0.997923 0.0180104 0)
(1.00298 0.0123501 0)
(1.01662 0.00128777 0)
(1.01058 -0.00924168 0)
(1.00426 -0.0148549 0)
(0.994945 -0.0126773 0)
(0.990828 -0.0104901 0)
(0.987646 -0.0073481 0)
(0.991994 0.000285594 0)
(0.993612 0.000572513 0)
(0.998307 0.0073482 0)
(0.999262 0.00666054 0)
(1.00133 0.0115379 0)
(1.00185 0.0111332 0)
(1.01302 -0.0101192 0)
(0.980823 0.00541288 0)
(0.995511 0.0108016 0)
(1.0086 -0.0109694 0)
(1.0029 -0.00590404 0)
(0.991775 0.00449805 0)
(0.994444 0.017984 0)
(1.00135 0.0119421 0)
(1.0145 0.00135804 0)
(1.01082 -0.0093091 0)
(1.0046 -0.0142526 0)
(0.995906 -0.0126095 0)
(0.990939 -0.0100781 0)
(0.987055 -0.00750866 0)
(0.989896 0.000196959 0)
(0.990976 0.000380404 0)
(0.994525 0.00708114 0)
(0.995092 0.00665405 0)
(0.996693 0.011345 0)
(0.996976 0.0111984 0)
(1.01292 -0.0100463 0)
(0.979381 0.00552886 0)
(0.993747 0.0105107 0)
(1.00707 -0.0109797 0)
(1.00127 -0.00568234 0)
(0.99144 0.004477 0)
(0.992339 0.017958 0)
(1.00104 0.0115094 0)
(1.01293 0.0014093 0)
(1.01085 -0.00940709 0)
(1.00461 -0.0136624 0)
(0.996651 -0.0125027 0)
(0.990913 -0.00965327 0)
(0.986521 -0.00756842 0)
(0.988189 0.000119131 0)
(0.988934 0.000279002 0)
(0.991468 0.00683922 0)
(0.991847 0.00669883 0)
(0.992943 0.0111873 0)
(0.993067 0.0112839 0)
(1.01169 -0.0099586 0)
(0.978974 0.00564932 0)
(0.993286 0.0102176 0)
(1.00549 -0.0109822 0)
(0.999454 -0.00547032 0)
(0.991342 0.00445769 0)
(0.991195 0.0179228 0)
(1.00155 0.0110609 0)
(1.01196 0.00145902 0)
(1.01069 -0.00951734 0)
(1.00434 -0.0130923 0)
(0.997204 -0.0123518 0)
(0.990855 -0.00922864 0)
(0.985991 -0.00752928 0)
(0.986806 3.87859e-05 0)
(0.987324 0.000255728 0)
(0.989064 0.00661258 0)
(0.989491 0.00677015 0)
(0.990164 0.0110618 0)
(0.990283 0.0113852 0)
(1.00957 -0.00985588 0)
(0.97953 0.00575718 0)
(0.994005 0.00993275 0)
(1.00399 -0.0109641 0)
(0.997621 -0.00527055 0)
(0.991367 0.00442845 0)
(0.990783 0.0178708 0)
(1.00251 0.0106009 0)
(1.01159 0.00152026 0)
(1.01039 -0.00961866 0)
(1.00388 -0.0125517 0)
(0.997596 -0.012155 0)
(0.990885 -0.00881344 0)
(0.98553 -0.00739445 0)
(0.985742 -5.02257e-05 0)
(0.986049 0.000296284 0)
(0.987211 0.00639641 0)
(0.987865 0.00683707 0)
(0.988263 0.010948 0)
(0.988532 0.0114872 0)
(1.00691 -0.00973923 0)
(0.98093 0.00583679 0)
(0.995681 0.00966558 0)
(1.00262 -0.0109148 0)
(0.995941 -0.00508509 0)
(0.991546 0.00438045 0)
(0.990975 0.0177982 0)
(1.0036 0.0101311 0)
(1.01172 0.00159833 0)
(1.01008 -0.00969018 0)
(1.0033 -0.012048 0)
(0.99784 -0.0119116 0)
(0.991071 -0.00841947 0)
(0.985244 -0.0071735 0)
(0.985031 -0.000145671 0)
(0.98509 0.000384982 0)
(0.985832 0.00619419 0)
(0.986779 0.00688297 0)
(0.98706 0.0108165 0)
(0.98757 0.011565 0)
(1.00413 -0.00961113 0)
(0.982923 0.0058764 0)
(0.997957 0.00942347 0)
(1.00142 -0.0108274 0)
(0.994538 -0.00491644 0)
(0.991941 0.00430708 0)
(0.991642 0.0177059 0)
(1.00466 0.00965444 0)
(1.01218 0.00168751 0)
(1.00983 -0.00971313 0)
(1.00271 -0.0115864 0)
(0.997924 -0.011619 0)
(0.991401 -0.00805752 0)
(0.985211 -0.00688042 0)
(0.984693 -0.00023724 0)
(0.98447 0.000506126 0)
(0.984887 0.00601033 0)
(0.986072 0.00691683 0)
(0.986361 0.0106566 0)
(0.987111 0.0115961 0)
(1.00164 -0.00947485 0)
(0.985148 0.00587015 0)
(1.00041 0.00921081 0)
(1.00037 -0.0106996 0)
(0.993467 -0.00476673 0)
(0.992557 0.00420585 0)
(0.99261 0.0175963 0)
(1.00558 0.00917748 0)
(1.01272 0.00178361 0)
(1.00968 -0.00967284 0)
(1.0022 -0.0111729 0)
(0.997842 -0.0112776 0)
(0.991806 -0.00772994 0)
(0.985437 -0.00652885 0)
(0.984695 -0.000307205 0)
(0.984204 0.000642197 0)
(0.984357 0.00583699 0)
(0.985639 0.00694715 0)
(0.986013 0.0104888 0)
(0.98692 0.0115798 0)
(0.999671 -0.00933345 0)
(0.987245 0.0058185 0)
(1.00267 0.00902862 0)
(0.999481 -0.0105332 0)
(0.992724 -0.00463738 0)
(0.993306 0.00407681 0)
(0.993695 0.0174749 0)
(1.00632 0.0087027 0)
(1.01315 0.00187801 0)
(1.00963 -0.00956163 0)
(1.00185 -0.0108065 0)
(0.997612 -0.0108893 0)
(0.992213 -0.00745218 0)
(0.985869 -0.00612417 0)
(0.98496 -0.000358261 0)
(0.98427 0.000789139 0)
(0.984213 0.00566965 0)
(0.985435 0.00695101 0)
(0.985928 0.0103237 0)
(0.986866 0.0115311 0)
(0.998305 -0.00918899 0)
(0.988959 0.00572663 0)
(1.00452 0.00887492 0)
(0.998763 -0.0103334 0)
(0.992269 -0.00452848 0)
(0.994029 0.00392311 0)
(0.994745 0.0173428 0)
(1.00693 0.00824076 0)
(1.01336 0.00195141 0)
(1.0096 -0.00938046 0)
(1.00168 -0.010479 0)
(0.997287 -0.0104585 0)
(0.992586 -0.0072264 0)
(0.986423 -0.00568984 0)
(0.985395 -0.000398515 0)
(0.984608 0.000945443 0)
(0.984403 0.00553982 0)
(0.985455 0.0069176 0)
(0.986072 0.0101346 0)
(0.986924 0.0114501 0)
(0.997471 -0.00904217 0)
(0.990181 0.00560186 0)
(1.00588 0.008745 0)
(0.998241 -0.0101058 0)
(0.992049 -0.00443841 0)
(0.994567 0.00374992 0)
(0.995673 0.0171967 0)
(1.00746 0.00780268 0)
(1.01331 0.00200688 0)
(1.00953 -0.00913022 0)
(1.00167 -0.0101947 0)
(0.99694 -0.00997673 0)
(0.992937 -0.00704503 0)
(0.987026 -0.00526195 0)
(0.985933 -0.000416251 0)
(0.985145 0.00107773 0)
(0.984854 0.00546391 0)
(0.985687 0.00688886 0)
(0.986424 0.00990924 0)
(0.987124 0.0113253 0)
(0.997026 -0.00889246 0)
(0.990938 0.00545122 0)
(1.00683 0.00863226 0)
(0.997951 -0.00985636 0)
(0.992007 -0.00435889 0)
(0.994822 0.00356316 0)
(0.996441 0.0170292 0)
(1.00797 0.00739975 0)
(1.01304 0.00203932 0)
(1.00937 -0.0088113 0)
(1.00177 -0.00995328 0)
(0.996638 -0.00945373 0)
(0.993296 -0.00690752 0)
(0.987638 -0.00483151 0)
(0.986537 -0.000377749 0)
(0.98581 0.00118422 0)
(0.985492 0.00541194 0)
(0.986105 0.00689314 0)
(0.986943 0.0096759 0)
(0.987481 0.0111623 0)
(0.996828 -0.0087386 0)
(0.991321 0.00528003 0)
(1.00746 0.00853018 0)
(0.99792 -0.0095905 0)
(0.992088 -0.00428238 0)
(0.994774 0.00336892 0)
(0.997037 0.0168323 0)
(1.0085 0.00702974 0)
(1.01263 0.00203254 0)
(1.00911 -0.0084326 0)
(1.00188 -0.00974302 0)
(0.996416 -0.00890178 0)
(0.993693 -0.00679322 0)
(0.988252 -0.00442493 0)
(0.987194 -0.00029631 0)
(0.986549 0.00128821 0)
(0.986243 0.00536482 0)
(0.986663 0.0069235 0)
(0.987568 0.00945904 0)
(0.98797 0.0109769 0)
(0.996771 -0.0085792 0)
(0.99144 0.00509171 0)
(1.00786 0.00843287 0)
(0.998157 -0.0093119 0)
(0.992247 -0.00420245 0)
(0.994475 0.00316951 0)
(0.99746 0.016599 0)
(1.00902 0.00669919 0)
(1.01213 0.00199116 0)
(1.00876 -0.00800551 0)
(1.00197 -0.00955841 0)
(0.996282 -0.00833076 0)
(0.994124 -0.00668671 0)
(0.98887 -0.00406828 0)
(0.987895 -0.000194187 0)
(0.987327 0.00138561 0)
(0.987053 0.00530328 0)
(0.987306 0.00697099 0)
(0.988233 0.00927328 0)
(0.988533 0.0107913 0)
(0.996795 -0.00841266 0)
(0.991391 0.00488815 0)
(1.00807 0.00833316 0)
(0.998641 -0.00902103 0)
(0.992452 -0.00411516 0)
(0.994016 0.00297889 0)
(0.997718 0.0163044 0)
(1.00949 0.0064268 0)
(1.01159 0.00192379 0)
(1.00837 -0.00753701 0)
(1.00199 -0.00940883 0)
(0.996227 -0.00776192 0)
(0.994564 -0.00658391 0)
(0.989494 -0.00373381 0)
(0.988618 -5.63759e-05 0)
(0.988114 0.00151401 0)
(0.987883 0.00520682 0)
(0.987988 0.00700793 0)
(0.988889 0.00908873 0)
(0.98911 0.0106004 0)
(0.99687 -0.0082374 0)
(0.99125 0.00467068 0)
(1.00809 0.00822511 0)
(0.999319 -0.00872397 0)
(0.992683 -0.00400599 0)
(0.993496 0.00278704 0)
(0.997829 0.0159639 0)
(1.00982 0.00619755 0)
(1.01103 0.00182332 0)
(1.00794 -0.00702572 0)
(1.00196 -0.00927658 0)
(0.996236 -0.00720788 0)
(0.994976 -0.00646403 0)
(0.990117 -0.00344054 0)
(0.989334 7.14139e-05 0)
(0.988884 0.00171385 0)
(0.988693 0.00512998 0)
(0.988671 0.00709494 0)
(0.989507 0.00890162 0)
(0.98967 0.0103918 0)
(0.996983 -0.00805462 0)
(0.991076 0.0044464 0)
(1.00791 0.00810115 0)
(1.00012 -0.00841725 0)
(0.992931 -0.00389006 0)
(0.99301 0.00262732 0)
(0.997827 0.015538 0)
(1.00997 0.00603782 0)
(1.0105 0.00168552 0)
(1.00753 -0.00648332 0)
(1.00187 -0.0091694 0)
(0.996294 -0.00666055 0)
(0.99533 -0.0063451 0)
(0.990724 -0.00315603 0)
(0.99001 0.000140364 0)
(0.98962 0.00195326 0)
(0.989459 0.00505972 0)
(0.989318 0.00725508 0)
(0.990052 0.00875116 0)
(0.990185 0.0102041 0)
(0.997123 -0.00786214 0)
(0.990923 0.00421079 0)
(1.00754 0.00796889 0)
(1.00095 -0.00811229 0)
(0.993188 -0.00374445 0)
(0.992628 0.00247618 0)
(0.997754 0.0150659 0)
(1.00991 0.00590463 0)
(1.01001 0.00154746 0)
(1.00712 -0.00591217 0)
(1.00177 -0.00904524 0)
(0.996388 -0.00619378 0)
(0.99561 -0.00613577 0)
(0.991305 -0.00301044 0)
(0.990609 0.00028884 0)
(0.990299 0.00206218 0)
(0.990164 0.00499858 0)
(0.98992 0.00725431 0)
(0.990509 0.00873327 0)
(0.990635 0.0101207 0)
(0.997281 -0.00766444 0)
(0.990831 0.00397839 0)
(1.00701 0.00780469 0)
(1.00175 -0.00778547 0)
(0.993446 -0.00359682 0)
(0.992398 0.00237606 0)
(0.997657 0.0145163 0)
(1.00965 0.00582509 0)
(1.00959 0.00134747 0)
(1.00673 -0.00533027 0)
(1.00166 -0.00886031 0)
(0.996519 -0.0058472 0)
(0.995806 -0.00579129 0)
(0.991849 -0.00300493 0)
(0.99112 0.000499586 0)
(0.990902 0.00203175 0)
(0.990786 0.00497913 0)
(0.990488 0.00715327 0)
(0.990938 0.00891898 0)
(0.991026 0.0101827 0)
(0.997448 -0.00745845 0)
(0.990824 0.00374355 0)
(1.00636 0.00762821 0)
(1.00244 -0.00747193 0)
(0.993701 -0.00344349 0)
(0.992333 0.00229209 0)
(0.997575 0.0139414 0)
(1.00923 0.00575878 0)
(1.00923 0.00113992 0)
(1.00637 -0.0048685 0)
(1.00157 -0.00859937 0)
(0.996681 -0.00563895 0)
(0.995941 -0.00535084 0)
(0.992345 -0.00307311 0)
(0.99154 0.000780816 0)
(0.991422 0.00187951 0)
(0.991329 0.00500621 0)
(0.991025 0.00693382 0)
(0.991325 0.00908866 0)
(0.991342 0.010264 0)
(0.997614 -0.00723768 0)
(0.990908 0.00348501 0)
(1.00564 0.00746694 0)
(1.00298 -0.00719917 0)
(0.993947 -0.00321401 0)
(0.992423 0.00214613 0)
(0.997539 0.0134302 0)
(1.0087 0.00565896 0)
(1.00892 0.00101955 0)
(1.00604 -0.00437412 0)
(1.0015 -0.00835336 0)
(0.996868 -0.00544954 0)
(0.996033 -0.00496678 0)
(0.992796 -0.0031007 0)
(0.991882 0.00084812 0)
(0.991856 0.00207889 0)
(0.991788 0.00512099 0)
(0.991515 0.00697306 0)
(0.991716 0.00904319 0)
(0.991609 0.0101981 0)
(0.997771 -0.00703615 0)
(0.99108 0.00328788 0)
(1.00492 0.00721664 0)
(1.00336 -0.00681433 0)
(0.994187 -0.00311032 0)
(0.992632 0.00223194 0)
(0.997568 0.0126556 0)
(1.00812 0.00576664 0)
(1.00868 0.000670743 0)
(1.00571 -0.00362686 0)
(1.00147 -0.00825815 0)
(0.997069 -0.00504853 0)
(0.996116 -0.0048742 0)
(0.99318 -0.00271597 0)
(0.992216 0.000595384 0)
(0.992257 0.00273506 0)
(0.992177 0.00514245 0)
(0.991914 0.00740477 0)
(0.991993 0.00879616 0)
(0.991836 0.00996881 0)
(0.997907 -0.00681381 0)
(0.991334 0.00306096 0)
(1.00422 0.0070038 0)
(1.00359 -0.00652232 0)
(0.99441 -0.00295002 0)
(0.992929 0.00220469 0)
(0.997652 0.0120235 0)
(1.00755 0.00574052 0)
(1.00847 0.000412783 0)
(1.0054 -0.00324572 0)
(1.00145 -0.00783785 0)
(0.997267 -0.00496728 0)
(0.996211 -0.00446308 0)
(0.993551 -0.00256097 0)
(0.992531 0.000942271 0)
(0.992636 0.00272584 0)
(0.992521 0.00515887 0)
(0.992253 0.00710351 0)
(0.992165 0.00875203 0)
(0.992021 0.00993161 0)
(0.998019 -0.00657345 0)
(0.991651 0.00279133 0)
(1.0036 0.00682804 0)
(1.00368 -0.00627955 0)
(0.99461 -0.00271214 0)
(0.993293 0.00206981 0)
(0.997781 0.0115395 0)
(1.00699 0.00561503 0)
(1.00827 0.000376178 0)
(1.00511 -0.00300016 0)
(1.00144 -0.00734994 0)
(0.997495 -0.00496345 0)
(0.996313 -0.00398926 0)
(0.993932 -0.00247307 0)
(0.992816 0.00130901 0)
(0.992942 0.00272445 0)
(0.992813 0.00526117 0)
(0.992601 0.00688097 0)
(0.992469 0.00874817 0)
(0.992193 0.00991274 0)
(0.998113 -0.00638515 0)
(0.991998 0.00264492 0)
(1.00308 0.00651825 0)
(1.00365 -0.00583407 0)
(0.994808 -0.00269884 0)
(0.993676 0.00230904 0)
(0.99795 0.0106457 0)
(1.00648 0.00582769 0)
(1.00808 -8.87888e-05 0)
(1.00482 -0.00224059 0)
(1.00144 -0.00724863 0)
(0.997719 -0.0044832 0)
(0.996455 -0.00395314 0)
(0.994288 -0.00190633 0)
(0.993136 0.00096809 0)
(0.993261 0.00343813 0)
(0.993109 0.00518203 0)
(0.992906 0.00740719 0)
(0.99269 0.0084311 0)
(0.99236 0.00961831 0)
(0.998182 -0.00614856 0)
(0.992368 0.00241552 0)
(1.00264 0.00629378 0)
(1.00356 -0.00554923 0)
(0.995 -0.00254742 0)
(0.994058 0.00226389 0)
(0.998131 0.0100719 0)
(1.00602 0.00574856 0)
(1.00789 -0.000192946 0)
(1.00455 -0.00209937 0)
(1.00141 -0.00656049 0)
(0.997947 -0.00451003 0)
(0.996619 -0.00328989 0)
(0.994642 -0.0018689 0)
(0.99351 0.00125649 0)
(0.993616 0.0031792 0)
(0.993421 0.00516472 0)
(0.993197 0.00700294 0)
(0.992823 0.00846872 0)
(0.992536 0.00964926 0)
(0.998239 -0.00590644 0)
(0.992739 0.00215855 0)
(1.0023 0.00608642 0)
(1.00343 -0.00527759 0)
(0.995171 -0.00236249 0)
(0.994455 0.00215812 0)
(0.998309 0.00964024 0)
(1.0056 0.00553715 0)
(1.00766 -5.92689e-05 0)
(1.00432 -0.00212772 0)
(1.00136 -0.00571556 0)
(0.998202 -0.00459792 0)
(0.996793 -0.00262977 0)
(0.995004 -0.00185295 0)
(0.993841 0.00159236 0)
(0.993938 0.00278037 0)
(0.993749 0.00525556 0)
(0.993577 0.00668318 0)
(0.99321 0.00856012 0)
(0.992708 0.00973292 0)
(0.9983 -0.00573506 0)
(0.99308 0.00206013 0)
(1.00204 0.00572161 0)
(1.00325 -0.00475823 0)
(0.995361 -0.00244364 0)
(0.99482 0.00245599 0)
(0.998487 0.00877439 0)
(1.00521 0.00571496 0)
(1.00744 -0.000450589 0)
(1.00408 -0.00156469 0)
(1.00131 -0.0054724 0)
(0.998433 -0.00406309 0)
(0.997005 -0.00258473 0)
(0.995342 -0.00124542 0)
(0.994216 0.00122812 0)
(0.994304 0.00327864 0)
(0.994136 0.00508456 0)
(0.993929 0.00731058 0)
(0.993511 0.00814594 0)
(0.992914 0.00934728 0)
(0.998351 -0.00547581 0)
(0.993411 0.00180581 0)
(1.00182 0.00552103 0)
(1.00308 -0.00451122 0)
(0.995552 -0.002256 0)
(0.995167 0.00231671 0)
(0.998653 0.00832622 0)
(1.00485 0.00553749 0)
(1.0072 -0.000443058 0)
(1.00387 -0.00142328 0)
(1.00124 -0.00486117 0)
(0.998659 -0.00386651 0)
(0.997236 -0.00221343 0)
(0.995668 -0.000958014 0)
(0.994617 0.0013844 0)
(0.994704 0.00330269 0)
(0.994596 0.0050636 0)
(0.994282 0.00692002 0)
(0.9937 0.00814662 0)
(0.993142 0.00936117 0)
(0.998398 -0.00526084 0)
(0.993735 0.00160925 0)
(1.00164 0.00524012 0)
(1.00291 -0.00414903 0)
(0.995731 -0.00216251 0)
(0.995513 0.00226086 0)
(0.998803 0.00792096 0)
(1.00451 0.00529313 0)
(1.00695 -0.000278831 0)
(1.00369 -0.00141898 0)
(1.00115 -0.00407241 0)
(0.998877 -0.00372356 0)
(0.997477 -0.00179675 0)
(0.996014 -0.000749597 0)
(0.995003 0.00168187 0)
(0.995093 0.00311419 0)
(0.994956 0.00507174 0)
(0.994721 0.00639365 0)
(0.994187 0.00827018 0)
(0.99337 0.00949015 0)
(0.998457 -0.00508258 0)
(0.994028 0.00151257 0)
(1.0015 0.00486727 0)
(1.00272 -0.00364905 0)
(0.995923 -0.00222968 0)
(0.995843 0.00244365 0)
(0.998943 0.0072572 0)
(1.00418 0.00533165 0)
(1.00669 -0.000437124 0)
(1.00353 -0.0011502 0)
(1.00107 -0.00355206 0)
(0.999074 -0.00332033 0)
(0.997741 -0.00164026 0)
(0.996343 -0.000317672 0)
(0.995373 0.00167285 0)
(0.995478 0.00326763 0)
(0.995382 0.00494684 0)
(0.995173 0.0066504 0)
(0.994619 0.00796957 0)
(0.993611 0.00915192 0)
(0.998514 -0.0048207 0)
(0.994313 0.00126482 0)
(1.00137 0.00465145 0)
(1.00255 -0.00342876 0)
(0.996117 -0.00197168 0)
(0.996155 0.00220753 0)
(0.999078 0.00689287 0)
(1.00386 0.00517319 0)
(1.00644 -0.000446525 0)
(1.0034 -0.000961013 0)
(1.00098 -0.00298904 0)
(0.999243 -0.00301841 0)
(0.998015 -0.00141636 0)
(0.996679 -2.72718e-05 0)
(0.995758 0.00187075 0)
(0.995877 0.00337775 0)
(0.995834 0.00496964 0)
(0.995601 0.00664015 0)
(0.99499 0.0076809 0)
(0.993872 0.00883975 0)
(0.99857 -0.004641 0)
(0.994593 0.00113697 0)
(1.00126 0.00429862 0)
(1.00238 -0.00297707 0)
(0.996296 -0.00195534 0)
(0.996467 0.0021561 0)
(0.999217 0.00654228 0)
(1.00355 0.00499522 0)
(1.00619 -0.000335527 0)
(1.0033 -0.00090063 0)
(1.0009 -0.00239172 0)
(0.9994 -0.00263058 0)
(0.998298 -0.0011532 0)
(0.997033 0.000206425 0)
(0.99613 0.00210017 0)
(0.996264 0.00339739 0)
(0.99628 0.0049338 0)
(0.996006 0.00648394 0)
(0.995376 0.00747219 0)
(0.994149 0.00861389 0)
(0.998628 -0.00443569 0)
(0.994865 0.00100536 0)
(1.00116 0.0039908 0)
(1.00222 -0.00265135 0)
(0.996479 -0.00181503 0)
(0.996775 0.00210683 0)
(0.999342 0.00606975 0)
(1.00325 0.00490516 0)
(1.00593 -0.0002404 0)
(1.00322 -0.000838564 0)
(1.00084 -0.0017759 0)
(0.999528 -0.00225453 0)
(0.998568 -0.000954666 0)
(0.997389 0.000392549 0)
(0.9965 0.00230229 0)
(0.996635 0.00349829 0)
(0.996727 0.00489278 0)
(0.996424 0.00638297 0)
(0.995766 0.00731129 0)
(0.994439 0.00840038 0)
(0.998686 -0.0042134 0)
(0.995132 0.000836884 0)
(1.00107 0.00369206 0)
(1.00207 -0.0023615 0)
(0.996653 -0.00158148 0)
(0.997062 0.00186194 0)
(0.999483 0.00572057 0)
(1.00297 0.00483493 0)
(1.00567 -0.000152351 0)
(1.00318 -0.000803286 0)
(1.00078 -0.00125497 0)
(0.999627 -0.00190581 0)
(0.99884 -0.00070716 0)
(0.997773 0.000591696 0)
(0.996887 0.00255247 0)
(0.996996 0.00364292 0)
(0.997162 0.00483215 0)
(0.996834 0.0062583 0)
(0.996156 0.00713152 0)
(0.994729 0.00818219 0)
(0.998746 -0.00403988 0)
(0.995389 0.000732455 0)
(1.001 0.00336229 0)
(1.00192 -0.00200461 0)
(0.996814 -0.00147404 0)
(0.997351 0.00180069 0)
(0.99963 0.0053659 0)
(1.00269 0.00471232 0)
(1.0054 5.85419e-06 0)
(1.00316 -0.000767999 0)
(1.00075 -0.000785509 0)
(0.999718 -0.00145921 0)
(0.999106 -0.000454466 0)
(0.998161 0.000747673 0)
(0.997277 0.00265139 0)
(0.997316 0.00374069 0)
(0.997572 0.00472135 0)
(0.99725 0.00612772 0)
(0.99655 0.00694834 0)
(0.995036 0.00797676 0)
(0.998805 -0.00383277 0)
(0.995641 0.000607573 0)
(1.00093 0.00308285 0)
(1.00179 -0.00181456 0)
(0.996975 -0.00119262 0)
(0.997622 0.00165909 0)
(0.999775 0.00495247 0)
(1.00243 0.00460368 0)
(1.00513 0.00022993 0)
(1.00315 -0.000725016 0)
(1.00075 -0.000360821 0)
(0.999784 -0.0010416 0)
(0.999345 -0.000224871 0)
(0.998541 0.000864247 0)
(0.997684 0.00270422 0)
(0.997646 0.00391346 0)
(0.99798 0.00474189 0)
(0.997673 0.00603449 0)
(0.996951 0.00680507 0)
(0.995348 0.0077664 0)
(0.998865 -0.00365276 0)
(0.995885 0.00050637 0)
(1.00087 0.00275621 0)
(1.00166 -0.00154576 0)
(0.997123 -0.000984663 0)
(0.997876 0.00153503 0)
(0.999937 0.00460207 0)
(1.0022 0.00454051 0)
(1.00485 0.000440017 0)
(1.00316 -0.000741445 0)
(1.00077 -5.56622e-05 0)
(0.999844 -0.000604579 0)
(0.999573 4.55412e-05 0)
(0.99892 0.00102626 0)
(0.998125 0.00277759 0)
(0.997982 0.00410488 0)
(0.99834 0.00472325 0)
(0.998069 0.00588754 0)
(0.997332 0.00658557 0)
(0.995656 0.00749572 0)
(0.998925 -0.00347289 0)
(0.996121 0.000409019 0)
(1.00082 0.00247985 0)
(1.00155 -0.00137616 0)
(0.997265 -0.000736234 0)
(0.998121 0.00150178 0)
(1.0001 0.00423184 0)
(1.00198 0.0044271 0)
(1.00456 0.000654691 0)
(1.00318 -0.00070846 0)
(1.00084 0.000238604 0)
(0.999905 -0.000144237 0)
(0.999775 0.00028127 0)
(0.999284 0.00117012 0)
(0.998577 0.00278256 0)
(0.998305 0.00418637 0)
(0.99867 0.00472334 0)
(0.998451 0.00578077 0)
(0.997716 0.00640754 0)
(0.995995 0.00727676 0)
(0.998984 -0.00329438 0)
(0.996351 0.000319734 0)
(1.00078 0.00219899 0)
(1.00145 -0.00122888 0)
(0.997405 -0.000470266 0)
(0.998337 0.00144084 0)
(1.00027 0.00387226 0)
(1.0018 0.00430701 0)
(1.00428 0.000924112 0)
(1.0032 -0.000608668 0)
(1.00094 0.000436329 0)
(0.999953 0.000249579 0)
(0.999953 0.000536076 0)
(0.999633 0.00137136 0)
(0.999037 0.00279323 0)
(0.998662 0.00426977 0)
(0.998992 0.00480187 0)
(0.998809 0.00567846 0)
(0.998081 0.00622717 0)
(0.996324 0.00700965 0)
(0.999043 -0.00313227 0)
(0.996573 0.000244993 0)
(1.00074 0.0019239 0)
(1.00137 -0.00109169 0)
(0.997534 -0.000243698 0)
(0.998542 0.001457 0)
(1.00045 0.00354754 0)
(1.00164 0.00417829 0)
(1.00399 0.00118186 0)
(1.00321 -0.000520801 0)
(1.00107 0.000544815 0)
(1.00003 0.000654948 0)
(1.00013 0.000857581 0)
(0.999959 0.00159228 0)
(0.999493 0.00278829 0)
(0.99903 0.00426062 0)
(0.999274 0.00483168 0)
(0.999115 0.00554805 0)
(0.998417 0.00606853 0)
(0.996667 0.00678485 0)
(0.9991 -0.00296553 0)
(0.996788 0.000170525 0)
(1.0007 0.00167925 0)
(1.0013 -0.00102523 0)
(0.997669 1.6998e-05 0)
(0.998718 0.00148595 0)
(1.00062 0.0032318 0)
(1.00152 0.00402341 0)
(1.00372 0.00143628 0)
(1.00321 -0.00038049 0)
(1.00124 0.000654267 0)
(1.00012 0.00102765 0)
(1.00028 0.00113742 0)
(1.00025 0.00175238 0)
(0.999923 0.00275563 0)
(0.999424 0.00421381 0)
(0.999569 0.00489526 0)
(0.999422 0.00551437 0)
(0.998764 0.00604912 0)
(0.997012 0.00659708 0)
(0.999156 -0.002815 0)
(0.996993 0.000114149 0)
(1.00068 0.00142977 0)
(1.00124 -0.000937848 0)
(0.997798 0.000208856 0)
(0.998876 0.00154467 0)
(1.00079 0.0029699 0)
(1.00143 0.00387068 0)
(1.00344 0.0016804 0)
(1.0032 -0.000190016 0)
(1.00143 0.000709656 0)
(1.00023 0.00131055 0)
(1.00041 0.00140453 0)
(1.00051 0.0019308 0)
(1.00035 0.00282707 0)
(0.999855 0.0041945 0)
(0.999872 0.00494141 0)
(0.999716 0.00550006 0)
(0.999041 0.0059567 0)
(0.99729 0.00629221 0)
(0.99921 -0.00266513 0)
(0.997191 6.50548e-05 0)
(1.00065 0.00120882 0)
(1.0012 -0.000913852 0)
(0.997935 0.000392899 0)
(0.999014 0.00164465 0)
(1.00095 0.00273624 0)
(1.00137 0.00370079 0)
(1.00319 0.00190556 0)
(1.00317 2.8852e-05 0)
(1.00164 0.000750665 0)
(1.00037 0.00154736 0)
(1.00054 0.00169133 0)
(1.00076 0.00214157 0)
(1.00075 0.00293346 0)
(1.00027 0.00408871 0)
(1.00019 0.00494437 0)
(0.99998 0.00541791 0)
(0.999258 0.00581957 0)
(0.997569 0.00608558 0)
(0.999262 -0.00252683 0)
(0.997379 2.66376e-05 0)
(1.00062 0.0009907 0)
(1.00117 -0.000881353 0)
(0.998075 0.000534903 0)
(0.999133 0.00173946 0)
(1.00111 0.00255495 0)
(1.00134 0.00353683 0)
(1.00295 0.00211255 0)
(1.00311 0.000273779 0)
(1.00185 0.000799783 0)
(1.00054 0.00172358 0)
(1.00067 0.00198094 0)
(1.00099 0.00232384 0)
(1.0011 0.00300972 0)
(1.0007 0.00399754 0)
(1.00052 0.00493439 0)
(1.00023 0.00531385 0)
(0.999489 0.00579401 0)
(0.997843 0.0059916 0)
(0.999311 -0.00238713 0)
(0.997557 -1.71075e-05 0)
(1.00059 0.000808786 0)
(1.00115 -0.000886298 0)
(0.998223 0.000638554 0)
(0.999239 0.00186371 0)
(1.00125 0.00242611 0)
(1.00133 0.00336811 0)
(1.00274 0.00228869 0)
(1.00303 0.000535286 0)
(1.00205 0.000864456 0)
(1.00075 0.00185391 0)
(1.00081 0.00224597 0)
(1.00119 0.0024672 0)
(1.00143 0.00312133 0)
(1.00112 0.00393608 0)
(1.00085 0.00487757 0)
(1.00051 0.00525708 0)
(0.999722 0.00578574 0)
(0.998069 0.0058836 0)
(0.999358 -0.00226037 0)
(0.997725 -4.67266e-05 0)
(1.00057 0.000630094 0)
(1.00114 -0.000898314 0)
(0.998381 0.000708663 0)
(0.999334 0.0019953 0)
(1.00137 0.00233514 0)
(1.00135 0.00320489 0)
(1.00255 0.0024379 0)
(1.00294 0.000808376 0)
(1.00224 0.000959883 0)
(1.00097 0.00192804 0)
(1.00094 0.00247376 0)
(1.00138 0.00262916 0)
(1.00173 0.00325334 0)
(1.00151 0.0038827 0)
(1.0012 0.00483591 0)
(1.0008 0.00521268 0)
(0.999934 0.00570996 0)
(0.998266 0.00578842 0)
(0.999403 -0.00213214 0)
(0.997884 -8.77239e-05 0)
(1.00054 0.000506488 0)
(1.00114 -0.000927478 0)
(0.998548 0.000753509 0)
(0.999425 0.00211744 0)
(1.00148 0.00226428 0)
(1.00138 0.0030367 0)
(1.00239 0.00254958 0)
(1.00284 0.00108456 0)
(1.0024 0.00108836 0)
(1.00122 0.0019672 0)
(1.0011 0.00268385 0)
(1.00155 0.00279505 0)
(1.00199 0.00336793 0)
(1.00189 0.00386228 0)
(1.00156 0.00477631 0)
(1.00108 0.00512953 0)
(1.00015 0.00560933 0)
(0.998463 0.00573099 0)
(0.999444 -0.00200461 0)
(0.998035 -0.000131505 0)
(1.0005 0.000435369 0)
(1.00114 -0.00095051 0)
(0.998731 0.000814771 0)
(0.999509 0.00222523 0)
(1.00157 0.00219585 0)
(1.00143 0.00284995 0)
(1.00226 0.00262389 0)
(1.00273 0.00134683 0)