/*--------------------------------*- C++ -*----------------------------------*\
| =========                 |                                                 |
| \\      /  F ield         | OpenFOAM: The Open Source CFD Toolbox           |
|  \\    /   O peration     | Version:  v2012                                 |
|   \\  /    A nd           | Website:  www.openfoam.com                      |
|    \\/     M anipulation  |                                                 |
\*---------------------------------------------------------------------------*/
FoamFile
{
    version     2.0;
    format      ascii;
    class       surfaceScalarField;
    location    "3.5";
    object      phi;
}
// * * * * * * * * * * * * * * * * * * * * * * * * * * * * * * * * * * * * * //

dimensions      [0 3 -1 0 0 0 0];
oriented        oriented;


internalField   nonuniform List<scalar> 
13830
(
9.16267e-07
-2.91544e-07
9.38373e-07
-4.45358e-07
1.05562e-06
9.8753e-07
8.4902e-07
8.19363e-07
9.26328e-07
-5.15279e-07
9.0812e-07
3.73605e-07
8.78926e-07
-5.71009e-07
9.67549e-07
1.83249e-07
9.40593e-07
-2.3129e-11
9.40855e-07
6.54249e-07
9.33731e-07
5.377e-07
9.31369e-07
5.7497e-07
9.34239e-07
3.49197e-07
9.29158e-07
1.23573e-07
9.36042e-07
1.42825e-07
9.24863e-07
-6.20106e-08
9.31477e-07
-1.14483e-08
9.18004e-07
-1.35579e-07
9.21668e-07
-4.56891e-08
-1.26949e-07
8.98449e-07
9.52165e-07
-2.71177e-07
9.73617e-07
-4.66809e-07
1.09543e-06
8.65722e-07
8.90593e-07
1.0242e-06
9.70252e-07
-5.94938e-07
9.5842e-07
3.85437e-07
9.28561e-07
-5.41149e-07
1.01017e-06
1.01638e-07
9.81352e-07
2.87963e-08
9.84871e-07
6.5073e-07
9.71079e-07
5.51492e-07
9.74996e-07
5.71053e-07
9.69859e-07
3.54335e-07
9.72813e-07
1.20619e-07
9.69404e-07
1.46233e-07
9.69005e-07
-6.16115e-08
9.6266e-07
-5.10328e-09
9.61912e-07
-1.3483e-07
9.50576e-07
-3.43533e-08
-1.2308e-07
9.46707e-07
9.90251e-07
-2.51975e-07
1.01079e-06
-4.87352e-07
1.13097e-06
7.45549e-07
9.45837e-07
1.20933e-06
1.01768e-06
-6.66777e-07
1.02319e-06
3.79923e-07
9.83978e-07
-5.01936e-07
1.05795e-06
2.76648e-08
1.02694e-06
5.98036e-08
1.03517e-06
6.42507e-07
1.01167e-06
5.74986e-07
1.02123e-06
5.61496e-07
1.00906e-06
3.665e-07
1.01633e-06
1.13357e-07
1.00804e-06
1.54523e-07
1.01085e-06
-6.44212e-08
1.00058e-06
5.1571e-09
1.00164e-06
-1.35882e-07
9.89739e-07
-2.24557e-08
-1.18924e-07
9.85583e-07
1.03012e-06
-2.34315e-07
1.04947e-06
-5.06707e-07
1.16393e-06
6.31092e-07
1.00946e-06
1.36379e-06
1.06698e-06
-7.24299e-07
1.09208e-06
3.54826e-07
1.04043e-06
-4.50282e-07
1.10323e-06
-3.51381e-08
1.07315e-06
8.98871e-08
1.08232e-06
6.33335e-07
1.05643e-06
6.00874e-07
1.06306e-06
5.54864e-07
1.05107e-06
3.78497e-07
1.05609e-06
1.08335e-07
1.04848e-06
1.62135e-07
1.04962e-06
-6.55653e-08
1.03956e-06
1.52143e-08
1.03917e-06
-1.35492e-07
1.02877e-06
-1.20498e-08
-1.13286e-07
1.02313e-06
1.0717e-06
-2.18463e-07
1.08964e-06
-5.24648e-07
1.19359e-06
5.27142e-07
1.07625e-06
1.48113e-06
1.11429e-06
-7.62339e-07
1.15446e-06
3.14658e-07
1.09364e-06
-3.8946e-07
1.14119e-06
-8.26941e-08
1.1179e-06
1.13182e-07
1.12347e-06
6.27768e-07
1.10236e-06
6.21982e-07
1.10283e-06
5.54389e-07
1.09329e-06
3.88043e-07
1.09515e-06
1.06474e-07
1.0885e-06
1.68786e-07
1.08812e-06
-6.51899e-08
1.0786e-06
2.47351e-08
1.07689e-06
-1.33785e-07
1.06771e-06
-2.86587e-09
-1.06505e-07
1.06093e-06
1.11517e-06
-2.0479e-07
1.13129e-06
-5.40771e-07
1.22003e-06
4.38403e-07
1.14026e-06
1.5609e-06
1.15742e-06
-7.79498e-07
1.20384e-06
2.68239e-07
1.14259e-06
-3.28211e-07
1.17291e-06
-1.13011e-07
1.16023e-06
1.25862e-07
1.1616e-06
6.26399e-07
1.14715e-06
6.36427e-07
1.14373e-06
5.57812e-07
1.13564e-06
3.96127e-07
1.13582e-06
1.06295e-07
1.12924e-06
1.7537e-07
1.12832e-06
-6.42678e-08
1.1192e-06
3.38506e-08
1.11658e-06
-1.31163e-07
1.1083e-06
5.41103e-09
-9.90018e-08
1.1008e-06
1.16074e-06
-1.93832e-07
1.17433e-06
-5.54356e-07
1.24447e-06
3.68257e-07
1.19755e-06
1.60782e-06
1.19676e-06
-7.78709e-07
1.24097e-06
2.24033e-07
1.18852e-06
-2.75764e-07
1.20293e-06
-1.27418e-07
1.19983e-06
1.28963e-07
1.19999e-06
6.26238e-07
1.19072e-06
6.457e-07
1.18699e-06
5.61543e-07
1.17933e-06
4.03785e-07
1.17907e-06
1.06549e-07
1.17218e-06
1.82263e-07
1.17118e-06
-6.32659e-08
1.16244e-06
4.25875e-08
1.15905e-06
-1.27771e-07
1.15155e-06
1.29114e-08
-9.10103e-08
1.14356e-06
1.20853e-06
-1.86182e-07
1.21865e-06
-5.64479e-07
1.26905e-06
3.17859e-07
1.24764e-06
1.62924e-06
1.23459e-06
-7.65662e-07
1.27151e-06
1.87114e-07
1.23307e-06
-2.37323e-07
1.23553e-06
-1.29881e-07
1.2375e-06
1.26998e-07
1.23983e-06
6.23901e-07
1.23407e-06
6.51463e-07
1.23234e-06
5.63273e-07
1.22495e-06
4.11176e-07
1.22481e-06
1.06686e-07
1.21774e-06
1.89338e-07
1.2167e-06
-6.22276e-08
1.20844e-06
5.08472e-08
1.20422e-06
-1.23554e-07
1.19751e-06
1.96245e-08
-8.26298e-08
1.18913e-06
1.25844e-06
-1.82265e-07
1.26429e-06
-5.70335e-07
1.29608e-06
2.86068e-07
1.29268e-06
1.63264e-06
1.27344e-06
-7.46421e-07
1.30191e-06
1.58642e-07
1.27748e-06
-2.12889e-07
1.27285e-06
-1.25255e-07
1.27511e-06
1.24737e-07
1.281e-06
6.18015e-07
1.27792e-06
6.54541e-07
1.27895e-06
5.62245e-07
1.27219e-06
4.17933e-07
1.27243e-06
1.06452e-07
1.26552e-06
1.96242e-07
1.26438e-06
-6.10876e-08
1.25678e-06
5.84456e-08
1.25165e-06
-1.18423e-07
1.24579e-06
2.5491e-08
-7.39414e-08
1.2371e-06
1.31018e-06
-1.82169e-07
1.31142e-06
-5.71573e-07
1.32736e-06
2.70131e-07
1.33576e-06
1.62424e-06
1.31498e-06
-7.25641e-07
1.33667e-06
1.36955e-07
1.32281e-06
-1.99032e-07
1.31507e-06
-1.17518e-07
1.31468e-06
1.25127e-07
1.32336e-06
6.09334e-07
1.3225e-06
6.554e-07
1.32618e-06
5.58569e-07
1.3205e-06
4.23615e-07
1.32136e-06
1.05586e-07
1.31501e-06
2.02591e-07
1.31374e-06
-5.98115e-08
1.30704e-06
6.51458e-08
1.30095e-06
-1.12333e-07
1.29597e-06
3.04644e-08
-6.50503e-08
1.28708e-06
1.36345e-06
-1.85596e-07
1.36029e-06
-5.68418e-07
1.36377e-06
2.66655e-07
1.37948e-06
1.60853e-06
1.35977e-06
-7.05934e-07
1.37748e-06
1.19243e-07
1.36996e-06
-1.91512e-07
1.3614e-06
-1.08954e-07
1.35742e-06
1.29112e-07
1.36724e-06
5.99506e-07
1.36802e-06
6.54627e-07
1.37397e-06
5.52612e-07
1.36966e-06
4.27934e-07
1.37144e-06
1.03801e-07
1.36597e-06
2.08061e-07
1.36453e-06
-5.8368e-08
1.35896e-06
7.07109e-08
1.35194e-06
-1.05307e-07
1.34785e-06
3.45509e-08
-5.60679e-08
1.33887e-06
1.41799e-06
-1.91937e-07
1.41113e-06
-5.61549e-07
1.40542e-06
2.72364e-07
1.4255e-06
1.58844e-06
1.40772e-06
-6.88154e-07
1.42397e-06
1.03e-07
1.41947e-06
-1.87016e-07
1.41097e-06
-1.00453e-07
1.40366e-06
1.36427e-07
1.41324e-06
5.89919e-07
1.41495e-06
6.52918e-07
1.42285e-06
5.44715e-07
1.41997e-06
4.30809e-07
1.42284e-06
1.00935e-07
1.41848e-06
2.12422e-07
1.41676e-06
-5.66499e-08
1.41252e-06
7.49555e-08
1.4046e-06
-9.73939e-08
1.40135e-06
3.78045e-08
-4.70857e-08
1.39237e-06
1.47371e-06
-2.00405e-07
1.464e-06
-5.51833e-07
1.4519e-06
2.84461e-07
1.47465e-06
1.56569e-06
1.45853e-06
-6.72036e-07
1.47482e-06
8.67079e-08
1.47141e-06
-1.83601e-07
1.46322e-06
-9.22686e-08
1.4533e-06
1.46356e-07
1.46198e-06
5.81238e-07
1.46405e-06
6.50848e-07
1.47361e-06
5.35151e-07
1.47206e-06
4.32357e-07
1.47591e-06
9.70858e-08
1.4728e-06
2.1553e-07
1.47059e-06
-5.44322e-08
1.46776e-06
7.77785e-08
1.45903e-06
-8.86611e-08
1.4565e-06
4.03332e-08
-3.81726e-08
1.44759e-06
1.53061e-06
-2.10139e-07
1.51888e-06
-5.4011e-07
1.50271e-06
3.00636e-07
1.52722e-06
1.54118e-06
1.51194e-06
-6.56761e-07
1.52884e-06
6.9813e-08
1.52559e-06
-1.80353e-07
1.51789e-06
-8.45658e-08
1.50616e-06
1.58081e-07
1.51393e-06
5.73465e-07
1.51606e-06
6.48724e-07
1.52704e-06
5.2417e-07
1.52654e-06
4.32852e-07
1.53099e-06
9.26419e-08
1.52922e-06
2.17296e-07
1.5262e-06
-5.14067e-08
1.52479e-06
7.91878e-08
1.51532e-06
-7.91962e-08
1.51337e-06
4.22862e-08
-2.93853e-08
1.50458e-06
1.58873e-06
-2.20261e-07
1.57573e-06
-5.27109e-07
1.55744e-06
3.18933e-07
1.58328e-06
1.51534e-06
1.56783e-06
-6.41317e-07
1.5853e-06
5.23478e-08
1.58182e-06
-1.76881e-07
1.57482e-06
-7.75643e-08
1.56212e-06
1.70783e-07
1.56941e-06
5.66179e-07
1.57153e-06
6.466e-07
1.58365e-06
5.12051e-07
1.58386e-06
4.32645e-07
1.58827e-06
8.82238e-08
1.58791e-06
2.17659e-07
1.58377e-06
-4.72607e-08
1.58365e-06
7.93017e-08
1.57358e-06
-6.91278e-08
1.57203e-06
4.38406e-08
-2.07833e-08
1.56343e-06
1.64818e-06
-2.29903e-07
1.63458e-06
-5.13501e-07
1.61587e-06
3.3764e-07
1.64284e-06
1.48837e-06
1.62623e-06
-6.24702e-07
1.64399e-06
3.45808e-08
1.64009e-06
-1.72972e-07
1.63398e-06
-7.14578e-08
1.62106e-06
1.83706e-07
1.62844e-06
5.58794e-07
1.63068e-06
6.44361e-07
1.64362e-06
4.99116e-07
1.64422e-06
4.32036e-07
1.64789e-06
8.45589e-08
1.64895e-06
2.16596e-07
1.64346e-06
-4.17634e-08
1.64442e-06
7.83322e-08
1.63392e-06
-5.862e-08
1.63258e-06
4.51747e-08
-1.24295e-08
1.62423e-06
1.7091e-06
-2.38253e-07
1.69557e-06
-4.99972e-07
1.67793e-06
3.55277e-07
1.7059e-06
1.46041e-06
1.68724e-06
-6.06048e-07
1.705e-06
1.68291e-08
1.70049e-06
-1.68467e-07
1.69535e-06
-6.63195e-08
1.68282e-06
1.96235e-07
1.69088e-06
5.50741e-07
1.69344e-06
6.418e-07
1.70683e-06
4.85721e-07
1.70771e-06
4.31157e-07
1.70993e-06
8.23427e-08
1.71237e-06
2.14154e-07
1.70544e-06
-3.48365e-08
1.7072e-06
7.65742e-08
1.69645e-06
-4.78718e-08
1.69517e-06
4.64616e-08
-4.38534e-09
1.68712e-06
1.77169e-06
-2.44622e-07
1.75896e-06
-4.87247e-07
1.74357e-06
3.70669e-07
1.77237e-06
1.43161e-06
1.75101e-06
-5.84691e-07
1.76844e-06
-5.98342e-10
1.76325e-06
-1.63274e-07
1.75902e-06
-6.20902e-08
1.74729e-06
2.07965e-07
1.75642e-06
5.4161e-07
1.75956e-06
6.38658e-07
1.77304e-06
4.72245e-07
1.77428e-06
4.2991e-07
1.77451e-06
8.21136e-08
1.7782e-06
2.10471e-07
1.7699e-06
-2.65439e-08
1.77212e-06
7.4361e-08
1.76132e-06
-3.70768e-08
1.75994e-06
4.78472e-08
3.3063e-09
1.75224e-06
1.83625e-06
-2.48534e-07
1.825e-06
-4.75996e-07
1.81265e-06
3.83015e-07
1.84211e-06
1.40215e-06
1.81762e-06
-5.60197e-07
1.83443e-06
-1.74155e-08
1.82857e-06
-1.57409e-07
1.82511e-06
-5.86315e-08
1.81437e-06
2.187e-07
1.82476e-06
5.31223e-07
1.82877e-06
6.34649e-07
1.84194e-06
4.59077e-07
1.84383e-06
4.28018e-07
1.84179e-06
8.4149e-08
1.84649e-06
2.05775e-07
1.83701e-06
-1.70669e-08
1.83933e-06
7.20451e-08
1.82866e-06
-2.64112e-08
1.82706e-06
4.94487e-08
1.06285e-08
1.81974e-06
1.90316e-06
-2.49792e-07
1.89385e-06
-4.66687e-07
1.88495e-06
3.91914e-07
1.9149e-06
1.3722e-06
1.88706e-06
-5.32365e-07
1.90304e-06
-3.33864e-08
1.89663e-06
-1.51004e-07
1.89379e-06
-5.57886e-08
1.8841e-06
2.28385e-07
1.89564e-06
5.19681e-07
1.90081e-06
6.29484e-07
1.91329e-06
4.46592e-07
1.91617e-06
4.2514e-07
1.91191e-06
8.84095e-08
1.91732e-06
2.00367e-07
1.90692e-06
-6.66376e-09
1.90901e-06
6.99494e-08
1.89861e-06
-1.60098e-08
1.89671e-06
5.13464e-08
1.759e-08
1.88975e-06
1.9728e-06
-2.48486e-07
1.96559e-06
-4.59476e-07
1.96017e-06
3.97331e-07
1.99049e-06
1.34188e-06
1.95935e-06
-5.01226e-07
1.97432e-06
-4.83597e-08
1.96756e-06
-1.44241e-07
1.96519e-06
-5.3418e-08
1.95657e-06
2.37001e-07
1.96892e-06
5.07338e-07
1.97548e-06
6.22924e-07
1.98696e-06
4.35112e-07
1.9911e-06
4.20998e-07
1.98493e-06
9.458e-08
1.99074e-06
1.94558e-07
1.9797e-06
4.36954e-09
1.98133e-06
6.83226e-08
1.97127e-06
-5.95491e-09
1.96904e-06
5.35776e-08
2.42157e-08
1.96242e-06
2.0455e-06
-2.44935e-07
2.04022e-06
-4.54195e-07
2.03804e-06
3.99512e-07
2.06868e-06
1.31124e-06
2.03449e-06
-4.6704e-07
2.04842e-06
-6.22813e-08
2.04144e-06
-1.37268e-07
2.0394e-06
-5.13704e-08
2.03193e-06
2.44463e-07
2.04453e-06
4.94744e-07
2.05262e-06
6.14828e-07
2.06287e-06
4.24862e-07
2.06845e-06
4.15426e-07
2.06084e-06
1.0219e-07
2.06677e-06
1.88623e-07
2.05541e-06
1.57273e-08
2.05641e-06
6.73248e-08
2.04674e-06
3.71261e-09
2.04419e-06
5.61319e-08
3.05374e-08
2.03787e-06
2.12147e-06
-2.39569e-07
2.11773e-06
-4.50448e-07
2.11835e-06
3.98886e-07
2.14935e-06
1.28024e-06
2.1126e-06
-4.3029e-07
2.12549e-06
-7.51658e-08
2.11835e-06
-1.30133e-07
2.11643e-06
-4.9451e-08
2.11034e-06
2.50559e-07
2.12255e-06
4.82527e-07
2.13222e-06
6.05157e-07
2.14115e-06
4.15935e-07
2.14817e-06
4.08409e-07
2.13964e-06
1.10722e-07
2.14547e-06
1.8279e-07
2.13408e-06
2.71194e-08
2.13436e-06
6.70436e-08
2.1251e-06
1.29664e-08
2.12228e-06
5.89606e-08
3.65819e-08
2.11623e-06
2.20084e-06
-2.32829e-07
2.19816e-06
-4.4776e-07
2.20107e-06
3.95972e-07
2.23249e-06
1.24882e-06
2.19385e-06
-3.91641e-07
2.20572e-06
-8.70428e-08
2.19836e-06
-1.22775e-07
2.1963e-06
-4.73822e-08
2.1919e-06
2.5495e-07
2.20319e-06
4.71237e-07
2.21437e-06
5.93977e-07
2.22202e-06
4.08286e-07
2.23034e-06
4.00092e-07
2.22135e-06
1.19713e-07
2.22691e-06
1.7723e-07
2.21573e-06
3.83013e-08
2.21525e-06
6.75212e-08
2.20643e-06
2.17845e-08
2.20341e-06
6.19813e-08
4.23691e-08
2.19762e-06
2.28365e-06
-2.25086e-07
2.28157e-06
-4.45678e-07
2.28624e-06
3.91298e-07
2.3182e-06
1.21686e-06
2.27843e-06
-3.51875e-07
2.2893e-06
-9.79087e-08
2.2816e-06
-1.15073e-07
2.27901e-06
-4.4795e-08
2.2767e-06
2.5726e-07
2.28676e-06
4.61178e-07
2.29927e-06
5.81464e-07
2.30579e-06
4.0177e-07
2.31513e-06
3.90746e-07
2.30605e-06
1.28797e-07
2.3112e-06
1.72076e-07
2.30042e-06
4.90887e-08
2.29918e-06
6.87609e-08
2.29079e-06
3.01704e-08
2.28769e-06
6.50769e-08
4.79161e-08
2.28215e-06
2.36994e-06
-2.16637e-07
2.36807e-06
-4.43811e-07
2.37402e-06
3.85349e-07
2.40662e-06
1.18425e-06
2.36655e-06
-3.11801e-07
2.37634e-06
-1.07704e-07
2.3682e-06
-1.06928e-07
2.36467e-06
-4.12636e-08
2.36472e-06
2.57203e-07
2.3735e-06
4.524e-07
2.38713e-06
5.67834e-07
2.39274e-06
3.9616e-07
2.40276e-06
3.80726e-07
2.39383e-06
1.37726e-07
2.39849e-06
1.67418e-07
2.38819e-06
5.93914e-08
2.38617e-06
7.07804e-08
2.3782e-06
3.81355e-08
2.37522e-06
6.80652e-08
5.32384e-08
2.36989e-06
2.45976e-06
-2.07719e-07
2.45777e-06
-4.41821e-07
2.46457e-06
3.78551e-07
2.49794e-06
1.15088e-06
2.45832e-06
-2.72186e-07
2.46694e-06
-1.1632e-07
2.45835e-06
-9.83363e-08
2.45347e-06
-3.63811e-08
2.45597e-06
2.54698e-07
2.46361e-06
4.44762e-07
2.47813e-06
5.53314e-07
2.48311e-06
3.91176e-07
2.49344e-06
3.70401e-07
2.48477e-06
1.46396e-07
2.48895e-06
1.63234e-07
2.47911e-06
6.92359e-08
2.47566e-06
7.42302e-08
2.46866e-06
4.51328e-08
2.46604e-06
7.06853e-08
5.83335e-08
2.46095e-06
2.55323e-06
-1.98546e-07
2.5508e-06
-4.39396e-07
2.55808e-06
3.71275e-07
2.59233e-06
1.11663e-06
2.55384e-06
-2.33697e-07
2.56113e-06
-1.23606e-07
2.55223e-06
-8.944e-08
2.54565e-06
-2.9799e-08
2.55048e-06
2.49865e-07
2.55721e-06
4.38029e-07
2.57236e-06
5.3817e-07
2.57706e-06
3.86478e-07
2.58733e-06
3.6013e-07
2.57897e-06
1.54751e-07
2.58263e-06
1.5957e-07
2.57337e-06
7.85044e-08
2.57272e-06
7.48791e-08
2.56587e-06
5.19751e-08
2.56026e-06
7.63024e-08
6.31866e-08
2.5554e-06
2.65046e-06
-1.89325e-07
2.64731e-06
-4.36244e-07
2.65473e-06
3.63856e-07
2.68995e-06
1.08141e-06
2.65313e-06
-1.96879e-07
2.6589e-06
-1.29375e-07
2.64997e-06
-8.0512e-08
2.64146e-06
-2.12839e-08
2.6483e-06
2.43023e-07
2.65443e-06
4.31903e-07
2.66985e-06
5.2275e-07
2.67471e-06
3.81617e-07
2.6845e-06
3.50334e-07
2.67667e-06
1.62581e-07
2.67993e-06
1.56312e-07
2.66978e-06
8.86583e-08
2.66502e-06
7.96385e-08
2.65871e-06
5.82856e-08
2.65789e-06
7.71247e-08
6.76697e-08
2.6534e-06
2.75159e-06
-1.80261e-07
2.74746e-06
-4.32117e-07
2.75472e-06
3.56599e-07
2.79096e-06
1.04516e-06
2.75622e-06
-1.62145e-07
2.76027e-06
-1.33421e-07
2.75171e-06
-7.19518e-08
2.74117e-06
-1.07434e-08
2.74952e-06
2.34674e-07
2.7554e-06
4.26024e-07
2.7706e-06
5.07553e-07
2.77629e-06
3.75928e-07
2.78501e-06
3.41605e-07
2.77815e-06
1.69441e-07
2.78046e-06
1.54004e-07
2.77049e-06
9.86264e-08
2.76415e-06
8.59786e-08
2.75736e-06
6.50768e-08
2.75934e-06
7.51439e-08
7.2081e-08
2.75493e-06
2.85674e-06
-1.7154e-07
2.85145e-06
-4.26832e-07
2.85828e-06
3.4977e-07
2.8955e-06
1.00794e-06
2.86316e-06
-1.29798e-07
2.86525e-06
-1.35514e-07
2.85754e-06
-6.4248e-08
2.84501e-06
1.78719e-09
2.85429e-06
2.25398e-07
2.86027e-06
4.2004e-07
2.87475e-06
4.93073e-07
2.88178e-06
3.68897e-07
2.88918e-06
3.34213e-07
2.88346e-06
1.75157e-07
2.88522e-06
1.52243e-07
2.88399e-06
9.98593e-08
2.88269e-06
8.72832e-08
2.87784e-06
6.99264e-08
2.86515e-06
8.78254e-08
7.70503e-08
2.86019e-06
2.96602e-06
-1.63315e-07
2.95948e-06
-4.20297e-07
2.96568e-06
3.4357e-07
3.00375e-06
9.69878e-07
2.974e-06
-1.0005e-07
2.97389e-06
-1.35406e-07
2.96755e-06
-5.79051e-08
2.95321e-06
1.6132e-08
2.9628e-06
2.15803e-07
2.96918e-06
4.1366e-07
2.98268e-06
4.79574e-07
2.9911e-06
3.60475e-07
2.99751e-06
3.2781e-07
2.9939e-06
1.7876e-07
2.99454e-06
1.51603e-07
2.98491e-06
1.09493e-07
2.97524e-06
9.6951e-08
2.96785e-06
7.73197e-08
2.97351e-06
8.21598e-08
8.09172e-08
2.96965e-06
3.07953e-06
-1.55687e-07
3.07175e-06
-4.12514e-07
3.07721e-06
3.38109e-07
3.11589e-06
9.31195e-07
3.08887e-06
-7.30312e-08
3.08637e-06
-1.32906e-07
3.08175e-06
-5.32847e-08
3.06591e-06
3.19742e-08
3.0753e-06
2.06415e-07
3.08229e-06
4.06663e-07
3.09474e-06
4.67124e-07
3.10408e-06
3.51138e-07
3.11074e-06
3.21155e-07
3.10643e-06
1.83063e-07
3.1087e-06
1.49334e-07
3.11098e-06
1.07213e-07
3.10897e-06
9.89658e-08
3.10334e-06
8.29478e-08
3.08756e-06
9.79339e-08
8.54759e-08
3.08301e-06
3.19738e-06
-1.48706e-07
3.18842e-06
-4.03552e-07
3.19316e-06
3.3337e-07
3.2321e-06
8.92249e-07
3.20796e-06
-4.88817e-08
3.20289e-06
-1.27837e-07
3.20024e-06
-5.06428e-08
3.18324e-06
4.89809e-08
3.19202e-06
1.97636e-07
3.1997e-06
3.98982e-07
3.21161e-06
4.55213e-07
3.22005e-06
3.42691e-07
3.2297e-06
3.11509e-07
3.22346e-06
1.89305e-07
3.22599e-06
1.46807e-07
3.21211e-06
1.21093e-07
3.20434e-06
1.06727e-07
3.19831e-06
8.89851e-08
3.20337e-06
9.28688e-08
8.76327e-08
3.20122e-06
3.31967e-06
-1.42367e-07
3.30968e-06
-3.93561e-07
3.3138e-06
3.29255e-07
3.35262e-06
8.53421e-07
3.33136e-06
-2.76169e-08
3.32377e-06
-1.20249e-07
3.32296e-06
-4.98266e-08
3.30546e-06
6.64817e-08
3.31298e-06
1.90108e-07
3.32209e-06
3.89877e-07
3.33263e-06
4.44671e-07
3.34151e-06
3.33814e-07
3.35136e-06
3.01656e-07
3.33934e-06
2.01325e-07
3.33648e-06
1.49664e-07
3.33159e-06
1.25983e-07
3.32534e-06
1.12983e-07
3.31887e-06
9.5456e-08
3.3253e-06
8.64383e-08
8.94853e-08
3.32345e-06
3.44654e-06
-1.3662e-07
3.43569e-06
-3.82716e-07
3.43937e-06
3.25578e-07
3.47769e-06
8.15095e-07
3.4592e-06
-9.12251e-09
3.44932e-06
-1.10375e-07
3.44993e-06
-5.04277e-08
3.43276e-06
8.36502e-08
3.43821e-06
1.84653e-07
3.45001e-06
3.78076e-07
3.45778e-06
4.36904e-07
3.46843e-06
3.23167e-07
3.47514e-06
2.94942e-07
3.47846e-06
1.9801e-07
3.47922e-06
1.48899e-07
3.48226e-06
1.22948e-07
3.48179e-06
1.13446e-07
3.47498e-06
1.02267e-07
3.45401e-06
1.07414e-07
9.37316e-08
3.44976e-06
3.57813e-06
-1.31409e-07
3.56654e-06
-3.71118e-07
3.57015e-06
3.21967e-07
3.60742e-06
7.77827e-07
3.59188e-06
6.41034e-09
3.57951e-06
-9.7998e-08
3.5816e-06
-5.25162e-08
3.56479e-06
1.00454e-07
3.56881e-06
1.80636e-07
3.58119e-06
3.65696e-07
3.59059e-06
4.27499e-07
3.59765e-06
3.16112e-07
3.61014e-06
2.82452e-07
3.60096e-06
2.07188e-07
3.59398e-06
1.55885e-07
3.58582e-06
1.31104e-07
3.58125e-06
1.18019e-07
3.57698e-06
1.06539e-07
3.58302e-06
1.0137e-07
9.462e-08
3.58213e-06
3.71462e-06
-1.26645e-07
3.70242e-06
-3.58914e-07
3.70623e-06
3.18156e-07
3.74214e-06
7.41913e-07
3.72931e-06
1.92426e-08
3.71487e-06
-8.35622e-08
3.71774e-06
-5.53796e-08
3.70232e-06
1.15867e-07
3.70398e-06
1.7898e-07
3.71814e-06
3.51535e-07
3.72762e-06
4.18014e-07
3.73328e-06
3.10459e-07
3.74654e-06
2.69192e-07
3.73255e-06
2.21173e-07
3.7279e-06
1.60538e-07
3.72111e-06
1.37892e-07
3.71641e-06
1.22718e-07
3.71207e-06
1.10881e-07
3.71969e-06
9.37457e-08
9.55786e-08
3.71874e-06
3.85619e-06
-1.22243e-07
3.8435e-06
-3.46226e-07
3.84775e-06
3.13901e-07
3.88216e-06
7.07508e-07
3.87146e-06
2.99377e-08
3.85591e-06
-6.80078e-08
3.85836e-06
-5.78329e-08
3.84581e-06
1.28422e-07
3.84347e-06
1.81316e-07
3.86144e-06
3.33568e-07
3.86657e-06
4.12883e-07
3.87616e-06
3.00867e-07
3.87958e-06
2.65773e-07
3.89321e-06
2.07549e-07
3.89356e-06
1.60185e-07
3.89743e-06
1.34022e-07
3.89811e-06
1.22043e-07
3.89067e-06
1.1832e-07
3.86512e-06
1.19291e-07
1.01205e-07
3.85949e-06
4.00308e-06
-1.18174e-07
3.98981e-06
-3.32955e-07
3.99503e-06
3.08685e-07
4.02732e-06
6.75217e-07
4.01924e-06
3.80169e-08
4.00197e-06
-5.07369e-08
4.00479e-06
-6.06528e-08
3.99331e-06
1.39901e-07
3.99126e-06
1.83367e-07
4.00462e-06
3.20206e-07
4.01933e-06
3.98177e-07
4.01977e-06
3.00423e-07
4.03638e-06
2.49164e-07
4.02038e-06
2.2355e-07
4.01356e-06
1.67003e-07
4.00685e-06
1.40739e-07
4.00313e-06
1.2576e-07
4.00131e-06
1.2014e-07
4.00869e-06
1.11909e-07
1.02306e-07
4.00759e-06
4.15546e-06
-1.14355e-07
4.14173e-06
-3.19224e-07
4.14797e-06
3.02453e-07
4.17833e-06
6.44856e-07
4.17204e-06
4.43046e-08
4.15429e-06
-3.29909e-08
4.15584e-06
-6.22023e-08
4.14776e-06
1.47982e-07
4.14269e-06
1.88443e-07
4.15676e-06
3.06134e-07
4.17277e-06
3.8216e-07
4.16393e-06
3.09267e-07
4.17337e-06
2.39728e-07
4.1695e-06
2.27413e-07
4.16556e-06
1.70948e-07
4.15874e-06
1.47558e-07
4.15446e-06
1.30038e-07
4.1525e-06
1.22098e-07
4.16157e-06
1.02844e-07
1.03784e-07
4.16009e-06
4.31356e-06
-1.10732e-07
4.29944e-06
-3.05098e-07
4.30675e-06
2.9514e-07
4.33547e-06
6.16134e-07
4.32993e-06
4.98447e-08
4.31337e-06
-1.64334e-08
4.31112e-06
-5.99491e-08
4.30992e-06
1.49181e-07
4.29684e-06
2.0153e-07
4.31938e-06
2.83594e-07
4.32117e-06
3.80365e-07
4.33658e-06
2.9386e-07
4.33874e-06
2.37562e-07
4.35591e-06
2.10251e-07
4.35732e-06
1.6953e-07
4.36285e-06
1.42034e-07
4.363e-06
1.29887e-07
4.35505e-06
1.30048e-07
4.32538e-06
1.32512e-07
1.12133e-07
4.31703e-06
4.4777e-06
-1.07344e-07
4.46297e-06
-2.90367e-07
4.47182e-06
2.86286e-07
4.49826e-06
5.89696e-07
4.4945e-06
5.36028e-08
4.47733e-06
7.35782e-10
4.47491e-06
-5.75247e-08
4.47366e-06
1.50426e-07
4.46297e-06
2.12219e-07
4.47878e-06
2.67785e-07
4.48644e-06
3.72704e-07
4.48473e-06
2.95571e-07
4.4903e-06
2.31991e-07
4.48988e-06
2.10671e-07
4.48593e-06
1.73482e-07
4.48195e-06
1.46014e-07
4.47488e-06
1.36952e-07
4.47437e-06
1.30564e-07
4.48457e-06
1.22315e-07
1.14138e-07
4.48256e-06
4.648e-06
-1.04134e-07
4.63287e-06
-2.75241e-07
4.64288e-06
2.76277e-07
4.66786e-06
5.64717e-07
4.6646e-06
5.68672e-08
4.64806e-06
1.72672e-08
4.64468e-06
-5.41453e-08
4.64325e-06
1.5186e-07
4.63614e-06
2.19335e-07
4.64315e-06
2.60766e-07
4.65946e-06
3.56395e-07
4.65366e-06
3.01373e-07
4.6588e-06
2.26853e-07
4.65836e-06
2.11106e-07
4.65666e-06
1.75183e-07
4.65085e-06
1.51833e-07
4.65056e-06
1.3724e-07
4.65106e-06
1.30065e-07
4.65326e-06
1.20113e-07
1.13617e-07
4.65378e-06
4.82477e-06
-1.01115e-07
4.80927e-06
-2.5974e-07
4.82026e-06
2.65282e-07
4.8443e-06
5.40681e-07
4.84057e-06
6.05947e-08
4.82594e-06
3.18933e-08
4.81991e-06
-4.81115e-08
4.82072e-06
1.51053e-07
4.81262e-06
2.27434e-07
4.81924e-06
2.54142e-07
4.83287e-06
3.42761e-07
4.83058e-06
3.03672e-07
4.83263e-06
2.24802e-07
4.8344e-06
2.09333e-07
4.8327e-06
1.76878e-07
4.82909e-06
1.55442e-07
4.83134e-06
1.34994e-07
4.83373e-06
1.27677e-07
4.8301e-06
1.23738e-07
1.12914e-07
4.83081e-06
5.00826e-06
-9.83081e-08
4.99236e-06
-2.43836e-07
5.0043e-06
2.53347e-07
5.02748e-06
5.17498e-07
5.02331e-06
6.47622e-08
5.01023e-06
4.49731e-08
5.00236e-06
-4.02407e-08
5.00438e-06
1.49037e-07
4.99594e-06
2.35874e-07
5.00153e-06
2.48549e-07
5.01471e-06
3.29578e-07
5.01397e-06
3.04417e-07
5.01426e-06
2.24507e-07
5.01696e-06
2.06632e-07
5.01579e-06
1.78053e-07
5.01382e-06
1.57413e-07
5.01124e-06
1.37573e-07
5.0077e-06
1.31218e-07
5.01347e-06
1.17971e-07
1.11932e-07
5.01445e-06
5.19867e-06
-9.56642e-08
5.18262e-06
-2.27789e-07
5.19499e-06
2.40979e-07
5.21816e-06
4.94331e-07
5.21255e-06
7.03686e-08
5.20162e-06
5.59077e-08
5.19166e-06
-3.02822e-08
5.19501e-06
1.4569e-07
5.18599e-06
2.44886e-07
5.19057e-06
2.4397e-07
5.20337e-06
3.16778e-07
5.20447e-06
3.03324e-07
5.20348e-06
2.2549e-07
5.20623e-06
2.03882e-07
5.20579e-06
1.78495e-07
5.2048e-06
1.58408e-07
5.20432e-06
1.38046e-07
5.208e-06
1.27536e-07
5.20423e-06
1.21744e-07
1.11089e-07
5.20507e-06
5.39632e-06
-9.32063e-08
5.38017e-06
-2.11641e-07
5.39278e-06
2.28374e-07
5.41614e-06
4.70965e-07
5.40921e-06
7.72978e-08
5.39981e-06
6.53096e-08
5.38861e-06
-1.90775e-08
5.39227e-06
1.42026e-07
5.38377e-06
2.53385e-07
5.38637e-06
2.4137e-07
5.39953e-06
3.03624e-07
5.4021e-06
3.00753e-07
5.40036e-06
2.27228e-07
5.4027e-06
2.01535e-07
5.40321e-06
1.7799e-07
5.40233e-06
1.59288e-07
5.39947e-06
1.40908e-07
5.39703e-06
1.29975e-07
5.40165e-06
1.17123e-07
1.09689e-07
5.40305e-06
5.60143e-06
-9.09014e-08
5.58537e-06
-1.95581e-07
5.59789e-06
2.15853e-07
5.6218e-06
4.47061e-07
5.61355e-06
8.55509e-08
5.60519e-06
7.3668e-08
5.59306e-06
-6.95372e-09
5.59679e-06
1.38302e-07
5.58929e-06
2.6088e-07
5.59006e-06
2.40604e-07
5.60316e-06
2.90516e-07
5.60704e-06
2.96881e-07
5.60504e-06
2.29221e-07
5.60685e-06
1.99726e-07
5.60779e-06
1.7705e-07
5.6074e-06
1.59678e-07
5.60568e-06
1.42627e-07
5.60557e-06
1.30085e-07
5.6069e-06
1.15795e-07
1.0809e-07
5.6085e-06
5.81431e-06
-8.87303e-08
5.79851e-06
-1.79783e-07
5.81059e-06
2.03775e-07
5.8353e-06
4.22345e-07
5.82595e-06
9.49037e-08
5.81806e-06
8.15611e-08
5.80516e-06
5.94817e-09
5.80901e-06
1.34454e-07
5.80266e-06
2.67228e-07
5.80198e-06
2.41284e-07
5.8144e-06
2.78089e-07
5.81978e-06
2.91508e-07
5.81775e-06
2.31248e-07
5.81903e-06
1.98446e-07
5.81997e-06
1.76113e-07
5.82051e-06
1.59134e-07
5.8207e-06
1.42436e-07
5.82298e-06
1.27809e-07
5.82014e-06
1.18633e-07
1.06592e-07
5.82164e-06
6.03525e-06
-8.66863e-08
6.0198e-06
-1.64331e-07
6.0313e-06
1.92282e-07
6.05651e-06
3.97131e-07
6.047e-06
1.04413e-07
6.03841e-06
9.01548e-08
6.02556e-06
1.87989e-08
6.02887e-06
1.31144e-07
6.02441e-06
2.71688e-07
6.02219e-06
2.43498e-07
6.0338e-06
2.6648e-07
6.04041e-06
2.849e-07
6.03874e-06
2.32912e-07
6.03945e-06
1.97739e-07
6.04038e-06
1.75185e-07
6.04146e-06
1.58057e-07
6.03996e-06
1.43937e-07
6.03747e-06
1.30294e-07
6.04131e-06
1.14796e-07
1.05012e-07
6.04289e-06
6.26453e-06
-8.47187e-08
6.24961e-06
-1.49412e-07
6.26028e-06
1.81621e-07
6.28588e-06
3.71528e-07
6.2766e-06
1.1369e-07
6.26735e-06
9.94024e-08
6.25425e-06
3.19007e-08
6.25712e-06
1.28274e-07
6.25456e-06
2.74251e-07
6.25121e-06
2.46849e-07
6.26155e-06
2.56138e-07
6.26934e-06
2.77114e-07
6.26818e-06
2.34071e-07
6.26851e-06
1.97406e-07
6.26916e-06
1.74538e-07
6.27064e-06
1.56578e-07
6.27162e-06
1.42953e-07
6.27417e-06
1.27747e-07
6.27122e-06
1.1774e-07
1.03785e-07
6.27245e-06
6.50249e-06
-8.28089e-08
6.4882e-06
-1.35118e-07
6.4979e-06
1.71924e-07
6.52364e-06
3.45787e-07
6.5152e-06
1.22127e-07
6.50517e-06
1.09437e-07
6.49179e-06
4.52818e-08
6.49412e-06
1.25942e-07
6.49336e-06
2.75005e-07
6.48934e-06
2.50875e-07
6.49803e-06
2.4745e-07
6.50685e-06
2.68293e-07
6.50639e-06
2.34533e-07
6.50656e-06
1.97231e-07
6.50695e-06
1.74146e-07
6.50857e-06
1.54962e-07
6.50836e-06
1.43163e-07
6.5067e-06
1.29408e-07
6.50972e-06
1.14722e-07
1.02804e-07
6.5107e-06
6.74943e-06
-8.09043e-08
6.73584e-06
-1.21522e-07
6.7446e-06
1.63165e-07
6.77024e-06
3.20148e-07
6.76301e-06
1.29351e-07
6.75224e-06
1.20214e-07
6.73843e-06
5.90876e-08
6.74013e-06
1.2424e-07
6.74117e-06
2.73967e-07
6.73689e-06
2.55153e-07
6.74375e-06
2.40596e-07
6.75325e-06
2.5879e-07
6.75363e-06
2.34152e-07
6.75375e-06
1.97106e-07
6.7538e-06
1.74101e-07
6.75542e-06
1.53346e-07
6.757e-06
1.41581e-07
6.75955e-06
1.26857e-07
6.75755e-06
1.16724e-07
1.02253e-07
6.7581e-06
7.00572e-06
-7.89752e-08
6.99288e-06
-1.08681e-07
7.00069e-06
1.5535e-07
7.02599e-06
2.94852e-07
7.02034e-06
1.35e-07
7.00895e-06
1.31608e-07
6.99462e-06
7.34196e-08
6.99563e-06
1.2323e-07
6.99821e-06
2.71379e-07
6.99413e-06
2.59231e-07
6.99899e-06
2.35744e-07
7.00886e-06
2.48921e-07
7.01026e-06
2.32752e-07
7.01047e-06
1.96888e-07
7.01039e-06
1.74186e-07
7.01182e-06
1.51911e-07
7.01267e-06
1.40731e-07
7.01196e-06
1.27568e-07
7.01466e-06
1.14029e-07
1.01922e-07
7.01499e-06
7.27168e-06
-7.69632e-08
7.25958e-06
-9.65813e-08
7.26659e-06
1.48334e-07
7.2914e-06
2.70045e-07
7.28776e-06
1.38641e-07
7.27566e-06
1.43709e-07
7.26073e-06
8.83496e-08
7.26085e-06
1.23106e-07
7.26482e-06
2.67415e-07
7.26136e-06
2.6269e-07
7.26435e-06
2.32758e-07
7.27417e-06
2.39101e-07
7.27659e-06
2.30323e-07
7.27693e-06
1.96552e-07
7.2769e-06
1.74222e-07
7.27797e-06
1.50832e-07
7.28004e-06
1.38669e-07
7.2825e-06
1.25102e-07
7.28155e-06
1.14986e-07
1.01809e-07
7.28166e-06
7.54769e-06
-7.48189e-08
7.5364e-06
-8.52953e-08
7.54261e-06
1.42124e-07
7.56683e-06
2.45822e-07
7.56494e-06
1.40538e-07
7.55277e-06
1.55879e-07
7.53726e-06
1.0386e-07
7.53626e-06
1.24104e-07
7.54137e-06
2.62309e-07
7.53889e-06
2.65165e-07
7.54022e-06
2.31432e-07
7.54943e-06
2.29889e-07
7.55293e-06
2.26817e-07
7.55358e-06
1.95905e-07
7.55376e-06
1.74043e-07
7.55435e-06
1.50237e-07
7.55587e-06
1.37153e-07
7.55579e-06
1.25182e-07
7.55852e-06
1.12259e-07
1.0166e-07
7.55867e-06
7.83411e-06
-7.24768e-08
7.82371e-06
-7.48899e-08
7.82911e-06
1.3672e-07
7.85273e-06
2.22206e-07
7.85242e-06
1.40842e-07
7.84096e-06
1.67341e-07
7.82454e-06
1.20278e-07
7.82215e-06
1.26496e-07
7.82823e-06
2.56231e-07
7.82697e-06
2.66429e-07
7.82698e-06
2.31421e-07
7.83524e-06
2.21629e-07
7.83978e-06
2.22278e-07
7.8407e-06
1.94983e-07
7.84115e-06
1.7359e-07
7.84138e-06
1.5001e-07
7.84327e-06
1.35257e-07
7.8452e-06
1.23254e-07
7.84587e-06
1.11592e-07
1.01229e-07
7.8463e-06
8.13137e-06
-6.98848e-08
8.12192e-06
-6.54453e-08
8.12657e-06
1.32077e-07
8.14928e-06
1.99488e-07
8.15121e-06
1.38911e-07
8.14207e-06
1.76486e-07
8.12265e-06
1.39695e-07
8.119e-06
1.3015e-07
8.12583e-06
2.49401e-07
8.12598e-06
2.66273e-07
8.12507e-06
2.32331e-07
8.13201e-06
2.14694e-07
8.13733e-06
2.1696e-07
8.13869e-06
1.93621e-07
8.13955e-06
1.72729e-07
8.13955e-06
1.50011e-07
8.14135e-06
1.33454e-07
8.14247e-06
1.22132e-07
8.14411e-06
1.0995e-07
1.00389e-07
8.14495e-06
8.43987e-06
-6.69893e-08
8.43142e-06
-5.70007e-08
8.43537e-06
1.2813e-07
8.45674e-06
1.78113e-07
8.46163e-06
1.34028e-07
8.44854e-06
1.89578e-07
8.43147e-06
1.56763e-07
8.4274e-06
1.34219e-07
8.4346e-06
2.422e-07
8.43622e-06
2.6465e-07
8.43484e-06
2.33709e-07
8.44021e-06
2.09326e-07
8.44619e-06
2.10985e-07
8.44803e-06
1.91782e-07
8.44918e-06
1.71571e-07
8.44917e-06
1.50028e-07
8.45074e-06
1.31876e-07
8.45201e-06
1.20868e-07
8.45368e-06
1.0828e-07
9.92843e-08
8.45478e-06
8.75999e-06
-6.3692e-08
8.75292e-06
-4.99335e-08
8.75527e-06
1.25785e-07
8.77434e-06
1.59043e-07
8.77528e-06
1.33082e-07
8.76704e-06
1.9782e-07
8.75231e-06
1.71491e-07
8.74777e-06
1.38764e-07
8.75506e-06
2.34902e-07
8.75808e-06
2.61634e-07
8.75674e-06
2.35049e-07