/*--------------------------------*- C++ -*----------------------------------*\
| =========                 |                                                 |
| \\      /  F ield         | OpenFOAM: The Open Source CFD Toolbox           |
|  \\    /   O peration     | Version:  v2012                                 |
|   \\  /    A nd           | Website:  www.openfoam.com                      |
|    \\/     M anipulation  |                                                 |
\*---------------------------------------------------------------------------*/
FoamFile
{
    version     2.0;
    format      ascii;
    class       volVectorField;
    location    "3.5";
    object      U;
}
// * * * * * * * * * * * * * * * * * * * * * * * * * * * * * * * * * * * * * //

dimensions      [0 1 -1 0 0 0 0];


internalField   nonuniform List<vector> 
7000
(
(0.899694 -0.00244164 0)
(1.04723 -0.00386472 0)
(0.95778 0.0108785 0)
(1.28732 0.00765042 0)
(0.557463 -0.0059378 0)
(1.37948 0.00529611 0)
(0.60071 -0.00984901 0)
(1.24121 0.00455334 0)
(0.84736 -0.000460873 0)
(1.14105 0.0153764 0)
(0.880604 0.0143109 0)
(1.10324 0.0173024 0)
(0.893016 0.0119639 0)
(1.09339 0.00466382 0)
(0.896409 0.00638911 0)
(1.09414 -0.0033154 0)
(0.886687 -0.000458271 0)
(1.09429 -0.00878555 0)
(0.868419 -0.00331845 0)
(1.09217 -0.0104661 0)
(0.904697 -0.00225731 0)
(1.04514 -0.00409186 0)
(0.959624 0.00955474 0)
(1.28022 0.0104565 0)
(0.585865 -0.00714573 0)
(1.36693 0.00549156 0)
(0.645532 -0.00923195 0)
(1.2295 0.00283718 0)
(0.870058 0.000252252 0)
(1.13252 0.0155576 0)
(0.904844 0.014563 0)
(1.08287 0.0173843 0)
(0.929914 0.0119948 0)
(1.05868 0.00476556 0)
(0.946033 0.0062431 0)
(1.04395 -0.00305653 0)
(0.95105 -0.000471685 0)
(1.02713 -0.00866483 0)
(0.949287 -0.00256629 0)
(1.00716 -0.010872 0)
(0.914057 -0.00208237 0)
(1.04045 -0.00430851 0)
(0.964109 0.00814273 0)
(1.26523 0.012934 0)
(0.638776 -0.00827926 0)
(1.3402 0.00566335 0)
(0.721944 -0.00862569 0)
(1.1997 0.00115187 0)
(0.913992 0.000890046 0)
(1.1092 0.0154798 0)
(0.949529 0.0150951 0)
(1.05038 0.0172131 0)
(0.975741 0.0122987 0)
(1.02272 0.00454189 0)
(0.989977 0.00649285 0)
(1.00858 -0.00307731 0)
(0.991738 -4.68093e-05 0)
(0.993536 -0.00848765 0)
(0.985707 -0.002023 0)
(0.97999 -0.0100171 0)
(0.926978 -0.0019354 0)
(1.03308 -0.00449252 0)
(0.971122 0.00693775 0)
(1.24135 0.0148595 0)
(0.709397 -0.00912392 0)
(1.29723 0.00548303 0)
(0.813778 -0.00787262 0)
(1.15292 -0.000170134 0)
(0.964557 0.00160398 0)
(1.07742 0.015175 0)
(0.991704 0.0157751 0)
(1.02462 0.0169004 0)
(1.00385 0.0127265 0)
(1.00468 0.00425294 0)
(1.00786 0.00688686 0)
(0.996793 -0.00320965 0)
(1.00283 0.00057038 0)
(0.985347 -0.00851228 0)
(0.99281 -0.00127939 0)
(0.975574 -0.00932278 0)
(0.942181 -0.00180266 0)
(1.02389 -0.00465854 0)
(0.979773 0.00583172 0)
(1.20878 0.0164245 0)
(0.787187 -0.00972563 0)
(1.2405 0.00497844 0)
(0.89998 -0.00690267 0)
(1.10054 -0.00120396 0)
(1.0041 0.00219122 0)
(1.04938 0.0149099 0)
(1.01652 0.0164111 0)
(1.01294 0.0167596 0)
(1.01294 0.0130965 0)
(1.00087 0.00411838 0)
(1.00922 0.00721029 0)
(0.996063 -0.00323574 0)
(1.00115 0.00113314 0)
(0.985878 -0.00848208 0)
(0.990092 -0.000548772 0)
(0.977103 -0.00871885 0)
(0.957981 -0.00168386 0)
(1.01452 -0.00481172 0)
(0.988488 0.00484511 0)
(1.1698 0.0175803 0)
(0.859971 -0.0100557 0)
(1.1778 0.0042998 0)
(0.964477 -0.00585983 0)
(1.05601 -0.0019346 0)
(1.02409 0.00255769 0)
(1.03151 0.014828 0)
(1.02465 0.0168969 0)
(1.01088 0.0168225 0)
(1.01288 0.0134011 0)
(1.00256 0.00409278 0)
(1.00603 0.00749687 0)
(0.99797 -0.00319614 0)
(0.997701 0.00165081 0)
(0.988038 -0.00835619 0)
(0.986985 0.000100129 0)
(0.979346 -0.00814621 0)
(0.972672 -0.00158416 0)
(1.0067 -0.00494769 0)
(0.995509 0.00403823 0)
(1.12864 0.0183123 0)
(0.918562 -0.0101282 0)
(1.11889 0.00359396 0)
(1.00255 -0.00491688 0)
(1.02658 -0.00233307 0)
(1.02676 0.00271112 0)
(1.02203 0.0148638 0)
(1.02371 0.0172233 0)
(1.01199 0.0169565 0)
(1.01137 0.0136772 0)
(1.005 0.00410214 0)
(1.00394 0.00779449 0)
(0.99992 -0.00314924 0)
(0.996213 0.00214226 0)
(0.990142 -0.00816273 0)
(0.986113 0.000664834 0)
(0.981456 -0.00754829 0)
(0.984976 -0.00150905 0)
(1.00155 -0.00505543 0)
(0.999629 0.00343552 0)
(1.0901 0.0186886 0)
(0.95947 -0.0100123 0)
(1.07124 0.00297277 0)
(1.01874 -0.00418071 0)
(1.01151 -0.00245977 0)
(1.01978 0.00271106 0)
(1.01604 0.0148774 0)
(1.01997 0.0174268 0)
(1.01269 0.0170537 0)
(1.01096 0.0139426 0)
(1.00684 0.00411281 0)
(1.00373 0.00810688 0)
(1.00163 -0.00310412 0)
(0.996639 0.00261613 0)
(0.992137 -0.00791724 0)
(0.987079 0.00116038 0)
(0.983595 -0.00690806 0)
(0.994305 -0.0014627 0)
(0.999286 -0.0051265 0)
(1.00067 0.00303037 0)
(1.05783 0.0188052 0)
(0.98421 -0.00979009 0)
(1.03771 0.00248768 0)
(1.02143 -0.00368063 0)
(1.00572 -0.00240741 0)
(1.01052 0.00265222 0)
(1.01033 0.0147897 0)
(1.01601 0.0175421 0)
(1.01198 0.0170679 0)
(1.01109 0.014192 0)
(1.00794 0.00411321 0)
(1.00441 0.00841982 0)
(1.00316 -0.00305614 0)
(0.997937 0.00306553 0)
(0.994066 -0.00761938 0)
(0.988878 0.00160142 0)
(0.985801 -0.00622796 0)
(1.00075 -0.00144724 0)
(0.999279 -0.0051564 0)
(0.999393 0.00279911 0)
(1.03338 0.0187505 0)
(0.996877 -0.00952852 0)
(1.01705 0.00212964 0)
(1.01832 -0.00338081 0)
(1.0041 -0.00226908 0)
(1.00309 0.00262116 0)
(1.00429 0.0146067 0)
(1.01212 0.0175886 0)
(1.01002 0.0169931 0)
(1.01071 0.0144083 0)
(1.00835 0.00409322 0)
(1.00503 0.00871535 0)
(1.00439 -0.0029988 0)
(0.999328 0.00346421 0)
(0.995812 -0.00726341 0)
(0.990822 0.00198296 0)
(0.987923 -0.00552318 0)
(1.00483 -0.00146181 0)
(1.00053 -0.00514532 0)
(0.996994 0.0027094 0)
(1.01634 0.0185915 0)
(1.00195 -0.00926965 0)
(1.0058 0.00185535 0)
(1.01423 -0.00321509 0)
(1.00364 -0.0021067 0)
(0.998404 0.00266368 0)
(0.998613 0.0143736 0)
(1.00811 0.0175828 0)
(1.00732 0.0168397 0)
(1.00939 0.0145796 0)
(1.00815 0.00404141 0)
(1.00525 0.00897781 0)
(1.0052 -0.00293434 0)
(1.00051 0.00380356 0)
(0.997247 -0.00683904 0)
(0.992617 0.00229829 0)
(0.989811 -0.00481038 0)
(1.00724 -0.00150255 0)
(1.00211 -0.0050979 0)
(0.994501 0.00272748 0)
(1.00521 0.0183724 0)
(1.00301 -0.00903173 0)
(1.00027 0.00161803 0)
(1.01108 -0.0031211 0)
(1.00324 -0.00194704 0)
(0.995818 0.00278468 0)
(0.993978 0.0141337 0)
(1.0041 0.0175436 0)
(1.00443 0.0166235 0)
(1.00745 0.0146999 0)
(1.00753 0.00395046 0)
(1.00518 0.00919614 0)
(1.0056 -0.00285787 0)
(1.00146 0.00407307 0)
(0.99833 -0.00635484 0)
(0.994176 0.00255231 0)
(0.991405 -0.00409583 0)
(1.00854 -0.00156359 0)
(1.00337 -0.00502137 0)
(0.992471 0.00282323 0)
(0.998347 0.0181188 0)
(1.00241 -0.00881651 0)
(0.997719 0.00138566 0)
(1.00896 -0.00305834 0)
(1.00275 -0.00179161 0)
(0.994445 0.00297032 0)
(0.990656 0.0139127 0)
(1.00049 0.0174906 0)
(1.00187 0.0163531 0)
(1.00547 0.0147743 0)
(1.00674 0.00381535 0)
(1.00505 0.00935902 0)
(1.00569 -0.00275827 0)
(1.00221 0.00426 0)
(0.99911 -0.00582128 0)
(0.995474 0.00275315 0)
(0.992709 -0.00338444 0)
(1.00911 -0.00163818 0)
(1.00404 -0.0049234 0)
(0.991016 0.00297148 0)
(0.994448 0.0178436 0)
(1.00137 -0.00861642 0)
(0.996481 0.00114413 0)
(1.00737 -0.00300511 0)
(1.0022 -0.0016419 0)
(0.993709 0.00320276 0)
(0.988608 0.0137168 0)
(0.997701 0.0174358 0)
(1.00005 0.0160354 0)
(1.00399 0.0148111 0)
(1.00601 0.00364646 0)
(1.005 0.00946308 0)
(1.00563 -0.00262334 0)
(1.00281 0.0043668 0)
(0.999666 -0.00524174 0)
(0.996501 0.00290991 0)
(0.99376 -0.00267995 0)
(1.00912 -0.00171927 0)
(1.00405 -0.00481084 0)
(0.990032 0.00315105 0)
(0.992684 0.0175529 0)
(1.00042 -0.00841965 0)
(0.995767 0.000891913 0)
(1.00591 -0.00295087 0)
(1.00158 -0.00150469 0)
(0.993316 0.00346339 0)
(0.987655 0.0135396 0)
(0.995982 0.0173817 0)
(0.999164 0.0156802 0)
(1.00327 0.014817 0)
(1.00546 0.00346904 0)
(1.00509 0.00950532 0)
(1.00552 -0.0024358 0)
(1.00323 0.00440085 0)
(1.00007 -0.00462227 0)
(0.997255 0.00303262 0)
(0.994596 -0.00198828 0)
(1.00867 -0.00179987 0)
(1.00345 -0.00468953 0)
(0.989432 0.00334322 0)
(0.992536 0.017249 0)
(0.999733 -0.0082133 0)
(0.995283 0.000632916 0)
(1.00446 -0.00289094 0)
(1.00088 -0.00138317 0)
(0.993108 0.00373688 0)
(0.987552 0.0133655 0)
(0.995322 0.0173287 0)
(0.999157 0.0152953 0)
(1.00332 0.0148027 0)
(1.00515 0.00330738 0)
(1.00527 0.00948114 0)
(1.00545 -0.00218988 0)
(1.00347 0.00437168 0)
(1.00037 -0.00397185 0)
(0.997762 0.00313382 0)
(0.995253 -0.00131362 0)
(1.00784 -0.00187321 0)
(1.00235 -0.00456546 0)
(0.989237 0.00353133 0)
(0.993601 0.0169331 0)
(0.999396 -0.00798529 0)
(0.994948 0.000371951 0)
(1.00307 -0.00282191 0)
(1.00009 -0.00127969 0)
(0.992987 0.00400817 0)
(0.988016 0.0131817 0)
(0.995529 0.0172692 0)
(0.999815 0.0148932 0)
(1.00399 0.0147747 0)
(1.00509 0.00319256 0)
(1.0055 0.00939418 0)
(1.00544 -0.00187691 0)
(1.00356 0.00428913 0)
(1.00059 -0.00330662 0)
(0.998078 0.00322622 0)
(0.995764 -0.000660268 0)
(1.00679 -0.00193307 0)
(1.00083 -0.00444542 0)
(0.989534 0.00370185 0)
(0.995479 0.0166071 0)
(0.99944 -0.0077257 0)
(0.994727 0.000113496 0)
(1.00181 -0.00274167 0)
(0.999281 -0.00119407 0)
(0.992904 0.00426652 0)
(0.988769 0.0129762 0)
(0.996323 0.0171972 0)
(1.00086 0.0144825 0)
(1.00503 0.0147356 0)
(1.00529 0.00315024 0)
(1.00574 0.00925234 0)
(1.00551 -0.00149086 0)
(1.00357 0.0041695 0)
(1.00076 -0.00263776 0)
(0.998277 0.00332131 0)
(0.99616 -3.34346e-05 0)
(1.00568 -0.00197468 0)
(0.999053 -0.004336 0)
(0.990352 0.00384461 0)
(0.997778 0.0162729 0)
(0.999849 -0.00742767 0)
(0.994574 -0.000138083 0)
(1.00073 -0.00264965 0)
(0.998518 -0.00112412 0)
(0.992854 0.00450542 0)
(0.98959 0.012741 0)
(0.997416 0.0171076 0)
(1.00203 0.0140748 0)
(1.0062 0.0146769 0)
(1.00571 0.00319286 0)
(1.006 0.00906128 0)
(1.00565 -0.00104748 0)
(1.00356 0.00403953 0)
(1.00089 -0.00197568 0)
(0.99843 0.00342673 0)
(0.996472 0.000565868 0)
(1.00467 -0.00199527 0)
(0.997178 -0.00424271 0)
(0.991591 0.00395338 0)
(1.00016 0.0159322 0)
(1.00053 -0.00708728 0)
(0.994444 -0.000378414 0)
(0.999833 -0.00254671 0)
(0.997859 -0.00106714 0)
(0.992865 0.00472274 0)
(0.990348 0.0124758 0)
(0.998561 0.0169879 0)
(1.00313 0.0136879 0)
(1.0073 0.014591 0)
(1.00629 0.00332105 0)
(1.00629 0.00882978 0)
(1.00585 -0.000557718 0)
(1.00361 0.00391648 0)
(1.00101 -0.00132481 0)
(0.99859 0.00355085 0)
(0.996733 0.00113424 0)
(1.00388 -0.00199443 0)
(0.995395 -0.00416863 0)
(0.993028 0.004026 0)
(1.00239 0.0155869 0)
(1.00132 -0.00670331 0)
(0.994331 -0.000605878 0)
(0.999093 -0.00243607 0)
(0.997319 -0.00102061 0)
(0.992968 0.00491999 0)
(0.990994 0.0121842 0)
(0.999573 0.0168292 0)
(1.00403 0.0133347 0)
(1.00818 0.0144687 0)
(1.00692 0.00352667 0)
(1.0066 0.00857916 0)
(1.00606 -3.29425e-05 0)
(1.00372 0.003812 0)
(1.00112 -0.000691024 0)
(0.998779 0.00370095 0)
(0.996973 0.00167817 0)
(1.00336 -0.00197404 0)
(0.993853 -0.0041134 0)
(0.994412 0.00406364 0)
(1.00432 0.0152373 0)
(1.00208 -0.00627758 0)
(0.994283 -0.00081862 0)
(0.998485 -0.00232067 0)
(0.996867 -0.000982062 0)
(0.993171 0.0050924 0)
(0.991544 0.0118835 0)
(1.00035 0.0166274 0)
(1.00465 0.0130151 0)
(1.00876 0.0142996 0)
(1.00748 0.00379659 0)
(1.00691 0.00832115 0)
(1.00624 0.000515928 0)
(1.00389 0.00374099 0)
(1.00125 -7.53337e-05 0)
(0.999004 0.00386639 0)
(0.997218 0.00219683 0)
(1.00308 -0.00193738 0)
(0.992632 -0.00407404 0)
(0.995561 0.00407008 0)
(1.00587 0.0148828 0)
(1.00269 -0.00581501 0)
(0.994372 -0.00101543 0)
(0.997998 -0.00220285 0)
(0.996448 -0.000947179 0)
(0.993452 0.00523756 0)
(0.992036 0.0115862 0)
(1.00086 0.0163841 0)
(1.00499 0.012728 0)
(1.00903 0.0140795 0)
(1.0079 0.004118 0)
(1.00719 0.00806656 0)
(1.00638 0.00106996 0)
(1.00409 0.00371718 0)
(1.00139 0.000525274 0)
(0.999256 0.00404807 0)
(0.997484 0.00268478 0)
(1.00298 -0.00188809 0)
(0.991736 -0.00404647 0)
(0.9964 0.00405045 0)
(1.00701 0.0145237 0)
(1.00314 -0.00532385 0)
(0.994667 -0.00119688 0)
(0.997632 -0.00208377 0)
(0.996013 -0.00091145 0)
(0.99377 0.0053508 0)
(0.99251 0.0113101 0)
(1.00116 0.0160955 0)
(1.00511 0.012479 0)
(1.00905 0.0138096 0)
(1.00815 0.00447008 0)
(1.00739 0.00782434 0)
(1.00646 0.00160671 0)
(1.00429 0.00372038 0)
(1.00154 0.00110068 0)
(0.999522 0.00426451 0)
(0.99777 0.00315565 0)
(1.003 -0.00182944 0)
(0.991123 -0.00402636 0)
(0.996939 0.00401038 0)
(1.00775 0.0141596 0)
(1.00345 -0.00481344 0)
(0.995201 -0.00136326 0)
(0.997389 -0.00196014 0)
(0.995538 -0.000868876 0)
(0.994079 0.00542297 0)
(0.992985 0.0110624 0)
(1.00132 0.0157677 0)
(1.00511 0.0122777 0)
(1.0089 0.0134955 0)
(1.00827 0.00481454 0)
(1.0075 0.00760805 0)
(1.00647 0.0021436 0)
(1.00445 0.00375286 0)
(1.00171 0.00163347 0)
(0.999789 0.00449628 0)
(0.998065 0.00361877 0)
(1.00308 -0.00176428 0)
(0.990742 -0.00400928 0)
(0.997219 0.00395492 0)
(1.00814 0.0137882 0)
(1.00367 -0.00429167 0)
(0.995964 -0.00151739 0)
(0.997271 -0.00182873 0)
(0.995038 -0.000810973 0)
(0.994343 0.00544137 0)
(0.993461 0.0108455 0)
(1.00141 0.0153993 0)
(1.00508 0.0121085 0)
(1.00865 0.0131708 0)
(1.00827 0.00514735 0)
(1.00754 0.00739148 0)
(1.00643 0.00268002 0)
(1.00457 0.00386388 0)
(1.00186 0.00214633 0)
(1.00005 0.00471734 0)
(0.998355 0.00404233 0)
(1.00318 -0.00169454 0)
(0.990559 -0.00399265 0)
(0.997274 0.00388971 0)
(1.00825 0.0134082 0)
(1.00382 -0.00377298 0)
(0.996904 -0.00165196 0)
(0.997274 -0.00169036 0)
(0.994558 -0.000737891 0)
(0.994543 0.00540986 0)
(0.993918 0.0106613 0)
(1.00146 0.0150246 0)
(1.00506 0.0119225 0)
(1.00835 0.0128426 0)
(1.00818 0.00548798 0)
(1.00751 0.00720574 0)
(1.00634 0.00313911 0)
(1.00463 0.00399412 0)
(1.00198 0.00265073 0)
(1.00027 0.00499526 0)
(0.998625 0.00447986 0)
(1.00326 -0.00162173 0)
(0.99056 -0.00397363 0)
(0.997126 0.00381641 0)
(1.00813 0.0130224 0)
(1.00394 -0.00326637 0)
(0.99794 -0.00176899 0)
(0.997388 -0.00154224 0)
(0.994156 -0.000631409 0)
(0.994672 0.00531878 0)
(0.994334 0.0104986 0)
(1.00146 0.0146262 0)
(1.00505 0.0117971 0)
(1.00802 0.0124568 0)
(1.00802 0.00581492 0)
(1.00741 0.00704769 0)
(1.00619 0.00364323 0)
(1.00464 0.00412809 0)
(1.0021 0.00299608 0)
(1.00046 0.00518982 0)
(0.998863 0.00490741 0)
(1.00331 -0.00154743 0)
(0.990741 -0.00395024 0)
(0.9968 0.00374462 0)
(1.00784 0.0126156 0)
(1.00402 -0.0027672 0)
(0.998976 -0.00187312 0)
(0.997596 -0.00139135 0)
(0.993885 -0.00049313 0)
(0.994741 0.0052103 0)
(0.994687 0.0103343 0)
(1.0014 0.0142025 0)
(1.00502 0.011658 0)
(1.00767 0.0121456 0)
(1.00779 0.00607731 0)
(1.00727 0.00688659 0)
(1.00601 0.00415899 0)
(1.00457 0.00432646 0)
(1.00216 0.00340875 0)
(1.00062 0.0052941 0)
(0.999079 0.00520504 0)
(1.0033 -0.0014758 0)
(0.991094 -0.00391321 0)
(0.996335 0.003664 0)
(1.00743 0.0122133 0)
(1.00406 -0.00231747 0)
(0.999921 -0.0019277 0)
(0.997872 -0.0012627 0)
(0.993781 -0.000292831 0)
(0.994769 0.00501031 0)
(0.994969 0.0102407 0)
(1.00128 0.0137628 0)
(1.00495 0.0115182 0)
(1.00729 0.0117675 0)
(1.00748 0.00647976 0)
(1.00708 0.00664528 0)
(1.0058 0.00462921 0)
(1.00447 0.00454046 0)
(1.0022 0.004 0)
(1.00072 0.00550579 0)
(0.999263 0.00559324 0)
(1.00324 -0.00140048 0)
(0.991597 -0.00387979 0)
(0.995787 0.00360212 0)
(1.00692 0.0117796 0)
(1.00408 -0.00186772 0)
(1.0007 -0.00198989 0)
(0.998192 -0.00110695 0)
(0.993842 -9.74274e-05 0)
(0.994783 0.00484586 0)
(0.995197 0.0100699 0)
(1.00109 0.013395 0)
(1.00481 0.0112994 0)
(1.00689 0.0115703 0)
(1.00713 0.00658669 0)
(1.00687 0.00671228 0)
(1.00559 0.00487425 0)
(1.00435 0.00487884 0)
(1.00225 0.00422857 0)
(1.00083 0.00566256 0)
(0.999461 0.00588351 0)
(1.00313 -0.00133682 0)
(0.992213 -0.00381978 0)
(0.995222 0.00352877 0)
(1.00636 0.011352 0)
(1.00407 -0.00146996 0)
(1.00127 -0.00199502 0)
(0.998524 -0.00100855 0)
(0.994052 0.000194218 0)
(0.994806 0.00459562 0)
(0.995385 0.00996109 0)
(1.00085 0.0130018 0)
(1.00463 0.0110611 0)
(1.00646 0.011309 0)
(1.00677 0.00685592 0)
(1.00665 0.00657735 0)
(1.00538 0.00518597 0)
(1.00421 0.00505823 0)
(1.00223 0.00464498 0)
(1.00091 0.00603843 0)
(0.999601 0.00632616 0)
(1.00298 -0.0012752 0)
(0.992894 -0.00374969 0)
(0.994707 0.00345611 0)
(1.00575 0.010934 0)
(1.00404 -0.00113062 0)
(1.00163 -0.00195176 0)
(0.998854 -0.000930232 0)
(0.994352 0.000464172 0)
(0.994868 0.00442174 0)
(0.995566 0.00976273 0)
(1.0006 0.012677 0)
(1.00441 0.0107511 0)
(1.00607 0.011132 0)
(1.00638 0.00698688 0)
(1.00644 0.00651819 0)
(1.00522 0.00535826 0)
(1.00411 0.00541899 0)
(1.00234 0.00492649 0)
(1.00105 0.00640134 0)
(0.999772 0.00677497 0)
(1.00279 -0.00120351 0)
(0.993591 -0.00370153 0)
(0.994292 0.00344077 0)
(1.00516 0.0104388 0)
(1.004 -0.000738391 0)
(1.00178 -0.00195959 0)
(0.999156 -0.000817984 0)
(0.994711 0.000698759 0)
(0.994968 0.00432245 0)
(0.995753 0.00951723 0)
(1.00036 0.0124497 0)
(1.00421 0.0103786 0)
(1.00569 0.0109733 0)
(1.00603 0.00708337 0)
(1.00625 0.00664786 0)
(1.00511 0.00542658 0)
(1.00401 0.00584458 0)
(1.00236 0.00518707 0)
(1.0012 0.00645809 0)
(0.999898 0.00692543 0)
(1.00257 -0.00116839 0)
(0.994262 -0.00358239 0)
(0.994012 0.00335994 0)
(1.00459 0.0100299 0)
(1.00396 -0.000489515 0)
(1.00177 -0.00180969 0)
(0.999431 -0.000831852 0)
(0.995058 0.00114966 0)
(0.995126 0.00394411 0)
(0.995971 0.00950675 0)
(1.00015 0.0119769 0)
(1.004 0.0103676 0)
(1.0054 0.0103394 0)
(1.00571 0.00770239 0)
(1.00607 0.00619702 0)
(1.00503 0.00620779 0)
(1.00397 0.0059582 0)
(1.00242 0.00618969 0)
(1.00133 0.00652508 0)
(1.00007 0.00699375 0)
(1.00235 -0.00111547 0)
(0.99488 -0.00349128 0)
(0.993871 0.00332186 0)
(1.00408 0.00959499 0)
(1.00392 -0.000258921 0)
(1.00164 -0.00165447 0)
(0.999667 -0.000862897 0)
(0.995384 0.0014596 0)
(0.995307 0.00390599 0)
(0.996222 0.00914697 0)
(1 0.0117899 0)
(1.00381 0.00995159 0)
(1.00515 0.0101946 0)
(1.0054 0.00769627 0)
(1.00599 0.0064702 0)
(1.00505 0.0061439 0)
(1.004 0.00633853 0)
(1.00252 0.00621442 0)
(1.0014 0.00682897 0)
(1.00028 0.00733614 0)
(1.00213 -0.00105432 0)
(0.995422 -0.0034257 0)
(0.99386 0.00333562 0)
(1.00365 0.00909567 0)
(1.00386 2.96023e-05 0)
(1.00146 -0.0016057 0)
(0.99986 -0.000765443 0)
(0.99568 0.001576 0)
(0.9955 0.00400085 0)
(0.996516 0.00868457 0)
(0.999886 0.0118109 0)
(1.00367 0.00941762 0)
(1.00497 0.010053 0)
(1.00517 0.00781416 0)
(1.00583 0.00688824 0)
(1.00505 0.00592263 0)
(1.00401 0.00654143 0)
(1.00259 0.00614613 0)
(1.00164 0.00703932 0)
(1.00046 0.00760244 0)
(1.00192 -0.00104047 0)
(0.995876 -0.00327622 0)
(0.993962 0.00324024 0)
(1.0033 0.00873737 0)
(1.0038 0.000160274 0)
(1.00125 -0.00129787 0)
(1.00002 -0.000947573 0)
(0.995924 0.00218477 0)
(0.995718 0.003575 0)
(0.996832 0.00871506 0)
(0.999825 0.0111689 0)
(1.00353 0.00974924 0)
(1.00485 0.00921719 0)
(1.00496 0.00831689 0)
(1.0057 0.00658401 0)
(1.00507 0.00694468 0)
(1.00407 0.00657729 0)
(1.00269 0.00733455 0)
(1.00178 0.0071453 0)
(1.00065 0.00748693 0)
(1.00173 -0.000997534 0)
(0.996255 -0.00316534 0)
(0.994144 0.00319574 0)
(1.00302 0.00834465 0)
(1.00372 0.000301462 0)
(1.00105 -0.00106934 0)
(1.00017 -0.000968952 0)
(0.996126 0.00233518 0)
(0.995922 0.00375756 0)
(0.997156 0.00814439 0)
(0.999833 0.0111607 0)
(1.00338 0.00923469 0)
(1.00474 0.00906009 0)
(1.0048 0.00831191 0)
(1.00565 0.00701191 0)
(1.00513 0.00670989 0)
(1.00418 0.00676544 0)
(1.00283 0.00716961 0)
(1.0018 0.00748923 0)
(1.00085 0.00786209 0)
(1.00156 -0.00093498 0)
(0.996564 -0.00310494 0)
(0.994373 0.00322897 0)
(1.00282 0.00787589 0)
(1.00363 0.000501175 0)
(1.00088 -0.000966872 0)
(1.00027 -0.00085565 0)
(0.996338 0.00226616 0)
(0.996107 0.00412875 0)
(0.997509 0.00743683 0)
(0.999827 0.0112059 0)
(1.00326 0.00882776 0)
(1.0047 0.0090268 0)
(1.00468 0.00816868 0)
(1.00547 0.00739321 0)
(1.0051 0.00637426 0)
(1.00424 0.00702692 0)
(1.00296 0.00698867 0)
(1.00205 0.00782005 0)
(1.001 0.00824628 0)
(1.00142 -0.000956927 0)
(0.996798 -0.00289163 0)
(0.994646 0.00305286 0)
(1.00265 0.00762938 0)
(1.00352 0.000500638 0)
(1.00072 -0.000542793 0)
(1.00039 -0.00116232 0)
(0.996515 0.00298532 0)
(0.996296 0.00359435 0)
(0.997837 0.00775967 0)
(0.999893 0.0101723 0)
(1.00313 0.00952024 0)
(1.00463 0.00804818 0)
(1.00458 0.00874098 0)
(1.00537 0.00706126 0)
(1.00514 0.00748033 0)
(1.00435 0.00705107 0)
(1.00309 0.00815562 0)
(1.00216 0.00784707 0)
(1.00113 0.00808899 0)
(1.00129 -0.000885036 0)
(0.996989 -0.0028286 0)
(0.99493 0.00305611 0)
(1.00254 0.00722384 0)
(1.00339 0.000616291 0)
(1.00059 -0.000356532 0)
(1.0005 -0.000991528 0)
(0.996678 0.00277744 0)
(0.996485 0.00409775 0)
(0.998145 0.00704544 0)
(0.999984 0.0102039 0)
(1.00299 0.00909915 0)
(1.00461 0.0080954 0)
(1.00453 0.00849892 0)
(1.00529 0.00747602 0)
(1.00515 0.00722686 0)
(1.00447 0.00717727 0)
(1.00325 0.00793547 0)
(1.00214 0.00823317 0)
(1.00129 0.00850844 0)
(1.00118 -0.00085794 0)
(0.997153 -0.00271287 0)
(0.995206 0.00300203 0)
(1.00248 0.00688576 0)
(1.00324 0.000704936 0)
(1.0005 -0.00016252 0)
(1.00058 -0.00090374 0)
(0.996895 0.00260012 0)
(0.996637 0.00462104 0)
(0.998465 0.00625684 0)
(1.00009 0.0103228 0)
(1.00287 0.008758 0)
(1.00456 0.0082185 0)
(1.0045 0.00797887 0)
(1.00515 0.00767636 0)
(1.00513 0.00672725 0)
(1.00456 0.00742902 0)
(1.00343 0.00766125 0)
(1.00239 0.00889516 0)
(1.00133 0.00925689 0)
(1.00111 -0.000873396 0)
(0.997274 -0.00249514 0)
(0.995489 0.00278883 0)
(1.00242 0.00669552 0)
(1.00308 0.000674616 0)
(1.0004 0.000194049 0)
(1.00069 -0.000990212 0)
(0.997104 0.0029006 0)
(0.996804 0.00446365 0)
(0.998764 0.00634074 0)
(1.00024 0.00966249 0)
(1.00273 0.0091499 0)
(1.00451 0.00772702 0)
(1.00446 0.00820947 0)
(1.00505 0.00742947 0)
(1.00515 0.00735631 0)
(1.0047 0.00744219 0)
(1.00369 0.00820986 0)
(1.00261 0.00894125 0)
(1.00137 0.0092383 0)
(1.00104 -0.000787923 0)
(0.997386 -0.00245408 0)
(0.995764 0.00280404 0)
(1.00235 0.00630917 0)
(1.00293 0.000780624 0)
(1.00033 0.000337634 0)
(1.0008 -0.00083327 0)
(0.997326 0.00283066 0)
(0.996965 0.00471484 0)
(0.999038 0.00608172 0)
(1.00042 0.0093664 0)
(1.00261 0.00920245 0)
(1.00444 0.00769493 0)
(1.00445 0.00806722 0)
(1.005 0.00764786 0)
(1.00517 0.00765503 0)
(1.00482 0.00754719 0)
(1.00391 0.00826305 0)
(1.00275 0.00869875 0)
(1.00142 0.00901728 0)
(1.00097 -0.000811045 0)
(0.997494 -0.00225033 0)
(0.996026 0.00261952 0)
(1.0023 0.00609095 0)
(1.00276 0.000812035 0)
(1.00025 0.000570525 0)
(1.00091 -0.000744662 0)
(0.997572 0.00282224 0)
(0.997123 0.00487269 0)
(0.999304 0.00595102 0)
(1.00062 0.00901113 0)
(1.0025 0.00923438 0)
(1.00435 0.00766997 0)
(1.00448 0.00795416 0)
(1.00498 0.00778515 0)
(1.00517 0.00774827 0)
(1.0049 0.00763704 0)
(1.00408 0.00814852 0)
(1.0029 0.00851122 0)
(1.00148 0.00892106 0)
(1.00092 -0.000774743 0)
(0.997594 -0.00211804 0)
(0.996281 0.0024949 0)
(1.00225 0.00583224 0)
(1.0026 0.000848391 0)
(1.00019 0.000760939 0)
(1.00102 -0.000568367 0)
(0.997826 0.00276157 0)
(0.997284 0.00505967 0)
(0.999543 0.0058222 0)
(1.00085 0.00860507 0)
(1.00242 0.0092517 0)
(1.00426 0.00769177 0)
(1.00451 0.00788953 0)
(1.00498 0.00779573 0)
(1.00517 0.0078227 0)
(1.00497 0.00770516 0)
(1.00423 0.00807277 0)
(1.00307 0.00842757 0)
(1.00159 0.00888591 0)
(1.00086 -0.000740823 0)
(0.997697 -0.00199906 0)
(0.996523 0.00240434 0)
(1.0022 0.0055178 0)
(1.00244 0.000966792 0)
(1.00012 0.000888216 0)
(1.00113 -0.000417272 0)
(0.998105 0.00267237 0)
(0.997445 0.00527498 0)
(0.999759 0.00570584 0)
(1.0011 0.00830739 0)
(1.00237 0.00918051 0)
(1.00415 0.00777857 0)
(1.00454 0.00776696 0)
(1.005 0.00777925 0)
(1.00519 0.00785313 0)
(1.00502 0.00780631 0)
(1.00437 0.00805861 0)
(1.00325 0.00839523 0)
(1.0017 0.00882828 0)
(1.00081 -0.000751765 0)
(0.997795 -0.0018094 0)
(0.996759 0.00221452 0)
(1.00215 0.00531251 0)
(1.00229 0.00105488 0)
(1.00006 0.00100875 0)
(1.00123 -0.000219055 0)
(0.998396 0.00263366 0)
(0.997614 0.005419 0)
(0.999954 0.00570973 0)
(1.00135 0.0079339 0)
(1.00235 0.00909064 0)
(1.00404 0.00781058 0)
(1.00456 0.00771669 0)
(1.00504 0.00769905 0)
(1.00523 0.00790511 0)
(1.00508 0.00788978 0)
(1.00449 0.00810312 0)
(1.00341 0.00834097 0)
(1.00182 0.00870194 0)
(1.00076 -0.000706408 0)
(0.997895 -0.00170332 0)
(0.996986 0.00214848 0)
(1.0021 0.00498617 0)
(1.00214 0.0011599 0)
(0.999997 0.00113501 0)
(1.00132 -1.5165e-06 0)
(0.998699 0.00253891 0)
(0.997791 0.0055798 0)
(1.00012 0.00569958 0)
(1.0016 0.00758267 0)
(1.00237 0.00891319 0)
(1.00393 0.00790633 0)
(1.00457 0.00765674 0)
(1.00509 0.00766798 0)
(1.0053 0.00789333 0)
(1.00514 0.00797285 0)
(1.0046 0.00811343 0)
(1.00355 0.00827812 0)
(1.00193 0.00855931 0)
(1.00072 -0.0007026 0)
(0.997996 -0.0015431 0)
(0.997203 0.00199096 0)
(1.00205 0.00470198 0)
(1.00201 0.00131702 0)
(0.999932 0.00125456 0)
(1.0014 0.00019333 0)
(0.999015 0.0024594 0)
(0.997982 0.005692 0)
(1.00026 0.00574619 0)
(1.00186 0.00726662 0)
(1.00243 0.008757 0)
(1.00383 0.00799677 0)
(1.00457 0.00763108 0)
(1.00515 0.00761971 0)
(1.00539 0.00781137 0)
(1.00521 0.00799791 0)
(1.00468 0.00811846 0)
(1.00367 0.00824467 0)
(1.00205 0.00843729 0)
(1.00067 -0.000687513 0)
(0.998091 -0.00140815 0)
(0.997413 0.00189371 0)
(1.00201 0.00442959 0)
(1.00188 0.00141589 0)
(0.999867 0.00137678 0)
(1.00147 0.000409453 0)
(0.999336 0.00241604 0)
(0.998188 0.00578579 0)
(1.00037 0.00582877 0)
(1.00211 0.00695763 0)
(1.00252 0.00851951 0)
(1.00375 0.00801011 0)
(1.00456 0.00762046 0)
(1.0052 0.0075765 0)
(1.00549 0.0077384 0)
(1.00531 0.0080295 0)
(1.00477 0.00814075 0)
(1.00377 0.00825006 0)
(1.00215 0.00833676 0)
(1.00063 -0.000665045 0)
(0.998189 -0.00128016 0)
(0.997615 0.00179552 0)
(1.00197 0.00410144 0)
(1.00177 0.00154315 0)
(0.999804 0.00153755 0)
(1.00152 0.000630591 0)
(0.999665 0.00236156 0)
(0.998411 0.00581235 0)
(1.00047 0.00591073 0)
(1.00233 0.00670041 0)
(1.00266 0.00825173 0)
(1.00369 0.00806085 0)
(1.00455 0.00763869 0)
(1.00525 0.00757523 0)
(1.00562 0.00767075 0)
(1.00543 0.00798992 0)
(1.00486 0.00808541 0)
(1.00385 0.00822534 0)
(1.00222 0.0082251 0)
(1.00059 -0.000657502 0)
(0.998279 -0.0011487 0)
(0.997807 0.00168241 0)
(1.00194 0.00382823 0)
(1.00167 0.00165307 0)
(0.99974 0.00168885 0)
(1.00157 0.000845805 0)
(0.999987 0.00231147 0)
(0.998653 0.00579897 0)
(1.00055 0.00603465 0)
(1.00255 0.00650233 0)
(1.00283 0.00798579 0)
(1.00366 0.00805592 0)
(1.00452 0.00763926 0)
(1.00528 0.00758656 0)
(1.00572 0.00756195 0)
(1.00554 0.00789513 0)
(1.00497 0.00804401 0)
(1.00393 0.00822611 0)
(1.00229 0.00819236 0)
(1.00055 -0.000635524 0)
(0.998372 -0.00103947 0)
(0.997993 0.00162803 0)
(1.00191 0.00352175 0)
(1.00158 0.00172508 0)
(0.99968 0.0018525 0)
(1.0016 0.0010826 0)
(1.00031 0.00228414 0)
(0.998918 0.00577334 0)
(1.00062 0.00614742 0)
(1.00272 0.00634151 0)
(1.00302 0.00765493 0)
(1.00366 0.00800394 0)
(1.00451 0.00764399 0)
(1.00531 0.00760434 0)
(1.00583 0.00747767 0)
(1.0057 0.00786447 0)
(1.00511 0.00802452 0)
(1.00402 0.00822469 0)
(1.00235 0.00818187 0)
(1.00052 -0.000626845 0)
(0.998458 -0.00091308 0)
(0.998163 0.00152424 0)
(1.00189 0.00323265 0)
(1.00152 0.00179698 0)
(0.999627 0.00204201 0)
(1.00161 0.00132688 0)
(1.00062 0.00226773 0)
(0.999199 0.00568076 0)
(1.00068 0.00623356 0)
(1.00287 0.006235 0)
(1.00324 0.00736322 0)
(1.00371 0.00796067 0)
(1.00451 0.0076401 0)
(1.00531 0.00761331 0)
(1.00592 0.00745148 0)
(1.00585 0.00777983 0)
(1.00524 0.0079321 0)
(1.00411 0.00814299 0)
(1.00238 0.00812775 0)
(1.00048 -0.00060098 0)
(0.998543 -0.000824539 0)
(0.998327 0.00148259 0)
(1.00187 0.00295717 0)
(1.00147 0.00182123 0)
(0.999581 0.00221139 0)
(1.00161 0.00157975 0)
(1.00092 0.00227314 0)
(0.999501 0.00558287 0)
(1.00074 0.00630948 0)
(1.00299 0.0062007 0)
(1.00346 0.00706418 0)
(1.00378 0.00783157 0)
(1.00451 0.00759705 0)
(1.00533 0.00763197 0)
(1.006 0.0074133 0)
(1.00599 0.00766597 0)
(1.00539 0.00786285 0)
(1.00423 0.00805818 0)
(1.00244 0.00813289 0)
(1.00045 -0.000597324 0)
(0.998623 -0.000706201 0)
(0.998475 0.0014043 0)
(1.00186 0.00268086 0)
(1.00144 0.00183429 0)
(0.999549 0.00239191 0)
(1.0016 0.00186737 0)
(1.0012 0.00230991 0)
(0.999816 0.00545719 0)
(1.00081 0.00635584 0)
(1.00307 0.00618763 0)
(1.00368 0.00678711 0)
(1.0039 0.00768934 0)
(1.00455 0.00758847 0)
(1.00534 0.0076175 0)
(1.00606 0.00739646 0)
(1.00614 0.00758847 0)
(1.00554 0.00779022 0)
(1.00436 0.00796263 0)
(1.0025 0.00812366 0)
(1.00041 -0.000561963 0)
(0.998703 -0.000639093 0)
(0.998614 0.00137421 0)
(1.00184 0.00240987 0)
(1.00143 0.0018279 0)
(0.99953 0.0025444 0)
(1.00158 0.00214845 0)
(1.00146 0.00236339 0)
(1.00014 0.00531772 0)
(1.0009 0.00636875 0)
(1.00312 0.00620914 0)
(1.00389 0.00655419 0)
(1.00405 0.00751208 0)
(1.00459 0.007522 0)
(1.00536 0.007579 0)
(1.00611 0.00742468 0)
(1.00627 0.00748502 0)
(1.0057 0.0077062 0)
(1.00453 0.00786318 0)
(1.00258 0.00806286 0)
(1.00038 -0.000549901 0)
(0.998777 -0.000545005 0)
(0.998737 0.00132145 0)
(1.00183 0.00215468 0)
(1.00144 0.0017821 0)
(0.99953 0.00268459 0)
(1.00155 0.00244005 0)
(1.0017 0.0024507 0)
(1.00048 0.00518573 0)
(1.001 0.00635778 0)
(1.00314 0.00625865 0)
(1.00407 0.00636684 0)
(1.00422 0.00730792 0)
(1.00466 0.00747184 0)
(1.00539 0.00755354 0)
(1.00613 0.00743013 0)
(1.00638 0.00737665 0)
(1.00585 0.00764548 0)
(1.00469 0.00773837 0)
(1.00266 0.00796427 0)
(1.00035 -0.000527165 0)
(0.998847 -0.000472355 0)
(0.99885 0.00128957 0)
(1.00182 0.00193715 0)
(1.00147 0.00171833 0)
(0.999544 0.0028178 0)
(1.0015 0.00271657 0)
(1.00191 0.00253919 0)
(1.00082 0.00503162 0)
(1.00113 0.00629983 0)
(1.00316 0.00631454 0)
(1.00424 0.00624374 0)
(1.00442 0.00709934 0)
(1.00476 0.00739453 0)
(1.00543 0.00747693 0)
(1.00615 0.00741482 0)
(1.00649 0.00731974 0)
(1.006 0.00757416 0)
(1.00484 0.0076146 0)
(1.00277 0.00787452 0)
(1.00033 -0.00048939 0)
(0.998916 -0.000423385 0)
(0.998952 0.00128945 0)
(1.0018 0.00172659 0)
(1.00151 0.0016751 0)
(0.999579 0.00294885 0)
(1.00146 0.00298542 0)
(1.00208 0.00263744 0)
(1.00115 0.00486 0)
(1.00129 0.00619699 0)
(1.00316 0.00635201 0)
(1.00436 0.00615752 0)
(1.00462 0.00686682 0)
(1.00488 0.00727998 0)
(1.00549 0.00738978 0)
(1.00617 0.00741054 0)
(1.00658 0.00726931 0)
(1.00612 0.00747435 0)
(1.005 0.00750987 0)
(1.00289 0.00775786 0)
(1.0003 -0.000467615 0)
(0.998986 -0.000367107 0)
(0.999044 0.00129164 0)
(1.00178 0.0015802 0)
(1.00157 0.00162213 0)
(0.999637 0.00303107 0)
(1.00141 0.00320959 0)
(1.00222 0.00272784 0)
(1.00148 0.00469173 0)
(1.00146 0.0060637 0)