/*--------------------------------*- C++ -*----------------------------------*\
| =========                 |                                                 |
| \\      /  F ield         | OpenFOAM: The Open Source CFD Toolbox           |
|  \\    /   O peration     | Version:  v2012                                 |
|   \\  /    A nd           | Website:  www.openfoam.com                      |
|    \\/     M anipulation  |                                                 |
\*---------------------------------------------------------------------------*/
FoamFile
{
    version     2.0;
    format      ascii;
    class       volScalarField;
    location    "9";
    object      p;
}
// * * * * * * * * * * * * * * * * * * * * * * * * * * * * * * * * * * * * * //

dimensions      [0 2 -2 0 0 0 0];


internalField   nonuniform List<scalar> 
7000
(
6.73991e-11
-0.00340989
-0.00245557
0.00403423
-0.000434758
0.00115976
0.000725545
0.00414
0.00497977
0.006642
0.00778174
0.00941918
0.0100311
0.0119261
0.0135919
0.0164494
0.0189109
0.0224454
0.0258847
0.0323679
-3.69855e-06
-0.00339994
-0.00244693
0.0039924
-0.000413944
0.00115333
0.000731799
0.00415626
0.00495294
0.00664531
0.00777352
0.00941977
0.0100308
0.0119213
0.0135951
0.0164299
0.0189248
0.0224017
0.0259146
0.0321022
-8.1085e-06
-0.00338809
-0.00243943
0.00393645
-0.000400057
0.00114764
0.000743915
0.00416624
0.00492293
0.00665156
0.00775848
0.00942537
0.0100255
0.0119185
0.013592
0.0164055
0.0189317
0.0223412
0.0259307
0.0316497
-1.2927e-05
-0.00337596
-0.00243267
0.00388255
-0.000379671
0.0011477
0.000762736
0.00416567
0.00489706
0.00665463
0.00773853
0.0094331
0.0100166
0.011915
0.0135858
0.0163761
0.0189336
0.0222732
0.0259081
0.0311798
-1.88604e-05
-0.00336269
-0.00242268
0.00383242
-0.000358983
0.00115388
0.000789051
0.00415507
0.00487545
0.006651
0.00771374
0.00943894
0.0100075
0.0119072
0.0135819
0.0163395
0.0189372
0.0221928
0.0258533
0.0307327
-2.61793e-05
-0.00334727
-0.00240813
0.00378582
-0.000338252
0.0011652
0.00082227
0.00413633
0.00485665
0.00664127
0.00768616
0.00944231
0.010001
0.0118947
0.013582
0.0162964
0.0189425
0.0220989
0.0257736
0.0303084
-3.48086e-05
-0.00332903
-0.00238897
0.00374288
-0.000317561
0.00118001
0.000860643
0.00411239
0.00483985
0.00662825
0.00765846
0.00944383
0.00999835
0.0118774
0.0135866
0.016247
0.0189469
0.0219941
0.0256701
0.0298981
-4.44732e-05
-0.00330742
-0.00236532
0.00370294
-0.000297139
0.00119656
0.000902585
0.0040864
0.00482468
0.00661438
0.00763203
0.00944352
0.00999983
0.0118553
0.0135951
0.0161914
0.0189484
0.0218806
0.0255415
0.0294948
-5.47782e-05
-0.0032821
-0.00233745
0.00366471
-0.000277224
0.00121344
0.000947341
0.00406037
0.00481072
0.00660065
0.00760711
0.00944074
0.0100049
0.0118278
0.0136063
0.01613
0.0189448
0.02176
0.0253861
0.0290945
-6.5326e-05
-0.00325295
-0.00230578
0.00362701
-0.000257982
0.00122973
0.00099466
0.00403519
0.00479776
0.00658694
0.00758342
0.00943446
0.0100126
0.0117944
0.0136193
0.0160632
0.0189336
0.0216333
0.0252036
0.0286942
-7.58247e-05
-0.00322013
-0.00227077
0.00358895
-0.000239455
0.00124486
0.00104445
0.00401103
0.00478597
0.00657283
0.00756063
0.00942358
0.0100224
0.0117545
0.0136326
0.0159921
0.0189122
0.021501
0.0249945
0.0282914
-8.61327e-05
-0.00318402
-0.00223276
0.00354994
-0.000221544
0.0012585
0.00109663
0.00398778
0.00477559
0.00655783
0.00753858
0.00940718
0.0100336
0.0117083
0.0136449
0.0159178
0.0188782
0.0213633
0.02476
0.0278832
-9.62391e-05
-0.00314509
-0.00219211
0.0035096
-0.000203875
0.00127047
0.00115102
0.00396521
0.00476671
0.00654154
0.00751733
0.00938468
0.010046
0.0116561
0.0136548
0.0158415
0.0188292
0.0212202
0.0245019
0.0274673
-0.000106214
-0.00310383
-0.00214911
0.00346762
-0.00018604
0.00128056
0.00120747
0.0039431
0.00475917
0.00652353
0.00749718
0.00935588
0.0100592
0.0115987
0.0136604
0.0157646
0.0187634
0.0210708
0.024222
0.027042
-0.000116155
-0.00306068
-0.00210407
0.00342384
-0.000167596
0.00128862
0.00126581
0.0039212
0.00475264
0.00650334
0.00747856
0.00932093
0.0100726
0.0115371
0.0136597
0.0156879
0.0186797
0.0209139
0.0239224
0.0266061
-0.000126158
-0.00301601
-0.0020572
0.00337809
-0.000148133
0.0012945
0.00132596
0.0038993
0.00474678
0.00648051
0.00746178
0.00928019
0.0100856
0.011473
0.0136506
0.0156121
0.0185781
0.0207476
0.0236048
0.026159
-0.000136294
-0.00297013
-0.00200868
0.00333032
-0.000127306
0.00129809
0.00138783
0.0038772
0.00474131
0.00645467
0.00744703
0.0092343
0.0100969
0.0114078
0.0136317
0.015537
0.0184588
0.0205702
0.023271
0.0257005
-0.00014661
-0.0029233
-0.00195865
0.00328047
-0.00010483
0.00129933
0.00145131
0.00385472
0.00473601
0.00642557
0.00743433
0.00918416
0.0101051
0.0113429
0.0136017
0.0154619
0.0183225
0.0203802
0.0229226
0.0252309
-0.000157125
-0.00287572
-0.00190719
0.00322856
-8.04738e-05
0.00129817
0.0015163
0.0038317
0.0047307
0.0063931
0.00742347
0.00913096
0.0101086
0.0112791
0.0135597
0.0153856
0.0181699
0.0201763
0.0225612
0.0247506
-0.00016784
-0.00282757
-0.0018544
0.00317461
-5.40521e-05
0.0012946
0.00158264
0.00380808
0.00472519
0.00635722
0.00741384
0.00907608
0.0101058
0.0112171
0.0135058
0.0153065
0.0180019
0.0199574
0.0221882
0.0242604
-0.000178731
-0.00277894
-0.0018003
0.00311866
-2.54303e-05
0.00128862
0.00165011
0.00378388
0.00471929
0.00631812
0.00740435
0.00902083
0.0100959
0.0111569
0.01344
0.015223
0.0178191
0.0197222
0.021805
0.0237619
-0.000189761
-0.00272989
-0.00174489
0.00306077
5.4741e-06
0.00128024
0.00171851
0.00375922
0.00471265
0.00627635
0.0073938
0.00896614
0.0100783
0.0110981
0.0133631
0.0151333
0.0176227
0.0194699
0.0214122
0.0232566
-0.00020088
-0.00268042
-0.00168815
0.00300099
3.87097e-05
0.00126951
0.00178762
0.00373439
0.00470471
0.00623268
0.00738101
0.00891282
0.0100523
0.0110398
0.0132754
0.0150344
0.0174139
0.0192016
0.0210103
0.0227455
-0.000212031
-0.00263052
-0.00163004
0.00293941
7.43112e-05
0.00125651
0.00185713
0.00370987
0.00469484
0.00618802
0.00736491
0.00886153
0.0100177
0.0109805
0.0131792
0.0149237
0.0171903
0.01892
0.0206022
0.0222288
-0.000223149
-0.00258015
-0.00157051
0.00287611
0.000112316
0.00124142
0.0019266
0.00368626
0.00468231
0.00614334
0.00734457
0.00881229
0.00997489
0.0109165
0.0130777
0.0148039
0.0169484
0.0186217
0.0201924
0.0217098
-0.000234168
-0.00252929
-0.00150951
0.00281118
0.000152737
0.00122455
0.00199544
0.00366451
0.00466626
0.0060993
0.00731929
0.00876397
0.00992572
0.0108459
0.012966
0.0146784
0.0166926
0.0183016
0.0197802
0.0211921
-0.000245022
-0.00247794
-0.00144704
0.00274473
0.000195564
0.00120628
0.00206288
0.00364557
0.00464588
0.00605646
0.00728852
0.00871575
0.00987056
0.0107702
0.0128416
0.0145412
0.0164277
0.0179658
0.0193643
0.0206731
-0.000255635
-0.0024261
-0.0013831
0.00267689
0.000240835
0.00118706
0.00212809
0.00363017
0.00462049
0.00601519
0.00725235
0.00866689
0.0098112
0.0106849
0.0127086
0.0143913
0.0161499
0.0176131
0.0189665
0.020157
-0.00026592
-0.00237382
-0.00131764
0.00260778
0.000288382
0.00116758
0.00219009
0.00361883
0.00458963
0.00597526
0.00721185
0.00861499
0.00974983
0.0105874
0.0125647
0.0142329
0.0158774
0.0172353
0.0184873
0.0196637
-0.000275821
-0.00232111
-0.00125081
0.00253769
0.000337893
0.00114847
0.00224805
0.00361215
0.00455281
0.0059368
0.00716656
0.00856083
0.00968103
0.010489
0.0123942
0.0140553
0.0155926
0.0168629
0.0179335
0.0191431
-0.000285197
-0.00226804
-0.00118261
0.00246672
0.000389198
0.00113068
0.00230066
0.0036107
0.00450985
0.00589929
0.00711824
0.00849958
0.00961052
0.0103817
0.0122143
0.0138573
0.0152895
0.0164937
0.0176753
0.0186217
-0.000294007
-0.00221457
-0.00111309
0.00239506
0.000441579
0.00111525
0.00234711
0.00361485
0.00446073
0.00586099
0.00707057
0.00842644
0.00954051
0.0102611
0.0120342
0.0136599
0.0149943
0.0160878
0.0171402
0.01812
-0.000302234
-0.00216083
-0.00104264
0.00232338
0.000494327
0.00110209
0.00238761
0.00362373
0.00440711
0.00581979
0.00702373
0.00834494
0.00946167
0.0101452
0.011781
0.0134373
0.0146632
0.0156932
0.0167497
0.0176243
-0.000309484
-0.00210708
-0.000971076
0.00225166
0.000547414
0.00109217
0.00242102
0.00363573
0.00435027
0.00577483
0.00697996
0.00824947
0.00938261
0.0100163
0.01158
0.0132082
0.0143849
0.0152003
0.0161623
0.0171438
-0.000315974
-0.00205296
-0.000898791
0.00218027
0.000599254
0.00108694
0.00244678
0.0036538
0.00428708
0.00572579
0.00693924
0.00814722
0.00928809
0.00989589
0.0113639
0.0129156
0.0140848
0.0147637
0.0156815
0.0166508
-0.000321741
-0.0019988
-0.000826403
0.00211032
0.000648725
0.00108637
0.00246514
0.00367936
0.00422129
0.00566891
0.00689999
0.00804351
0.00917079
0.00974935
0.0109896
0.0126132
0.0136459
0.0145135
0.0153142
0.0161301
-0.000325987
-0.00194503
-0.000753548
0.00204169
0.000697424
0.0010895
0.00247662
0.00363172
0.00416268
0.00560123
0.00686473
0.00792644
0.00905039
0.00963029
0.0108035
0.0123019
0.0133299
0.0140048
0.0146916
0.0156537
-0.000329293
-0.00189092
-0.000681323
0.0019752
0.000742555
0.00109823
0.0024805
0.00365526
0.00410203
0.00552437
0.00682973
0.00781076
0.00890246
0.00950151
0.0106436
0.0119822
0.0129761
0.0135992
0.0142273
0.0151606
-0.000331686
-0.00183681
-0.000610443
0.0019123
0.000782523
0.00111269
0.00247831
0.00369547
0.00404239
0.00543768
0.00678945
0.00769886
0.00873177
0.00928391
0.0103364
0.0116481
0.0126112
0.0132653
0.0139385
0.0146491
-0.000332007
-0.00178314
-0.000540209
0.00185228
0.000821854
0.00112854
0.0024739
0.00369856
0.00400089
0.00533413
0.00674511
0.0075813
0.00855999
0.00914847
0.0100755
0.0112913
0.0122433
0.0127642
0.0132675
0.0141895
-0.000331371
-0.00172876
-0.000472543
0.00179615
0.00085638
0.00114995
0.00246321
0.00371207
0.00395748
0.00522411
0.00669445
0.00747041
0.00835849
0.00892397
0.0097935
0.0109367
0.0118446
0.0123462
0.012819
0.0137162
-0.000329774
-0.0016739
-0.000408322
0.00174521
0.000884181
0.00117723
0.00244823
0.00373043
0.00391505
0.00511464
0.00662914
0.00734308
0.00812814
0.00870931
0.00950926
0.0105844
0.0114197
0.0120165
0.0126396
0.0132361
-0.000325523
-0.00161928
-0.00034553
0.00169796
0.000914577
0.00120096
0.00243576
0.00371749
0.00389025
0.00498799
0.00654981
0.0072447
0.00790655
0.0084773
0.00923558
0.0102048
0.0110111
0.0114717
0.0118967
0.01279
-0.000320801
-0.00156306
-0.00028773
0.00165587
0.000939206
0.00122939
0.00241885
0.00371197
0.00385959
0.00486027
0.00645442
0.00712484
0.00768238
0.00822931
0.00893407
0.00982444
0.0105769
0.011004
0.0114258
0.012352
-0.000314909
-0.00150575
-0.000235599
0.00161932
0.000956761
0.00126176
0.00239884
0.00371254
0.00382545
0.00473335
0.00633606
0.0069941
0.00745718
0.00796595
0.00860447
0.00943899
0.0101022
0.0106621
0.011295
0.0119005
-0.000305933
-0.00144826
-0.000184429
0.00158557
0.000985073
0.00128197
0.00238483
0.0036856
0.003803
0.00459474
0.00620629
0.00689803
0.00723861
0.007677
0.00828519
0.00902506
0.00962746
0.0100627
0.0105109
0.0114746
-0.000297431
-0.00138827
-0.000140523
0.00155599
0.00101027
0.00130113
0.0023691
0.00365313
0.00378076
0.00445251
0.00605983
0.00679146
0.00702285
0.00737455
0.00793022
0.00860123
0.00912536
0.0094602
0.00998944
0.0111582
-0.000287042
-0.00132688
-0.000101135
0.00153019
0.00103152
0.00132213
0.00234617
0.00362301
0.00375645
0.004309
0.00588957
0.00667004
0.00681421
0.00706833
0.00754902
0.008177
0.00862973
0.00895077
0.00955921
0.0107895
-0.000274783
-0.00126398
-6.54144e-05
0.0015056
0.00106207
0.00133979
0.00231703
0.00358122
0.0037312
0.00416722
0.00569918
0.00653555
0.0066119
0.00675866
0.00715395
0.00774259
0.00817781
0.0085019
0.00910501
0.0103556
-0.000262144
-0.00119903
-3.59563e-05
0.00148169
0.00108609
0.0013562
0.00228304
0.0035282
0.00370593
0.00403015
0.00548655
0.00638318
0.00641523
0.00645253
0.00675095
0.00730569
0.00774946
0.00805724
0.00863687
0.00992231
-0.000247641
-0.00113272
-7.03853e-06
0.00145597
0.00111696
0.00137428
0.00224402
0.00346353
0.00367886
0.00389696
0.00525696
0.00621253
0.00622093
0.00615163
0.0063496
0.00686089
0.00731467
0.00761889
0.00819143
0.00951253
-0.000231983
-0.00106486
9.02775e-06
0.00142654
0.00115104
0.00139354
0.00219987
0.00338773
0.00364704
0.00377146
0.00501592
0.00601798
0.00602229
0.00585894
0.00595328
0.00640325
0.00687028
0.00720009
0.00778791
0.00911981
-0.000214719
-0.000996163
3.48255e-05
0.00139423
0.00117997
0.00141357
0.00215485
0.00330175
0.0036065
0.00365375
0.00476481
0.00579692
0.00582058
0.00557676
0.00556583
0.00593888
0.00641755
0.00679565
0.00740495
0.00874078
-0.00019599
-0.000926311
5.98668e-05
0.00135704
0.00120615
0.00143656
0.00210903
0.00320355
0.00355521
0.00354533
0.00450847
0.0055506
0.00561245
0.00530199
0.00518916
0.00547294
0.00595332
0.00639003
0.00704573
0.00838121
-0.000175552
-0.000855841
8.43521e-05
0.00131617
0.0012274
0.00145974
0.00206367
0.00309699
0.00349201
0.00344388
0.00424986
0.00527987
0.00539266
0.00503255
0.00482601
0.00501186
0.00548215
0.00598124
0.00669244
0.008038
-0.000153274
-0.000784845
0.0001085
0.00127223
0.0012414
0.00148157
0.00202083
0.00298336
0.00341378
0.00334696
0.00399592
0.00498814
0.00515838
0.00476515
0.00447541
0.00456281
0.00500661
0.00555877
0.00634037
0.00770645
-0.000129152
-0.000713208
0.000131993
0.00122741
0.00124594
0.00149786
0.00197946
0.00286398
0.00332018
0.00325361
0.00375151
0.00467579
0.00490454
0.00449887
0.00413846
0.00413056
0.00453205
0.00512385
0.00597349
0.00738047
-0.000104028
-0.000640747
0.000154912
0.00118156
0.00124626
0.00150807
0.00194485
0.00273871
0.00321087
0.00315817
0.00351725
0.00434691
0.00462985
0.00423212
0.00381275
0.00371519
0.00406194
0.00467499
0.00559095
0.00705402
-7.69303e-05
-0.000568451
0.000178697
0.00113257
0.00121257
0.00151255
0.00191684
0.00261436
0.00308915
0.0030588
0.00329563
0.0040082
0.00433233
0.00396093
0.00349651
0.00331539
0.00359632
0.00421964
0.00519413
0.00672409
-4.67631e-05
-0.000496918
0.000204412
0.00108236
0.00121058
0.00150499
0.00185963
0.00249065
0.00296306
0.00295624
0.00308882
0.00366602
0.00401114
0.00368263
0.00318611
0.00293131
0.00314271
0.00376618
0.00479172
0.00638611
-1.65033e-05
-0.000425165
0.000230878
0.00103333
0.00112337
0.00147612
0.00180475
0.00237275
0.00283096
0.00284579
0.00289472
0.00332763
0.00366925
0.00339228
0.00287836
0.00256412
0.00270469
0.00331474
0.00437786
0.00603474
1.55278e-05
-0.000354244
0.00025737
0.000985415
0.0010751
0.00144102
0.00175548
0.00225489
0.00268835
0.00272031
0.00270755
0.0029978
0.0033083
0.00308724
0.002574
0.0022102
0.00227987
0.00286379
0.00395627
0.00567964
4.96479e-05
-0.000285269
0.000282941
0.000937833
0.00102453
0.0013985
0.00170387
0.00213525
0.00253432
0.00257939
0.00252533
0.00268255
0.00293536
0.00276683
0.00226968
0.00186614
0.00186997
0.00242016
0.00353641
0.00532467
8.48413e-05
-0.000218772
0.000305954
0.000892626
0.000971125
0.00134736
0.0016464
0.0020133
0.00237199
0.00242461
0.00234434
0.00238439
0.00255833
0.002428
0.00196014
0.00153144
0.00147691
0.0019878
0.00311991
0.00496677
0.000121248
-0.000155119
0.000325958
0.000849758
0.00091541
0.00128738
0.00158259
0.00189063
0.00220337
0.00225509
0.00215796
0.0021014
0.00218284
0.00207074
0.00164294
0.00120606
0.00110087
0.00156865
0.00270747
0.00460762
0.0001585
-9.45221e-05
0.000342955
0.000809088
0.000857497
0.00121872
0.00151127
0.00176642
0.00202917
0.00207174
0.00196297
0.00183042
0.00181586
0.0017018
0.00131712
0.000887007
0.000741445
0.00116566
0.00230122
0.00424754
0.000196382
-3.68206e-05
0.000356777
0.000769589
0.000798578
0.00114202
0.00143172
0.0016406
0.0018516
0.001877
0.00175715
0.00156752
0.00146135
0.00132705
0.000979121
0.000568612
0.000397391
0.000780771
0.00190431
0.00388789
0.000234579
1.77028e-05
0.000367294
0.000731164
0.000738932
0.00105746
0.00134309
0.00151219
0.00167123
0.00167263
0.00154009
0.00130859
0.00111939
0.00095133
0.000629833
0.000248162
6.69405e-05
0.000415456
0.00152117
0.00353089
0.000272786
6.91495e-05
0.000374465
0.000693095
0.000678623
0.000965942
0.00124445
0.00138001
0.00148942
0.00146142
0.00131222
0.00104985
0.000788892
0.000579625
0.000273017
-7.70528e-05
-0.000254259
6.86325e-05
0.00115447
0.00317909
0.000310646
0.000117507
0.000378199
0.00065478
0.000617966
0.00086877
0.00113556
0.00124345
0.00130639
0.00124498
0.00107463
0.000789264
0.000468237
0.000214145
-8.83229e-05
-0.000408652
-0.000570318
-0.000262119
0.000805835
0.0028364
0.000347954
0.000162665
0.000378511
0.000615687
0.000556891
0.000766412
0.0010167
0.00110128
0.00112146
0.0010253
0.000829267
0.000525256
0.000155199
-0.000144561
-0.000450469
-0.00074553
-0.000884346
-0.000579973
0.000474996
0.00250482
0.000384457
0.000204718
0.000375443
0.000574959
0.000495235
0.000659937
0.000888466
0.000952234
0.000934104
0.00080374
0.000577348
0.000256818
-0.00015138
-0.000495541
-0.000810273
-0.00108668
-0.00119947
-0.000888774
0.000159125
0.00218391
0.000419769
0.000243513
0.000369078
0.000532224
0.000432648
0.000551033
0.000751717
0.000795312
0.000743403
0.000580931
0.000321114
-1.61346e-05
-0.000452629
-0.000838654
-0.00116708
-0.00143134
-0.0015171
-0.00119216
-0.000146127
0.00187238
0.000453574
0.000279089
0.000359452
0.000486979
0.00036891
0.000439814
0.000607112
0.000630366
0.000548722
0.000357068
6.27877e-05
-0.000293841
-0.00075047
-0.00117449
-0.00152042
-0.00177715
-0.00183752
-0.00149411
-0.000444905
0.00156891
0.000485557
0.000311373
0.000346779
0.000438681
0.00030346
0.000327037
0.000455934
0.000457592
0.000349164
0.00013143
-0.00019605
-0.000575475
-0.00104684
-0.00150337
-0.00186864
-0.00212224
-0.00216188
-0.00179769
-0.000740077
0.00127136
0.000515464
0.000340259
0.000331074
0.000387214
0.000235774
0.000212929
0.000299605
0.000277403
0.00014394
-9.65714e-05
-0.000454082
-0.000859535
-0.00134327
-0.00182564
-0.00221101
-0.00246628
-0.00249033
-0.00210446
-0.00103518
0.000976448
0.000542929
0.000365724
0.000312683
0.000332125
0.000166636
9.79448e-05
0.000139395
9.04557e-05
-6.70163e-05
-0.000327678
-0.000711538
-0.00114435
-0.00164019
-0.00214248
-0.00254808
-0.00280848
-0.00282157
-0.00241593
-0.00133328
0.000682404
0.00056771
0.000387587
0.000291735
0.000273496
9.26542e-05
-1.80784e-05
-2.31461e-05
-0.000102217
-0.000284109
-0.00056259
-0.000969307
-0.00142862
-0.00193736
-0.00245541
-0.00288003
-0.00314779
-0.00315466
-0.00273261
-0.00163505
0.000388105
0.000589493
0.000405837
0.000268533
0.000211086
1.49306e-05
-0.000135101
-0.000187256
-0.000299284
-0.000507092
-0.000801485
-0.00122792
-0.00171235
-0.00223454
-0.00276521
-0.00320696
-0.00348414
-0.00348922
-0.0030541
-0.00194137
9.19167e-05
0.000608066
0.000420224
0.000243318
0.00014527
-6.70615e-05
-0.000253277
-0.000352356
-0.000499378
-0.000735563
-0.00104456
-0.00148744
-0.00199566
-0.00253173
-0.00307262
-0.00352922
-0.00381744
-0.00382426
-0.00338013
-0.0022535
-0.000207671
0.000623251
0.000430723
0.000216087
7.62464e-05
-0.00015326
-0.000372722
-0.00051798
-0.000700732
-0.000969095
-0.00129264
-0.00174745
-0.00227885
-0.0028296
-0.00337903
-0.00384748
-0.00414673
-0.00415784
-0.00370895
-0.00257078
-0.000511528
0.000634843
0.000437091
0.000187191
4.497e-06
-0.000244019
-0.000493403
-0.000684047
-0.000902011
-0.00120562
-0.00154656
-0.00200837
-0.00256155
-0.00312865
-0.00368614
-0.00416354
-0.00447249
-0.00448941
-0.00403908
-0.00289216
-0.000819921
0.000642827
0.000439309
0.000156408
-6.92596e-05
-0.000339022
-0.000615606
-0.000850826
-0.00110242
-0.00144271
-0.00180684
-0.00227115
-0.00284217
-0.00342752
-0.00399453
-0.00447919
-0.00479619
-0.00481944
-0.00437001
-0.00321734
-0.00113359
0.000647037
0.00043722
0.00012398
-0.000144381
-0.000437869
-0.000739145
-0.00101818
-0.00130214
-0.00167774
-0.0020733
-0.00253864
-0.00312112
-0.0037255
-0.00430429
-0.00479636
-0.00511957
-0.0051485
-0.00470099
-0.00354478
-0.00145122
0.000647411
0.000430888
8.97921e-05
-0.00021975
-0.000539874
-0.000864031
-0.00118588
-0.00150244
-0.00190795
-0.0023418
-0.00281271
-0.00339941
-0.00402115
-0.00461442
-0.00511642
-0.0054456
-0.00547942
-0.00503423
-0.00387615
-0.00177479
0.000643728
0.000420683
5.3669e-05
-0.000295492
-0.000643859
-0.000989148
-0.00135266
-0.00170528
-0.00213415
-0.00260795
-0.00309261
-0.00367867
-0.00431368
-0.00492229
-0.00543724
-0.00577431
-0.00581374
-0.00537179
-0.00421368
-0.00210696
0.000635823
0.000406548
1.70557e-05
-0.000370053
-0.000750918
-0.00111625
-0.00151727
-0.00191115
-0.00235987
-0.00286906
-0.00337602
-0.00396046
-0.00460406
-0.0052267
-0.00575629
-0.00610324
-0.00615029
-0.00571258
-0.00455605
-0.00244768
0.000624231
0.000387577
-2.16443e-05
-0.000439568
-0.000852728
-0.00124244
-0.00167749
-0.00211697
-0.00258694
-0.00312504
-0.00366111
-0.00424685
-0.00489548
-0.00553027
-0.00607587
-0.00643592
-0.00649235
-0.00605933
-0.0049032
-0.00279169
0.00060808
0.000366828
-6.77955e-05
-0.000516396
-0.000958846
-0.00137113
-0.001836
-0.00232272
-0.00281811
-0.00337614
-0.0039431
-0.00453514
-0.00518606
-0.00583043
-0.00639233
-0.00676948
-0.00683953
-0.00641682
-0.00526602
-0.00315581
0.000585149
0.000350408
-8.56165e-05
-0.000565168
-0.00104852
-0.00150083
-0.00199698
-0.00253075
-0.00305638
-0.00362606
-0.00421978
-0.00482325
-0.00547586
-0.00612755
-0.006704
-0.0071001
-0.00718678
-0.00677832
-0.00563973
-0.00354049
0.000561363
0.000283038
-0.000166982
-0.000627942
-0.00111104
-0.00159774
-0.00213816
-0.00272189
-0.00328619
-0.00386499
-0.00447731
-0.00509892
-0.00575971
-0.00642162
-0.00701431
-0.00743142
-0.00753736
-0.00714489
-0.00601736
-0.00392428
0.000528812
0.00033374
-0.000159316
-0.000700958
-0.00126186
-0.0017874
-0.00235493
-0.00295917
-0.00353625
-0.00410705
-0.00472323
-0.00536229
-0.00603925
-0.00671928
-0.00733504
-0.00777687
-0.00790188
-0.00752197
-0.00640264
-0.00431604
0.000446057
0.000169947
-0.000188895
-0.000620893
-0.00113954
-0.00176778
-0.00250468
-0.00320142
-0.00380167
-0.00435828
-0.00496765
-0.00562153
-0.00631825
-0.00702426
-0.00767347
-0.0081569
-0.00831919
-0.00797198
-0.00688144
-0.00481893
0.000497137
0.000280477
-0.0002353
-0.000854329
-0.00148461
-0.00207777
-0.00269235
-0.00330425
-0.00389525
-0.00447392
-0.00509576
-0.00576042
-0.00646089
-0.00716881
-0.00783249
-0.00836636
-0.00862829
-0.00840576
-0.0074426
-0.00550311
0.000435462
0.000216177
-0.000323492
-0.000811484
-0.0014045
-0.00214503
-0.00287525
-0.00351692
-0.00416369
-0.0047725
-0.00543143
-0.00611044
-0.00680367
-0.00745029
-0.00799882
-0.00836864
-0.00847786
-0.00815928
-0.00717409
-0.00526232
0.000549736
0.000190008
-0.000388601
-0.00101741
-0.00165918
-0.00227168
-0.00285742
-0.00341687
-0.00402594
-0.00466208
-0.00536512
-0.00611981
-0.00693424
-0.00781868
-0.00873588
-0.00956226
-0.0101103
-0.0101434
-0.0093943
-0.00768723
0.000738185
5.53015e-05
-0.000573538
-0.00122676
-0.00183225
-0.00255805
-0.00327771
-0.00385471
-0.00444549
-0.00514011
-0.00584801
-0.00649294
-0.00688882
-0.00693801
-0.00660616
-0.00597046
-0.00520676
-0.00461746
-0.00457632
-0.00536433
0.000695615
8.54003e-05
-0.000577829
-0.00115514
-0.00168362
-0.00221582
-0.00273247
-0.00330742
-0.00399253
-0.00479766
-0.00571695
-0.00674287
-0.00787056
-0.00904841
-0.01022
-0.0112753
-0.0120562
-0.0123463
-0.0118769
-0.0104023
0.000849588
1.59566e-05
-0.000687916
-0.00130284
-0.00181367
-0.0024788
-0.00323057
-0.0040856
-0.00488874
-0.00547883
-0.00606518
-0.00677033
-0.00742602
-0.00786186
-0.00793722
-0.00766733
-0.00718433
-0.00677281
-0.00680644
-0.00763939
0.000821205
-1.91083e-05
-0.000697182
-0.00120841
-0.00157428
-0.00197754
-0.00241165
-0.00296814
-0.00371245
-0.00471724
-0.00600558
-0.00761027
-0.00944105
-0.0113321
-0.0130795
-0.0145157
-0.0154651
-0.015738
-0.015113
-0.0134002
0.0424703
0.0160381
0.00528434
0.00293241
0.00182355
0.000712863
-0.000256526
-0.000972008
-0.00149975
-0.00208
-0.00284462
-0.00359397
-0.00414804
-0.00465971
-0.00527096
-0.00591868
-0.00651
-0.00716959
-0.00798219
-0.00868811
-0.00922808
-0.00982947
-0.0104483
-0.0110457
-0.0116974
-0.0123987
-0.0130912
-0.013817
-0.0146033
-0.0153763
-0.0161649
-0.0169547
-0.0178373
-0.0187676
-0.019741
-0.0206817
-0.0216215
-0.022627
-0.02371
-0.0248732
-0.0260145
-0.0272444
-0.0285134
-0.0298789
-0.0313306
-0.0327757
-0.034375
-0.0359381
-0.0377213
-0.0397144
0.0414842
0.0160851
0.00532926
0.00295179
0.00183314
0.000718394
-0.000252706
-0.000969034
-0.00149724
-0.00207778
-0.00284267
-0.00359232
-0.00414662
-0.00465842
-0.00526979
-0.00591765
-0.00650909
-0.00716877
-0.00798147
-0.0086875
-0.00922754
-0.00982898
-0.0104478
-0.0110453
-0.011697
-0.0123983
-0.0130909
-0.0138167
-0.014603
-0.0153761
-0.0161647
-0.0169544
-0.0178371
-0.0187673
-0.0197408
-0.0206815
-0.0216213
-0.0226268
-0.0237098
-0.0248731
-0.0260144
-0.0272443
-0.0285133
-0.0298788
-0.0313305
-0.0327756
-0.0343749
-0.035938
-0.0377212
-0.0397144
0.0406664
0.0161842
0.00539654
0.00297467
0.0018446
0.000724751
-0.000248825
-0.000966231
-0.00149492
-0.00207574
-0.00284093
-0.00359088
-0.00414537
-0.00465727
-0.00526875
-0.00591674
-0.00650828
-0.00716802
-0.00798084
-0.00868698
-0.00922705
-0.00982854
-0.0104474
-0.011045
-0.0116967
-0.012398
-0.0130906
-0.0138164
-0.0146028
-0.0153759
-0.0161645
-0.0169542
-0.0178369
-0.0187672
-0.0197406
-0.0206814
-0.0216211
-0.0226267
-0.0237097
-0.024873
-0.0260143
-0.0272442
-0.0285132
-0.0298788
-0.0313305
-0.0327755
-0.0343749
-0.0359379
-0.0377212
-0.0397144
0.0399287
0.0163064
0.00548908
0.00300689
0.00186185
0.000734439
-0.000243511
-0.00096287
-0.00149239
-0.00207362
-0.00283913
-0.00358939
-0.00414407
-0.0046561
-0.00526771
-0.00591581
-0.00650743
-0.00716724
-0.00798021
-0.00868647
-0.00922655
-0.00982809
-0.0104471
-0.0110446
-0.0116963
-0.0123977
-0.0130904
-0.0138162
-0.0146025
-0.0153756
-0.0161643
-0.016954
-0.0178367
-0.018767
-0.0197405
-0.0206812
-0.021621
-0.0226265
-0.0237095
-0.0248728
-0.0260141
-0.0272441
-0.0285131
-0.0298787
-0.0313304
-0.0327754
-0.0343748
-0.0359379
-0.0377212
-0.0397145
0.0391866
0.0164322
0.00560046
0.00304881
0.00188682
0.000749557
-0.000235336
-0.000958192
-0.00148927
-0.00207118
-0.00283704
-0.00358762
-0.0041426
-0.00465484
-0.00526659
-0.00591479
-0.00650647
-0.00716635
-0.0079795
-0.0086859
-0.00922599
-0.00982759
-0.0104466
-0.0110442
-0.011696
-0.0123974
-0.0130901
-0.0138159
-0.0146023
-0.0153754
-0.0161641
-0.0169538
-0.0178365
-0.0187668
-0.0197403
-0.0206811
-0.0216208
-0.0226264
-0.0237094
-0.0248727
-0.026014
-0.027244
-0.028513
-0.0298786
-0.0313303
-0.0327754
-0.0343747
-0.0359378
-0.0377211
-0.0397146
0.0384262
0.0165564
0.00572224
0.00309648
0.00191812
0.000770375
-0.000223591
-0.000951708
-0.00148539
-0.00206834
-0.00283453
-0.00358541
-0.00414084
-0.00465347
-0.0052654
-0.00591365
-0.00650535
-0.0071653
-0.00797867
-0.00868522
-0.00922533
-0.00982702
-0.0104462
-0.0110438
-0.0116956
-0.0123971
-0.0130898
-0.0138156
-0.014602
-0.0153752
-0.0161639
-0.0169536
-0.0178363
-0.0187666
-0.0197401
-0.0206809
-0.0216207
-0.0226262
-0.0237092
-0.0248726
-0.0260139
-0.0272439
-0.0285129
-0.0298785
-0.0313302
-0.0327753
-0.0343746
-0.0359377
-0.0377211
-0.0397147
0.0376514
0.0166774
0.00584949
0.0031463
0.00195291
0.000795577
-0.000208459
-0.000943284
-0.00148066
-0.0020651
-0.00283151
-0.0035826
-0.0041387
-0.00465197
-0.00526414
-0.0059124
-0.00650407
-0.00716407
-0.00797764
-0.00868436
-0.00922452
-0.00982636
-0.0104456
-0.0110433
-0.0116951
-0.0123967
-0.0130894
-0.0138153
-0.0146017
-0.0153749
-0.0161636
-0.0169534
-0.0178361
-0.0187664
-0.0197399
-0.0206807
-0.0216205
-0.022626
-0.0237091
-0.0248724
-0.0260138
-0.0272437
-0.0285128
-0.0298784
-0.0313301
-0.0327752
-0.0343746
-0.0359376
-0.037721
-0.0397148
0.0368673
0.0167933
0.00598045
0.0031967
0.00198907
0.000823447
-0.000190741
-0.000933149
-0.00147518
-0.00206151
-0.00282799
-0.00357913
-0.00413608
-0.00465028
-0.00526282
-0.00591105
-0.00650265
-0.00716263
-0.00797637
-0.00868325
-0.00922353
-0.00982557
-0.010445
-0.0110427
-0.0116946
-0.0123963
-0.013089
-0.0138149
-0.0146014
-0.0153746
-0.0161634
-0.0169532
-0.0178359
-0.0187662
-0.0197398
-0.0206806
-0.0216203
-0.0226259
-0.0237089
-0.0248723
-0.0260136
-0.0272436
-0.0285126
-0.0298782
-0.03133
-0.0327751
-0.0343745
-0.0359375
-0.037721
-0.039715
0.0360765
0.0169028
0.00611509
0.00324741
0.00202555
0.000852742
-0.000171315
-0.000921698
-0.00146906
-0.0020577
-0.00282409
-0.00357502
-0.00413294
-0.00464835
-0.0052614
-0.00590963
-0.00650113
-0.00716102
-0.00797481
-0.00868181
-0.00922228
-0.00982463
-0.0104442
-0.011042
-0.0116941
-0.0123958
-0.0130886
-0.0138145
-0.0146011
-0.0153743
-0.0161631
-0.0169529
-0.0178356
-0.0187661
-0.0197396
-0.0206804
-0.0216201
-0.0226257
-0.0237088
-0.0248721
-0.0260135
-0.0272435
-0.0285125
-0.0298781
-0.0313299
-0.032775
-0.0343743
-0.0359374
-0.0377209
-0.0397151
0.0352812
0.0170048
0.00625389
0.00329864
0.00206198
0.000882802
-0.00015081
-0.000909299
-0.00146246
-0.00205374
-0.00281996
-0.0035704
-0.00412929
-0.00464616
-0.00525987
-0.00590816
-0.0064996
-0.00715934
-0.007973
-0.00868001
-0.00922071
-0.00982349
-0.0104434
-0.0110413
-0.0116934
-0.0123952
-0.0130881
-0.0138141
-0.0146007
-0.015374
-0.0161627
-0.0169526
-0.0178354
-0.0187658
-0.0197394
-0.0206802
-0.02162
-0.0226255
-0.0237086
-0.024872
-0.0260133
-0.0272433
-0.0285123
-0.029878
-0.0313298
-0.0327748
-0.0343742
-0.0359372
-0.0377207
-0.0397153
0.0344832
0.0170985
0.00639724
0.00335062
0.00209818
0.000913314
-0.000129589
-0.000896215
-0.00145545
-0.00204966
-0.0028157
-0.00356543
-0.00412522
-0.00464371
-0.00525821
-0.00590661
-0.0064981
-0.00715769
-0.00797105
-0.00867787
-0.00921878
-0.00982212
-0.0104424
-0.0110405
-0.0116927
-0.0123946
-0.0130875
-0.0138135
-0.0146002
-0.0153736
-0.0161624
-0.0169522
-0.0178351
-0.0187656
-0.0197392
-0.02068
-0.0216198
-0.0226253
-0.0237084
-0.0248718
-0.0260131
-0.0272431
-0.0285122
-0.0298778
-0.0313296
-0.0327747
-0.0343741
-0.035937
-0.0377205
-0.0397156
0.0336843
0.0171832
0.00654529
0.00340357
0.00213401
0.000944091
-0.000107853
-0.000882611
-0.00144808
-0.00204547
-0.00281136
-0.00356023
-0.00412082
-0.00464103
-0.00525643
-0.005905
-0.00649664
-0.00715615
-0.00796908
-0.00867544
-0.0092165
-0.00982047
-0.0104413
-0.0110397
-0.011692
-0.0123939
-0.0130868
-0.0138129
-0.0145996
-0.0153731
-0.016162
-0.0169519
-0.0178347
-0.0187653
-0.019739
-0.0206799
-0.0216196