/*--------------------------------*- C++ -*----------------------------------*\
| =========                 |                                                 |
| \\      /  F ield         | OpenFOAM: The Open Source CFD Toolbox           |
|  \\    /   O peration     | Version:  v2012                                 |
|   \\  /    A nd           | Website:  www.openfoam.com                      |
|    \\/     M anipulation  |                                                 |
\*---------------------------------------------------------------------------*/
FoamFile
{
    version     2.0;
    format      ascii;
    class       surfaceScalarField;
    location    "9";
    object      phi;
}
// * * * * * * * * * * * * * * * * * * * * * * * * * * * * * * * * * * * * * //

dimensions      [0 3 -1 0 0 0 0];
oriented        oriented;


internalField   nonuniform List<scalar> 
13830
(
9.14927e-07
-2.73959e-07
1.00502e-06
-1.26734e-06
1.03009e-06
6.20564e-07
8.81085e-07
7.24187e-07
9.44673e-07
6.31584e-08
9.09279e-07
-4.75519e-07
9.4432e-07
-8.42588e-07
9.71502e-07
5.04948e-08
9.33193e-07
1.075e-07
9.51679e-07
7.60099e-07
9.29643e-07
2.93841e-07
9.35875e-07
3.50976e-07
9.32301e-07
2.00747e-08
9.28195e-07
-4.87543e-08
9.33605e-07
-1.38544e-07
9.19763e-07
-2.91417e-07
9.30469e-07
-1.60509e-07
9.12462e-07
-3.0713e-07
9.21669e-07
-1.58926e-07
-2.57979e-07
8.93589e-07
9.49886e-07
-2.51313e-07
1.03997e-06
-1.35742e-06
1.06664e-06
5.93892e-07
9.23041e-07
8.67785e-07
9.81662e-07
4.53821e-09
9.48693e-07
-4.4255e-07
9.86395e-07
-8.80291e-07
1.01286e-06
2.40267e-08
9.71125e-07
1.49238e-07
9.97007e-07
7.34218e-07
9.67612e-07
3.23236e-07
9.80595e-07
3.37993e-07
9.69402e-07
3.1268e-08
9.73731e-07
-5.30832e-08
9.66734e-07
-1.31547e-07
9.64235e-07
-2.88919e-07
9.59816e-07
-1.5609e-07
9.55949e-07
-3.03262e-07
9.49152e-07
-1.52129e-07
-2.48663e-07
9.39836e-07
9.8668e-07
-2.2854e-07
1.07248e-06
-1.44322e-06
1.10109e-06
5.65281e-07
9.75782e-07
9.93092e-07
1.02105e-06
-4.07347e-08
9.96927e-07
-4.18422e-07
1.02829e-06
-9.11657e-07
1.05981e-06
-7.49235e-09
1.01111e-06
1.97937e-07
1.03981e-06
7.05518e-07
1.00836e-06
3.54692e-07
1.02137e-06
3.24978e-07
1.009e-06
4.36351e-08
1.01345e-06
-5.75344e-08
1.00291e-06
-1.21007e-07
1.0031e-06
-2.89105e-07
9.94939e-07
-1.47927e-07
9.94779e-07
-3.03102e-07
9.85326e-07
-1.42676e-07
-2.43108e-07
9.7977e-07
1.02483e-06
-2.05598e-07
1.10368e-06
-1.52206e-06
1.13454e-06
5.34424e-07
1.03429e-06
1.09334e-06
1.06221e-06
-6.86603e-08
1.04902e-06
-4.0523e-07
1.06858e-06
-9.31212e-07
1.10351e-06
-4.24227e-08
1.05359e-06
2.47849e-07
1.07512e-06
6.83994e-07
1.05093e-06
3.78876e-07
1.05881e-06
3.17105e-07
1.05018e-06
5.22622e-08
1.05192e-06
-5.92738e-08
1.0417e-06
-1.10789e-07
1.04134e-06
-2.88748e-07
1.03246e-06
-1.39045e-07
1.03224e-06
-3.02878e-07
1.02277e-06
-1.33204e-07
-2.37391e-07
1.01705e-06
1.06464e-06
-1.82688e-07
1.1344e-06
-1.59182e-06
1.1677e-06
5.01133e-07
1.09459e-06
1.16644e-06
1.10414e-06
-7.82037e-08
1.09969e-06
-4.00786e-07
1.10645e-06
-9.37971e-07
1.14011e-06
-7.60821e-08
1.09839e-06
2.89569e-07
1.10874e-06
6.73646e-07
1.09475e-06
3.92868e-07
1.09868e-06
3.13174e-07
1.093e-06
5.79431e-08
1.09329e-06
-5.95667e-08
1.08339e-06
-1.00891e-07
1.08194e-06
-2.87295e-07
1.07293e-06
-1.30034e-07
1.07125e-06
-3.01203e-07
1.06233e-06
-1.24283e-07
-2.30273e-07
1.05521e-06
1.10674e-06
-1.60581e-07
1.16574e-06
-1.65083e-06
1.20109e-06
4.65788e-07
1.15329e-06
1.21424e-06
1.14694e-06
-7.18522e-08
1.14643e-06
-4.00282e-07
1.14325e-06
-9.34793e-07
1.17179e-06
-1.04617e-07
1.14446e-06
3.16898e-07
1.14682e-06
6.7129e-07
1.14017e-06
3.9951e-07
1.14304e-06
3.10311e-07
1.1379e-06
6.30828e-08
1.13795e-06
-5.96178e-08
1.12764e-06
-9.05816e-08
1.12515e-06
-2.84806e-07
1.11599e-06
-1.20871e-07
1.11253e-06
-2.97743e-07
1.10404e-06
-1.15798e-07
-2.21676e-07
1.09545e-06
1.15164e-06
-1.40522e-07
1.19867e-06
-1.69785e-06
1.23487e-06
4.29582e-07
1.2083e-06
1.24081e-06
1.19106e-06
-5.46048e-08
1.19007e-06
-3.99296e-07
1.18091e-06
-9.25632e-07
1.20303e-06
-1.26741e-07
1.19049e-06
3.29445e-07
1.19076e-06
6.71012e-07
1.18741e-06
4.02862e-07
1.19083e-06
3.06895e-07
1.18458e-06
6.93333e-08
1.18474e-06
-5.97858e-08
1.1737e-06
-7.95383e-08
1.17032e-06
-2.8142e-07
1.16105e-06
-1.1161e-07
1.15589e-06
-2.9258e-07
1.14774e-06
-1.07651e-07
-2.11874e-07
1.13794e-06
1.1995e-06
-1.23839e-07
1.23384e-06
-1.73219e-06
1.26893e-06
3.94485e-07
1.25902e-06
1.25072e-06
1.23659e-06
-3.21749e-08
1.23294e-06
-3.95647e-07
1.22056e-06
-9.1325e-07
1.23707e-06
-1.43253e-07
1.23581e-06
3.30713e-07
1.23846e-06
6.6836e-07
1.23577e-06
4.05553e-07
1.24005e-06
3.02615e-07
1.23222e-06
7.71594e-08
1.23247e-06
-6.00408e-08
1.22095e-06
-6.80111e-08
1.21679e-06
-2.77259e-07
1.2077e-06
-1.02522e-07
1.201e-06
-2.85887e-07
1.19326e-06
-9.99079e-08
-2.01161e-07
1.18255e-06
1.25003e-06
-1.11518e-07
1.27159e-06
-1.75375e-06
1.30322e-06
3.62857e-07
1.30594e-06
1.24801e-06
1.28321e-06
-9.45194e-09
1.27713e-06
-3.89559e-07
1.26251e-06
-8.98638e-07
1.27485e-06
-1.55588e-07
1.28042e-06
3.25142e-07
1.28702e-06
6.61756e-07
1.28401e-06
4.08563e-07
1.2891e-06
2.97528e-07
1.28014e-06
8.61162e-08
1.2805e-06
-6.03975e-08
1.26908e-06
-5.65889e-08
1.26428e-06
-2.72458e-07
1.2557e-06
-9.39467e-08
1.24764e-06
-2.77823e-07
1.24043e-06
-9.27027e-08
-1.898e-07
1.22907e-06
1.30268e-06
-1.03923e-07
1.31211e-06
-1.76318e-06
1.33817e-06
3.368e-07
1.35031e-06
1.23587e-06
1.33057e-06
1.02867e-08
1.32371e-06
-3.82699e-07
1.30682e-06
-8.81745e-07
1.31588e-06
-1.64654e-07
1.32456e-06
3.16465e-07
1.33465e-06
6.51662e-07
1.33133e-06
4.11886e-07
1.33738e-06
2.91481e-07
1.3282e-06
9.52953e-08
1.32884e-06
-6.10411e-08
1.31814e-06
-4.58891e-08
1.31283e-06
-2.67151e-07
1.30504e-06
-8.6152e-08
1.29575e-06
-2.68535e-07
1.28916e-06
-8.6113e-08
-1.78025e-07
1.27739e-06
1.35688e-06
-1.00785e-07
1.3555e-06
-1.7618e-06
1.37476e-06
3.17537e-07
1.39382e-06
1.21681e-06
1.37862e-06
2.54842e-08
1.37289e-06
-3.76963e-07
1.35357e-06
-8.62424e-07
1.35954e-06
-1.70626e-07
1.36862e-06
3.07383e-07
1.38106e-06
6.39222e-07
1.37783e-06
4.15117e-07
1.38521e-06
2.84102e-07
1.37674e-06
1.03761e-07
1.37793e-06
-6.22287e-08
1.3684e-06
-3.63577e-08
1.36267e-06
-2.61424e-07
1.3558e-06
-7.92782e-08
1.34543e-06
-2.58163e-07
1.33944e-06
-8.0125e-08
-1.66041e-07
1.32745e-06
1.41225e-06
-1.01379e-07
1.40183e-06
-1.75138e-06
1.41424e-06
3.05123e-07
1.43821e-06
1.19285e-06
1.42769e-06
3.59983e-08
1.42438e-06
-3.73656e-07
1.40286e-06
-8.40895e-07
1.40567e-06
-1.73443e-07
1.41338e-06
2.99674e-07
1.42717e-06
6.25429e-07
1.42448e-06
4.17814e-07
1.43352e-06
2.75056e-07
1.42643e-06
1.10859e-07
1.42833e-06
-6.41375e-08
1.42019e-06
-2.82143e-08
1.41403e-06
-2.55265e-07
1.40813e-06
-7.33747e-08
1.3968e-06
-2.46835e-07
1.39134e-06
-7.46638e-08
-1.54e-07
1.3793e-06
1.46863e-06
-1.04767e-07
1.45115e-06
-1.73389e-06
1.45768e-06
2.98596e-07
1.48484e-06
1.16568e-06
1.47823e-06
4.26059e-08
1.47786e-06
-3.73276e-07
1.45465e-06
-8.17691e-07
1.45453e-06
-1.73321e-07
1.45994e-06
2.94263e-07
1.47447e-06
6.109e-07
1.47258e-06
4.19708e-07
1.48337e-06
2.64265e-07
1.47791e-06
1.1632e-07
1.48054e-06
-6.67712e-08
1.47383e-06
-2.15028e-08
1.46713e-06
-2.48568e-07
1.46221e-06
-6.84485e-08
1.45003e-06
-2.34663e-07
1.445e-06
-6.96286e-08
-1.41994e-07
1.43299e-06
1.52611e-06
-1.1e-07
1.50342e-06
-1.71121e-06
1.50559e-06
2.96432e-07
1.53456e-06
1.13672e-06
1.53067e-06
4.64867e-08
1.53312e-06
-3.75721e-07
1.50884e-06
-7.9341e-07
1.50641e-06
-1.70895e-07
1.50936e-06
2.91319e-07
1.52433e-06
5.95928e-07
1.52327e-06
4.20761e-07
1.53556e-06
2.51976e-07
1.53168e-06
1.202e-07
1.53487e-06
-6.99551e-08
1.52954e-06
-1.61796e-08
1.52215e-06
-2.41177e-07
1.51819e-06
-6.44818e-08
1.50528e-06
-2.21761e-07
1.50058e-06
-6.49213e-08
-1.30073e-07
1.48866e-06
1.58484e-06
-1.16228e-07
1.55859e-06
-1.68497e-06
1.55801e-06
2.97018e-07
1.58766e-06
1.10706e-06
1.58531e-06
4.88322e-08
1.5902e-06
-3.80612e-07
1.56532e-06
-7.6852e-07
1.56141e-06
-1.66995e-07
1.56227e-06
2.90459e-07
1.5776e-06
5.80601e-07
1.57726e-06
4.21098e-07
1.59058e-06
2.38657e-07
1.58806e-06
1.22725e-07
1.59149e-06
-7.33837e-08
1.58749e-06
-1.21854e-08
1.57926e-06
-2.32941e-07
1.57621e-06
-6.1435e-08
1.5627e-06
-2.08252e-07
1.55824e-06
-6.04572e-08
-1.18267e-07
1.54643e-06
1.64506e-06
-1.2274e-07
1.61661e-06
-1.65652e-06
1.61466e-06
2.98969e-07
1.64417e-06
1.07755e-06
1.64235e-06
5.06565e-08
1.64928e-06
-3.87545e-07
1.62411e-06
-7.43346e-07
1.61946e-06
-1.62351e-07
1.61887e-06
2.9105e-07
1.63459e-06
5.64881e-07
1.63482e-06
4.20872e-07
1.64861e-06
2.2486e-07
1.64719e-06
1.24147e-07
1.65048e-06
-7.66743e-08
1.64776e-06
-9.46194e-09
1.63859e-06
-2.2377e-07
1.63638e-06
-5.92269e-08
1.62241e-06
-1.94278e-07
1.61811e-06
-5.6164e-08
-1.06607e-07
1.60645e-06
1.70698e-06
-1.28969e-07
1.67749e-06
-1.62703e-06
1.67523e-06
3.01227e-07
1.70404e-06
1.04874e-06
1.70191e-06
5.2777e-08
1.71056e-06
-3.96188e-07
1.68535e-06
-7.18136e-07
1.68042e-06
-1.57421e-07
1.67901e-06
2.92454e-07
1.69521e-06
5.48684e-07
1.69593e-06
4.20152e-07
1.70968e-06
2.11106e-07
1.70918e-06
1.24653e-07
1.71192e-06
-7.94147e-08
1.71038e-06
-7.92353e-09
1.70028e-06
-2.13669e-07
1.69878e-06
-5.77221e-08
1.68449e-06
-1.79995e-07
1.68031e-06
-5.19795e-08
-9.51461e-08
1.66885e-06
1.77084e-06
-1.3449e-07
1.74128e-06
-1.59748e-06
1.73948e-06
3.03032e-07
1.76722e-06
1.02101e-06
1.76413e-06
5.58635e-08
1.77422e-06
-4.06275e-07
1.74924e-06
-6.93163e-07
1.74421e-06
-1.52389e-07
1.74251e-06
2.94158e-07
1.75924e-06
5.31952e-07
1.76051e-06
4.18883e-07
1.77376e-06
1.97857e-07
1.77409e-06
1.2432e-07
1.77588e-06
-8.12035e-08
1.77542e-06
-7.46465e-09
1.76444e-06
-2.02692e-07
1.76346e-06
-5.67364e-08
1.74904e-06
-1.65581e-07
1.7449e-06
-4.78383e-08
-8.39548e-08
1.73371e-06
1.83688e-06
-1.39034e-07
1.80807e-06
-1.56866e-06
1.80723e-06
3.03874e-07
1.83368e-06
9.94549e-07
1.82909e-06
6.04593e-08
1.84037e-06
-4.17558e-07
1.81596e-06
-6.68752e-07
1.81084e-06
-1.47271e-07
1.8092e-06
2.95798e-07
1.82643e-06
5.14723e-07
1.82842e-06
4.16897e-07
1.84076e-06
1.8551e-07
1.84195e-06
1.23136e-07
1.84246e-06
-8.17138e-08
1.84292e-06
-7.92464e-09
1.83117e-06
-1.90947e-07
1.83048e-06
-5.60435e-08
1.81612e-06
-1.51223e-07
1.81196e-06
-4.36756e-08
-7.31169e-08
1.80112e-06
1.90535e-06
-1.42487e-07
1.87785e-06
-1.54116e-06
1.87826e-06
3.03466e-07
1.90336e-06
9.69454e-07
1.89687e-06
6.69456e-08
1.90908e-06
-4.29765e-07
1.88558e-06
-6.45258e-07
1.88035e-06
-1.42034e-07
1.87903e-06
2.97118e-07
1.89657e-06
4.97177e-07
1.89952e-06
4.13946e-07
1.91064e-06
1.74394e-07
1.91272e-06
1.21051e-07
1.91176e-06
-8.07546e-08
1.91291e-06
-9.07528e-09
1.90056e-06
-1.78595e-07
1.89992e-06
-5.53977e-08
1.88579e-06
-1.37096e-07
1.88155e-06
-3.94362e-08
-6.27131e-08
1.87115e-06
1.97648e-06
-1.44867e-07
1.95059e-06
-1.51527e-06
1.95232e-06
3.01736e-07
1.9761e-06
9.45674e-07
1.96757e-06
7.54767e-08
1.98037e-06
-4.42566e-07
1.95809e-06
-6.22979e-07
1.95273e-06
-1.36672e-07
1.95194e-06
2.9791e-07
1.96947e-06
4.79649e-07
1.97368e-06
4.09728e-07
1.98332e-06
1.64758e-07
1.98632e-06
1.18055e-07
1.98386e-06
-7.82953e-08
1.98544e-06
-1.06595e-08
1.97268e-06
-1.65833e-07
1.97187e-06
-5.45896e-08
1.95811e-06
-1.23334e-07
1.95376e-06
-3.50894e-08
-5.28132e-08
1.94386e-06
2.05047e-06
-1.46291e-07
2.02621e-06
-1.491e-06
2.02914e-06
2.98805e-07
2.05178e-06
9.23033e-07
2.04132e-06
8.59371e-08
2.05431e-06
-4.55557e-07
2.03341e-06
-6.02083e-07
2.02796e-06
-1.31215e-07
2.02792e-06
2.97949e-07
2.04498e-06
4.62591e-07
2.05077e-06
4.03937e-07
2.05877e-06
1.56756e-07
2.06261e-06
1.14211e-07
2.05878e-06
-7.44643e-08
2.06054e-06
-1.24142e-08
2.04759e-06
-1.52884e-07
2.04645e-06
-5.34549e-08
2.03317e-06
-1.10051e-07
2.0287e-06
-3.06179e-08
-4.3474e-08
2.01936e-06
2.12746e-06
-1.46914e-07
2.10464e-06
-1.46818e-06
2.10851e-06
2.94932e-07
2.1303e-06
9.01245e-07
2.11828e-06
9.79528e-08
2.13099e-06
-4.68266e-07
2.11147e-06
-5.82558e-07
2.10597e-06
-1.25714e-07
2.10697e-06
2.96939e-07
2.12307e-06
4.465e-07
2.13062e-06
3.96387e-07
2.13699e-06
1.50378e-07
2.14154e-06
1.09662e-07
2.13659e-06
-6.95135e-08
2.13826e-06
-1.40835e-08
2.12534e-06
-1.39958e-07
2.12379e-06
-5.19068e-08
2.11106e-06
-9.73258e-08
2.10647e-06
-2.60303e-08
-3.4738e-08
2.09774e-06
2.20755e-06
-1.46885e-07
2.18587e-06
-1.44649e-06
2.19037e-06
2.90432e-07
2.21167e-06
8.79942e-07
2.19867e-06
1.10956e-07
2.21057e-06
-4.80163e-07
2.19224e-06
-5.64229e-07
2.18671e-06
-1.20189e-07
2.18915e-06
2.94501e-07
2.20382e-06
4.31831e-07
2.2132e-06
3.87004e-07
2.21808e-06
1.45503e-07
2.2231e-06
1.04644e-07
2.21735e-06
-6.37627e-08
2.21873e-06
-1.54639e-08
2.20597e-06
-1.27202e-07
2.20398e-06
-4.99194e-08
2.19187e-06
-8.52089e-08
2.18721e-06
-2.13769e-08
-2.66281e-08
2.1791e-06
2.29083e-06
-1.4632e-07
2.26995e-06
-1.42561e-06
2.27479e-06
2.85596e-07
2.296e-06
8.58731e-07
2.28268e-06
1.24275e-07
2.29321e-06
-4.90695e-07
2.2758e-06
-5.46823e-07
2.27022e-06
-1.14602e-07
2.2745e-06
2.90221e-07
2.28747e-06
4.18858e-07
2.29861e-06
3.75859e-07
2.30215e-06
1.41966e-07
2.30733e-06
9.94618e-08
2.30111e-06
-5.75363e-08
2.30205e-06
-1.64079e-08
2.28958e-06
-1.14732e-07
2.28711e-06
-4.74449e-08
2.27561e-06
-7.37158e-08
2.27103e-06
-1.67928e-08
-1.91343e-08
2.26353e-06
2.37737e-06
-1.45302e-07
2.35697e-06
-1.40521e-06
2.36192e-06
2.80642e-07
2.38342e-06
8.3723e-07
2.37047e-06
1.37225e-07
2.3791e-06
-4.99321e-07
2.36232e-06
-5.30047e-07
2.35657e-06
-1.08848e-07
2.363e-06
2.83786e-07
2.3743e-06
4.07562e-07
2.38696e-06
3.63199e-07
2.38935e-06
1.39579e-07
2.39437e-06
9.44371e-08
2.38797e-06
-5.11385e-08
2.38832e-06
-1.67599e-08
2.37628e-06
-1.02691e-07
2.37313e-06
-4.42909e-08
2.36219e-06
-6.27724e-08
2.35805e-06
-1.2652e-08
-1.2196e-08
2.35111e-06
2.46726e-06
-1.43884e-07
2.44703e-06
-1.38499e-06
2.45198e-06
2.75699e-07
2.47411e-06
8.15101e-07
2.46216e-06
1.49176e-07
2.4684e-06
-5.05563e-07
2.45203e-06
-5.13677e-07
2.44594e-06
-1.02761e-07
2.45468e-06
2.75048e-07
2.46449e-06
3.97747e-07
2.47833e-06
3.49362e-07
2.47983e-06
1.38084e-07
2.48434e-06
8.99199e-08
2.47807e-06
-4.48613e-08
2.47768e-06
-1.63748e-08
2.46625e-06
-9.12566e-08
2.4617e-06
-3.97438e-08
2.45134e-06
-5.24141e-08
2.4484e-06
-9.71486e-09
-5.71026e-09
2.44192e-06
2.56062e-06
-1.42109e-07
2.54028e-06
-1.36464e-06
2.54517e-06
2.70811e-07
2.5682e-06
7.92071e-07
2.55778e-06
1.59597e-07
2.56125e-06
-5.09034e-07
2.54518e-06
-4.97607e-07
2.53855e-06
-9.61327e-08
2.54957e-06
2.64033e-07
2.55818e-06
3.89136e-07
2.57281e-06
3.34731e-07
2.57371e-06
1.37183e-07
2.57747e-06
8.61597e-08
2.57141e-06
-3.87976e-08
2.57031e-06
-1.52784e-08
2.55956e-06
-8.0503e-08
2.55909e-06
-3.92765e-08
2.55138e-06
-4.47106e-08
2.54224e-06
-5.68268e-10
4.43666e-10
2.53608e-06
2.65758e-06
-1.40014e-07
2.63685e-06
-1.34391e-06
2.6417e-06
2.65959e-07
2.66582e-06
7.67957e-07
2.65733e-06
1.68084e-07
2.65775e-06
-5.09458e-07
2.64201e-06
-4.81868e-07
2.63463e-06
-8.87472e-08
2.64772e-06
2.50942e-07
2.65546e-06
3.814e-07
2.67046e-06
3.19723e-07
2.67114e-06
1.3651e-07
2.67395e-06
8.33471e-08
2.66811e-06
-3.29607e-08
2.66696e-06
-1.4125e-08
2.65451e-06
-6.80499e-08
2.64919e-06
-3.39611e-08
2.6408e-06
-3.6319e-08
2.63902e-06
1.21159e-09
5.73047e-09
2.63373e-06
2.75828e-06
-1.37636e-07
2.7369e-06
-1.32254e-06
2.74178e-06
2.6108e-07
2.76707e-06
7.42669e-07
2.76077e-06
1.74378e-07
2.75801e-06
-5.06696e-07
2.74274e-06
-4.666e-07
2.73443e-06
-8.0434e-08
2.7492e-06
2.36173e-07
2.7565e-06
3.74101e-07
2.7713e-06
3.04923e-07
2.77246e-06
1.35349e-07
2.77373e-06
8.20785e-08
2.76873e-06
-2.79584e-08
2.76712e-06
-1.25164e-08
2.75397e-06
-5.49008e-08
2.74746e-06
-2.74519e-08
2.73971e-06
-2.85717e-08
2.73985e-06
1.07788e-09
1.07399e-08
2.73484e-06
2.86284e-06
-1.35016e-07
2.84062e-06
-1.30032e-06
2.84563e-06
2.56073e-07
2.87206e-06
7.16238e-07
2.86809e-06
1.78345e-07
2.86211e-06
-5.00717e-07
2.84755e-06
-4.52036e-07
2.8382e-06
-7.10864e-08
2.85414e-06
2.20236e-07
2.86149e-06
3.66748e-07
2.87543e-06
2.9098e-07
2.87785e-06
1.32931e-07
2.87713e-06
8.2801e-08
2.87309e-06
-2.39148e-08
2.87236e-06
-1.17957e-08
2.86677e-06
-4.93072e-08
2.86515e-06
-2.58337e-08
2.8581e-06
-2.15144e-08
2.84551e-06
1.36589e-08
1.67318e-08
2.83952e-06
2.97142e-06
-1.32191e-07
2.9482e-06
-1.27709e-06
2.95345e-06
2.50816e-07
2.98089e-06
6.88803e-07
2.97928e-06
1.79956e-07
2.97017e-06
-4.91611e-07
2.95657e-06
-4.38437e-07
2.94615e-06
-6.06641e-08
2.96273e-06
2.03656e-07
2.97051e-06
3.58966e-07
2.98329e-06
2.78205e-07
2.98714e-06
1.29077e-07
2.98482e-06
8.51197e-08
2.98121e-06
-2.0297e-08
2.97584e-06
-6.42816e-09
2.96478e-06
-3.82478e-08
2.95551e-06
-1.65692e-08
2.94997e-06
-1.5966e-08
2.95274e-06
1.08822e-08
2.10017e-08
2.94847e-06
3.08416e-06
-1.29188e-07
3.05985e-06
-1.25279e-06
3.06549e-06
2.45177e-07
3.09369e-06
6.60607e-07
3.09438e-06
1.7926e-07
3.08237e-06
-4.79602e-07
3.06989e-06
-4.25957e-07
3.05848e-06
-4.925e-08
3.07525e-06
1.8689e-07
3.0837e-06
3.5051e-07
3.0952e-06
2.66706e-07
3.10016e-06
1.24115e-07
3.09739e-06
8.7893e-08
3.09417e-06
-1.70765e-08
3.09392e-06
-6.17598e-09
3.09226e-06
-3.6593e-08
3.0893e-06
-1.3605e-08
3.08133e-06
-7.99959e-09
3.06709e-06
2.51257e-08
2.71975e-08
3.06089e-06
3.20121e-06
-1.26034e-07
3.1758e-06
-1.22739e-06
3.18199e-06
2.38995e-07
3.21057e-06
6.32028e-07
3.21356e-06
1.76265e-07
3.19882e-06
-4.6486e-07
3.18765e-06
-4.14791e-07
3.17531e-06
-3.69038e-08
3.19194e-06
1.70256e-07
3.20116e-06
3.41296e-07
3.21182e-06
2.5604e-07
3.21601e-06
1.19924e-07
3.21649e-06
8.7413e-08
3.21003e-06
-1.06168e-08
3.21031e-06
-6.45001e-09
3.19204e-06
-1.83249e-08
3.18386e-06
-5.42447e-09
3.1777e-06
-1.84161e-09
3.18142e-06
2.14029e-08
2.98382e-08
3.17878e-06
3.32272e-06
-1.22738e-07
3.29629e-06
-1.20096e-06
3.30314e-06
2.32147e-07
3.33171e-06
6.03454e-07
3.33689e-06
1.7109e-07
3.31974e-06
-4.47718e-07
3.30976e-06
-4.04803e-07
3.29702e-06
-2.41668e-08
3.31272e-06
1.54555e-07
3.32375e-06
3.30265e-07
3.33231e-06
2.47481e-07
3.33757e-06
1.14666e-07
3.33826e-06
8.67177e-08
3.32503e-06
2.6145e-09
3.32037e-06
-1.79041e-09
3.31123e-06
-9.18195e-09
3.30365e-06
2.15396e-09
3.29768e-06
4.12868e-09
3.30244e-06
1.6644e-08
3.2009e-08
3.30027e-06
3.44886e-06
-1.19311e-07
3.42152e-06
-1.17363e-06
3.42915e-06
2.24517e-07
3.45732e-06
5.7528e-07
3.46448e-06
1.63935e-07
3.44535e-06
-4.28592e-07
3.43622e-06
-3.95672e-07
3.42384e-06
-1.17811e-08
3.43773e-06
1.4066e-07
3.45176e-06
3.16235e-07
3.45665e-06
2.42591e-07
3.46457e-06
1.06748e-07
3.46039e-06
9.08979e-08
3.46336e-06
-3.52568e-10
3.46218e-06
-6.1415e-10
3.4624e-06
-9.40524e-09
3.45805e-06
6.50545e-09
3.45099e-06
1.11897e-08
3.43169e-06
3.59487e-08
3.81912e-08
3.4255e-06
3.5798e-06
-1.15767e-07
3.55165e-06
-1.14548e-06
3.5603e-06
2.15877e-07
3.58746e-06
5.48113e-07
3.59673e-06
1.54668e-07
3.57555e-06
-4.07414e-07
3.5676e-06
-3.87717e-07
3.5552e-06
6.1745e-10
3.56826e-06
1.27602e-07
3.58275e-06
3.0174e-07
3.58913e-06
2.36208e-07
3.59249e-06
1.03391e-07
3.5937e-06
8.96935e-08
3.58082e-06
1.25202e-08
3.57505e-06
5.16322e-09
3.56478e-06
8.64588e-10
3.55858e-06
1.27047e-08
3.55315e-06
1.6616e-08
3.55876e-06
3.03435e-08
3.91902e-08
3.55776e-06
3.71572e-06
-1.12101e-07
3.68692e-06
-1.11668e-06
3.69665e-06
2.0614e-07
3.72253e-06
5.22237e-07
3.73354e-06
1.43662e-07
3.71092e-06
-3.84796e-07
3.70352e-06
-3.80318e-07
3.69216e-06
1.19743e-08
3.70309e-06
1.16671e-07
3.71974e-06
2.85096e-07
3.72532e-06
2.30627e-07
3.72873e-06
9.99786e-08
3.73337e-06
8.50484e-08
3.71609e-06
2.98028e-08
3.70971e-06
1.15453e-08
3.69919e-06
1.13889e-08
3.69338e-06
1.85074e-08
3.68797e-06
2.20322e-08
3.69444e-06
2.38735e-08
3.96449e-08
3.69398e-06
3.85681e-06
-1.08323e-07
3.82749e-06
-1.08735e-06
3.83837e-06
1.95259e-07
3.86282e-06
4.97782e-07
3.87505e-06
1.31437e-07
3.85181e-06
-3.61558e-07
3.84398e-06
-3.7249e-07
3.83525e-06
2.07064e-08
3.84201e-06
1.09909e-07
3.86314e-06
2.63968e-07
3.86248e-06
2.31288e-07
3.86929e-06
9.31684e-08
3.86513e-06
8.92095e-08
3.87577e-06
1.91567e-08
3.87482e-06
1.24966e-08
3.87638e-06
9.83214e-09
3.87207e-06
2.28144e-08
3.8648e-06
2.93044e-08
3.84045e-06
4.82216e-08
4.64542e-08
3.83364e-06
4.0033e-06
-1.04466e-07
3.97343e-06
-1.05748e-06
3.98575e-06
1.82938e-07
4.00826e-06
4.75276e-07
4.02204e-06
1.17655e-07
3.99762e-06
-3.37137e-07
3.9906e-06
-3.65474e-07
3.98179e-06
2.95195e-08
3.98968e-06
1.02016e-07
4.00715e-06
2.46502e-07
4.01576e-06
2.2268e-07
4.01873e-06
9.01915e-08
4.02416e-06
8.37801e-08
4.00252e-06
4.08039e-08
3.99405e-06
2.09602e-08
3.98468e-06
1.92067e-08
3.97941e-06
2.80822e-08
3.97498e-06
3.3736e-08
3.98224e-06
4.09634e-08
4.66815e-08
3.98201e-06
4.15535e-06
-1.00531e-07
4.12503e-06
-1.02717e-06
4.1387e-06
1.69274e-07
4.15948e-06
4.54493e-07
4.17408e-06
1.03052e-07
4.14954e-06
-3.126e-07
4.14209e-06
-3.58018e-07
4.13497e-06
3.66355e-08
4.14164e-06
9.53529e-08
4.15846e-06
2.29681e-07
4.16862e-06
2.12515e-07
4.15741e-06
1.01398e-07
4.15926e-06
8.19369e-08
4.15186e-06
4.82058e-08
4.14549e-06
2.73268e-08
4.13528e-06
2.94203e-08
4.13071e-06
3.26479e-08
4.12585e-06
3.85997e-08
4.1343e-06
3.25108e-08
4.65356e-08
4.13444e-06
4.3132e-06
-9.65405e-08
4.28251e-06
-9.96484e-07
4.29732e-06
1.54465e-07
4.31679e-06
4.3502e-07
4.33126e-06
8.8583e-08
4.30812e-06
-2.89453e-07
4.29791e-06
-3.47812e-07
4.29602e-06
3.85254e-08
4.29656e-06
9.48161e-08
4.31857e-06
2.07665e-07
4.31773e-06
2.13359e-07
4.33225e-06
8.68758e-08
4.33654e-06
7.76448e-08
4.33901e-06
4.57418e-08
4.33679e-06
2.95409e-08
4.33973e-06
2.64798e-08
4.33567e-06
3.67086e-08
4.3283e-06
4.5977e-08
4.29905e-06
6.17583e-08
5.55114e-08
4.29007e-06
4.47711e-06
-9.25605e-08
4.44582e-06
-9.65199e-07
4.46215e-06
1.38138e-07
4.47974e-06
4.1743e-07
4.49505e-06
7.32711e-08
4.47144e-06
-2.65843e-07
4.4628e-06
-3.39168e-07
4.45758e-06
4.37429e-08
4.46391e-06
8.84813e-08
4.47813e-06
1.93446e-07
4.49142e-06
2.00066e-07
4.47715e-06
1.0115e-07
4.47807e-06
7.67265e-08
4.47071e-06
5.31036e-08
4.46522e-06
3.5028e-08
4.45526e-06
3.64351e-08
4.45101e-06
4.09644e-08
4.44756e-06
4.94241e-08
4.4567e-06
5.26186e-08
5.58657e-08
4.45635e-06
4.64722e-06
-8.85777e-08
4.61551e-06
-9.33486e-07
4.63286e-06
1.2079e-07
4.64948e-06
4.00806e-07
4.66405e-06
5.87077e-08
4.6425e-06
-2.44297e-07
4.63126e-06
-3.27926e-07
4.6288e-06
4.62015e-08
4.63368e-06
8.35991e-08
4.6445e-06
1.82629e-07
4.65418e-06
1.90387e-07
4.64437e-06
1.10959e-07
4.64652e-06
7.45804e-08
4.63978e-06
5.98416e-08
4.63458e-06
4.02266e-08
4.62463e-06
4.63867e-08
4.62023e-06
4.53611e-08
4.61699e-06
5.26682e-08
4.62677e-06
4.28371e-08
5.60429e-08
4.62659e-06
4.82382e-06
-8.46103e-08
4.79179e-06
-9.01457e-07
4.80973e-06
1.02852e-07
4.82626e-06
3.84271e-07
4.83809e-06
4.68772e-08
4.82375e-06
-2.2995e-07
4.80274e-06
-3.06922e-07
4.81117e-06
3.7779e-08
4.80351e-06
9.12516e-08
4.82945e-06
1.5669e-07
4.82912e-06
1.90723e-07
4.84405e-06
9.60311e-08
4.84904e-06
6.95869e-08
4.85548e-06
5.33998e-08
4.85418e-06
4.15255e-08
4.85875e-06
4.18157e-08
4.85509e-06
4.90206e-08
4.84504e-06
6.27244e-08
4.81218e-06
7.56901e-08
6.78884e-08
4.80034e-06
5.0072e-06
-8.07399e-08
4.97447e-06
-8.68731e-07
4.99358e-06
8.37506e-08
5.00891e-06
3.68939e-07
5.02119e-06
3.45927e-08
5.00493e-06
-2.13688e-07
4.98848e-06
-2.90468e-07
4.9909e-06
3.53544e-08
4.98793e-06
9.42264e-08
5.00244e-06
1.42177e-07
5.00951e-06
1.83655e-07
5.00206e-06
1.03479e-07
5.00081e-06
7.08321e-08
4.99849e-06
5.57239e-08
4.99243e-06
4.75821e-08
4.98507e-06
4.91841e-08
4.97777e-06
5.63177e-08
4.97742e-06
6.30742e-08
4.98672e-06
6.63876e-08
6.8488e-08
4.98612e-06
5.19748e-06
-7.69076e-08
5.16457e-06
-8.35817e-07
5.1839e-06
6.44164e-08
5.19928e-06
3.53556e-07
5.21022e-06
2.36553e-08
5.19411e-06
-1.97573e-07
5.1814e-06
-2.77763e-07
5.17794e-06
3.88176e-08
5.18173e-06
9.04323e-08
5.18846e-06
1.35445e-07
5.19896e-06
1.73156e-07
5.19076e-06
1.11679e-07
5.19037e-06
7.12278e-08
5.1858e-06
6.02859e-08
5.18293e-06
5.04539e-08
5.1752e-06
5.69179e-08
5.17434e-06
5.71748e-08
5.17296e-06
6.44554e-08
5.17517e-06
6.41787e-08
6.69116e-08
5.17675e-06
5.39502e-06
-7.31524e-08
5.36202e-06
-8.02813e-07
5.38117e-06
4.52641e-08
5.39762e-06
3.37108e-07
5.40487e-06
1.63992e-08
5.39285e-06
-1.85551e-07
5.37702e-06
-2.61929e-07
5.37627e-06
3.95662e-08
5.37433e-06
9.23698e-08
5.38429e-06
1.25491e-07
5.39362e-06
1.63821e-07
5.38794e-06
1.17363e-07
5.38563e-06
7.35335e-08
5.38228e-06
6.36356e-08
5.37906e-06
5.36746e-08
5.37486e-06
6.11231e-08
5.37308e-06
5.89487e-08
5.37315e-06
6.43886e-08
5.37227e-06
6.50645e-08
6.54011e-08
5.37378e-06
5.60008e-06
-6.94894e-08
5.56701e-06
-7.6975e-07
5.58591e-06
2.6367e-08
5.60362e-06
3.194e-07
5.60787e-06
1.21496e-08
5.59726e-06
-1.74944e-07
5.58109e-06
-2.45757e-07
5.58144e-06
3.92173e-08
5.57805e-06
9.57511e-08
5.58708e-06
1.16468e-07
5.59634e-06
1.54561e-07
5.59251e-06
1.21189e-07
5.58884e-06
7.72e-08
5.58628e-06
6.62021e-08
5.58329e-06
5.66606e-08
5.58066e-06
6.37603e-08
5.57685e-06
6.27541e-08
5.57536e-06
6.58788e-08
5.57707e-06
6.33537e-08
6.40005e-08
5.57847e-06
5.81287e-06
-6.58757e-08
5.78025e-06
-7.37136e-07
5.79813e-06
8.48525e-09
5.81848e-06
2.99051e-07
5.81885e-06
1.17812e-08
5.80936e-06
-1.65449e-07
5.79241e-06
-2.28815e-07
5.79418e-06
3.74541e-08
5.79012e-06
9.98123e-08
5.79766e-06
1.08929e-07
5.807e-06
1.45219e-07
5.80473e-06
1.23461e-07
5.80022e-06
8.17019e-08
5.79802e-06
6.84021e-08
5.79515e-06
5.953e-08
5.79357e-06
6.53454e-08
5.79102e-06
6.53042e-08
5.79169e-06
6.52027e-08
5.78972e-06
6.53269e-08
6.269e-08
5.79103e-06
6.03375e-06
-6.23261e-08
6.0017e-06
-7.05085e-07
6.01838e-06
-8.19412e-09
6.04092e-06
2.76509e-07
6.03877e-06
1.39305e-08
6.0288e-06
-1.5548e-07
6.01193e-06
-2.11939e-07
6.01459e-06
3.47871e-08
6.01075e-06
1.03655e-07
6.0164e-06
1.03284e-07
6.02582e-06
1.35795e-07
6.02476e-06
1.24518e-07
6.02e-06
8.6462e-08
6.01789e-06
7.05114e-08
6.01514e-06
6.22781e-08
6.01421e-06
6.6279e-08
6.01062e-06
6.88963e-08
6.00818e-06
6.76383e-08
6.01025e-06
6.32641e-08
6.12785e-08
6.01166e-06
6.26298e-06
-5.88065e-08
6.23171e-06
-6.7381e-07
6.24703e-06
-2.35161e-08
6.27073e-06
2.52808e-07
6.26755e-06
1.71101e-08
6.25659e-06
-1.44518e-07
6.24006e-06
-1.95414e-07
6.24314e-06
3.17139e-08
6.23998e-06
1.06814e-07
6.24364e-06
9.96233e-08
6.25296e-06
1.26476e-07
6.25314e-06
1.24336e-07
6.24842e-06
9.11829e-08
6.24629e-06
7.26402e-08
6.24341e-06
6.5157e-08
6.24314e-06
6.65474e-08
6.24167e-06
7.03692e-08
6.24236e-06
6.69475e-08
6.23953e-06
6.60959e-08
6.02697e-08
6.24054e-06
6.50094e-06
-5.53377e-08
6.47049e-06
-6.43367e-07
6.4844e-06
-3.74257e-08
6.50854e-06
2.28666e-07
6.50568e-06
1.9979e-08
6.49333e-06
-1.32178e-07
6.47706e-06
-1.79135e-07
6.48024e-06
2.85311e-08
6.47808e-06
1.08975e-07
6.47989e-06
9.78122e-08
6.48876e-06
1.17608e-07
6.4901e-06
1.22993e-07
6.48556e-06
9.57211e-08
6.4834e-06
7.47983e-08
6.48053e-06
6.80303e-08
6.48038e-06
6.66971e-08
6.47802e-06
7.27301e-08
6.4757e-06
6.92669e-08
6.47739e-06
6.4409e-08
5.94768e-08
6.47818e-06
6.74789e-06
-5.18852e-08
6.7183e-06
-6.13781e-07
6.73101e-06
-5.01344e-08
6.75501e-06
2.04671e-07
6.75318e-06
2.17997e-08
6.73975e-06
-1.18746e-07
6.72339e-06
-1.62769e-07
6.72639e-06
2.55309e-08
6.72521e-06
1.10151e-07
6.72544e-06
9.7579e-08
6.73338e-06
1.09673e-07
6.73606e-06
1.2031e-07
6.73189e-06
9.98972e-08
6.72972e-06
7.69655e-08
6.72678e-06
7.09666e-08
6.72674e-06
6.674e-08
6.72662e-06
7.28497e-08
6.72739e-06
6.85e-08
6.72461e-06
6.71876e-08
5.93068e-08
6.72478e-06
7.00424e-06
-4.84715e-08
6.97543e-06
-5.84977e-07
6.98711e-06
-6.18142e-08
7.0105e-06
1.8128e-07
7.0104e-06
2.19e-08
6.99611e-06
-1.04458e-07
6.97933e-06
-1.45986e-07
6.98186e-06
2.29978e-08
6.98172e-06
1.10297e-07
6.98082e-06
9.84815e-08
6.98741e-06
1.03076e-07
6.99133e-06
1.16389e-07
6.98759e-06
1.03645e-07
6.98539e-06
7.91647e-08
6.98258e-06
7.37768e-08
6.98234e-06
6.69738e-08
6.98141e-06
7.37804e-08
6.97967e-06
7.0237e-08
6.98103e-06
6.58368e-08
5.94925e-08
6.98084e-06
7.27029e-06
-4.50695e-08
7.24207e-06
-5.56759e-07
7.25319e-06
-7.29318e-08
7.27569e-06
1.58777e-07
7.27902e-06
1.85732e-08
7.26273e-06
-8.81702e-08
7.24533e-06
-1.28589e-07
7.24716e-06
2.11772e-08
7.24783e-06
1.09625e-07
7.24622e-06
1.00088e-07
7.25118e-06
9.8113e-08
7.25615e-06
1.11422e-07
7.25312e-06
1.06677e-07
7.25094e-06
8.13409e-08
7.24834e-06
7.63756e-08
7.24772e-06
6.75951e-08
7.24852e-06
7.29846e-08
7.24942e-06
6.93301e-08
7.24737e-06
6.7894e-08
6.01391e-08
7.24672e-06
7.54645e-06
-4.16904e-08
7.51891e-06
-5.29221e-07
7.52922e-06
-8.32336e-08
7.55104e-06
1.36953e-07
7.55795e-06
1.16605e-08
7.53894e-06
-6.91627e-08
7.52187e-06
-1.11515e-07
7.52265e-06
2.04002e-08
7.52386e-06
1.08407e-07
7.52206e-06
1.01889e-07
7.52534e-06
9.48398e-08
7.53091e-06
1.05852e-07
7.52879e-06
1.08797e-07
7.52651e-06
8.3614e-08
7.52424e-06
7.86509e-08
7.52328e-06
6.85517e-08
7.52338e-06
7.28838e-08
7.5221e-06
7.0615e-08
7.52357e-06
6.64233e-08
6.08284e-08
7.52288e-06
7.83301e-06
-3.82441e-08
7.8068e-06
-5.03013e-07
7.81524e-06
-9.16761e-08
7.83718e-06
1.15019e-07
7.83468e-06
1.41562e-08
7.82347e-06
-5.79484e-08
7.80966e-06
-9.77041e-08
7.80869e-06
2.1367e-08
7.81022e-06
1.06878e-07
7.80868e-06
1.03427e-07
7.81029e-06
9.32261e-08
7.81597e-06
1.00179e-07
7.81501e-06
1.09751e-07
7.81269e-06
8.59377e-08
7.81079e-06
8.05545e-08
7.80946e-06
6.98755e-08
7.81062e-06
7.1723e-08
7.81164e-06
6.96017e-08
7.81035e-06
6.77091e-08
6.14907e-08
7.80969e-06
8.13048e-06
-3.47596e-08
8.10542e-06
-4.7796e-07
8.11152e-06
-9.77783e-08
8.1356e-06
9.09416e-08
8.14242e-06
7.33567e-09
8.14005e-06
-5.55771e-08
8.11199e-06
-6.96465e-08
8.10521e-06
2.81548e-08
8.10731e-06
1.04777e-07
8.10635e-06
1.04384e-07
8.10643e-06
9.31508e-08
8.11174e-06
9.48667e-08
8.11208e-06
1.09414e-07
8.10971e-06
8.8302e-08
8.10827e-06
8.19907e-08
8.10662e-06
7.15266e-08
8.10714e-06
7.12086e-08
8.10591e-06
7.08296e-08
8.10789e-06
6.573e-08
6.1888e-08
8.10749e-06
8.43927e-06
-3.12734e-08
8.41432e-06
-4.53001e-07
8.4214e-06
-1.04862e-07
8.44164e-06
7.07043e-08
8.44697e-06
1.99916e-09
8.43172e-06
-4.03248e-08
8.41618e-06
-5.41028e-08
8.41382e-06
3.05158e-08
8.41586e-06
1.02735e-07
8.41542e-06
1.04824e-07
8.41441e-06
9.41609e-08
8.41881e-06
9.04697e-08
8.42044e-06
1.07781e-07
8.41812e-06
9.06147e-08
8.41707e-06
8.30447e-08
8.41529e-06
7.33101e-08
8.41609e-06
7.04038e-08
8.41713e-06
6.97961e-08
8.41667e-06
6.61847e-08
6.20677e-08
8.41649e-06
8.75974e-06
-2.77309e-08
8.73571e-06
-4.28966e-07