/*--------------------------------*- C++ -*----------------------------------*\
| =========                 |                                                 |
| \\      /  F ield         | OpenFOAM: The Open Source CFD Toolbox           |
|  \\    /   O peration     | Version:  v2012                                 |
|   \\  /    A nd           | Website:  www.openfoam.com                      |
|    \\/     M anipulation  |                                                 |
\*---------------------------------------------------------------------------*/
FoamFile
{
    version     2.0;
    format      ascii;
    class       volVectorField;
    location    "9";
    object      U;
}
// * * * * * * * * * * * * * * * * * * * * * * * * * * * * * * * * * * * * * //

dimensions      [0 1 -1 0 0 0 0];


internalField   nonuniform List<vector> 
7000
(
(0.823974 -0.00231878 0)
(1.10988 -0.0108403 0)
(1.04145 0.00660659 0)
(1.15472 0.00711029 0)
(0.743041 0.00144575 0)
(1.24898 -0.00730184 0)
(0.718246 -0.0135268 0)
(1.27045 0.00135906 0)
(0.826089 0.00170923 0)
(1.14728 0.0182119 0)
(0.899057 0.00746903 0)
(1.07664 0.0106974 0)
(0.926005 0.000565579 0)
(1.05961 -0.00195828 0)
(0.925641 -0.00595083 0)
(1.06293 -0.014658 0)
(0.90472 -0.00863057 0)
(1.07486 -0.0196793 0)
(0.876152 -0.0111085 0)
(1.08452 -0.0209421 0)
(0.834909 -0.00210143 0)
(1.10094 -0.0117804 0)
(1.04176 0.00614207 0)
(1.14851 0.00899956 0)
(0.767841 0.000332255 0)
(1.22726 -0.00676086 0)
(0.748671 -0.014219 0)
(1.25279 0.000727379 0)
(0.852704 0.00254886 0)
(1.12788 0.0178445 0)
(0.934235 0.00821504 0)
(1.04958 0.0105058 0)
(0.969403 0.000857627 0)
(1.02333 -0.00190353 0)
(0.978779 -0.00591669 0)
(1.0106 -0.0142567 0)
(0.970723 -0.00876266 0)
(1.00376 -0.0193369 0)
(0.958564 -0.0105699 0)
(0.99625 -0.0213233 0)
(0.854148 -0.00190704 0)
(1.0852 -0.0126576 0)
(1.04277 0.00583215 0)
(1.1364 0.0107648 0)
(0.811409 -0.000309458 0)
(1.1929 -0.0062614 0)
(0.801661 -0.0148746 0)
(1.21438 0.000153365 0)
(0.902463 0.0036365 0)
(1.0897 0.0171618 0)
(0.977221 0.00913819 0)
(1.01917 0.0100678 0)
(1.00269 0.00129341 0)
(0.999348 -0.00211976 0)
(1.00492 -0.00553667 0)
(0.986663 -0.0141988 0)
(0.996014 -0.00853635 0)
(0.978779 -0.0189569 0)
(0.986212 -0.0104996 0)
(0.971291 -0.0200493 0)
(0.879088 -0.00173009 0)
(1.0643 -0.0134051 0)
(1.04425 0.00558709 0)
(1.12011 0.0120767 0)
(0.864237 -0.000789871 0)
(1.15069 -0.00598313 0)
(0.864426 -0.0152939 0)
(1.16123 -0.000456413 0)
(0.955639 0.00474802 0)
(1.05006 0.0164769 0)
(1.00469 0.00988392 0)
(1.0028 0.00969676 0)
(1.01446 0.00164863 0)
(0.994381 -0.00227997 0)
(1.00905 -0.0050584 0)
(0.984448 -0.0142493 0)
(0.998176 -0.00796641 0)
(0.976259 -0.0190176 0)
(0.98874 -0.00987673 0)
(0.968283 -0.0192454 0)
(0.906758 -0.00154833 0)
(1.04129 -0.0140714 0)
(1.04535 0.00527548 0)
(1.10199 0.01306 0)
(0.916548 -0.00101837 0)
(1.1074 -0.0058741 0)
(0.921317 -0.0154684 0)
(1.10635 -0.00113113 0)
(0.994947 0.00573068 0)
(1.02368 0.0160572 0)
(1.01541 0.0103728 0)
(1.00037 0.00951935 0)
(1.01572 0.00188148 0)
(0.998682 -0.0023133 0)
(1.0075 -0.00461568 0)
(0.989644 -0.0141946 0)
(0.99541 -0.00744078 0)
(0.980671 -0.0190003 0)
(0.985405 -0.00915449 0)
(0.971761 -0.0186179 0)
(0.933996 -0.00136688 0)
(1.01991 -0.0146542 0)
(1.04481 0.00492072 0)
(1.08422 0.013755 0)
(0.960697 -0.00101619 0)
(1.07004 -0.00585876 0)
(0.962493 -0.0154668 0)
(1.06135 -0.00174246 0)
(1.01529 0.00645999 0)
(1.01309 0.0159361 0)
(1.01786 0.0106399 0)
(1.00495 0.00943555 0)
(1.01574 0.00206327 0)
(1.00463 -0.00231053 0)
(1.00731 -0.004168 0)
(0.995059 -0.0140891 0)
(0.994274 -0.00693903 0)
(0.985225 -0.0188333 0)
(0.983292 -0.00849855 0)
(0.975273 -0.0179921 0)
(0.958101 -0.00119651 0)
(1.00315 -0.0151335 0)
(1.04153 0.0045575 0)
(1.06813 0.0141768 0)
(0.992821 -0.000839132 0)
(1.04279 -0.00586087 0)
(0.986578 -0.0153573 0)
(1.03091 -0.00220768 0)
(1.02082 0.00687544 0)
(1.0125 0.0159559 0)
(1.01879 0.0107722 0)
(1.01079 0.0093515 0)
(1.0173 0.00226048 0)
(1.00909 -0.00230972 0)
(1.00901 -0.00369419 0)
(0.998746 -0.0139458 0)
(0.995147 -0.00642319 0)
(0.988361 -0.0185516 0)
(0.983284 -0.00790776 0)
(0.977572 -0.0172785 0)
(0.97741 -0.00104794 0)
(0.992422 -0.0154966 0)
(1.03513 0.00419657 0)
(1.05392 0.0143718 0)
(1.01273 -0.000561998 0)
(1.02593 -0.00582984 0)
(0.99772 -0.0151834 0)
(1.01313 -0.00255091 0)
(1.01841 0.00700341 0)
(1.01502 0.0159491 0)
(1.02015 0.010854 0)
(1.01498 0.00923902 0)
(1.01949 0.00250718 0)
(1.0115 -0.00231597 0)
(1.01108 -0.00319427 0)
(1.00094 -0.0137629 0)
(0.996673 -0.0059072 0)
(0.990462 -0.0181733 0)
(0.984314 -0.00735474 0)
(0.979165 -0.0164686 0)
(0.991466 -0.000930712 0)
(0.987398 -0.0157409 0)
(1.02614 0.00385384 0)
(1.04112 0.014396 0)
(1.02256 -0.000257082 0)
(1.01699 -0.00575282 0)
(1.00151 -0.0149661 0)
(1.00334 -0.00281126 0)
(1.01323 0.00693271 0)
(1.01637 0.0158414 0)
(1.02099 0.01093 0)
(1.01654 0.00909735 0)
(1.02078 0.00280103 0)
(1.01222 -0.00232843 0)
(1.0123 -0.00268519 0)
(1.00228 -0.0135457 0)
(0.997839 -0.00541359 0)
(0.99205 -0.0177018 0)
(0.985452 -0.00683496 0)
(0.980528 -0.0155861 0)
(1.00079 -0.000850722 0)
(0.986594 -0.0158716 0)
(1.01581 0.00355471 0)
(1.0293 0.0142952 0)
(1.02537 2.2724e-05 0)
(1.0128 -0.00564874 0)
(1.00229 -0.0147087 0)
(0.997515 -0.00300248 0)
(1.00766 0.00676153 0)
(1.01509 0.0156326 0)
(1.02005 0.0110141 0)
(1.0156 0.00892803 0)
(1.02041 0.00311611 0)
(1.01185 -0.00235024 0)
(1.01234 -0.00219511 0)
(1.00317 -0.013298 0)
(0.998376 -0.00496046 0)
(0.993316 -0.0171452 0)
(0.986359 -0.00635436 0)
(0.981752 -0.0146585 0)
(1.00643 -0.000808549 0)
(0.988169 -0.0158998 0)
(1.00563 0.00331999 0)
(1.01855 0.0141037 0)
(1.02401 0.00024835 0)
(1.01084 -0.005549 0)
(1.00236 -0.0144086 0)
(0.993552 -0.00313951 0)
(1.00231 0.00656132 0)
(1.01143 0.015352 0)
(1.01709 0.0111019 0)
(1.01289 0.00872342 0)
(1.01854 0.00342338 0)
(1.0109 -0.00238832 0)
(1.01151 -0.00174973 0)
(1.00376 -0.0130232 0)
(0.998456 -0.00455991 0)
(0.99425 -0.016515 0)
(0.987061 -0.00591514 0)
(0.982752 -0.0137079 0)
(1.00952 -0.000799965 0)
(0.990573 -0.0158406 0)
(0.996769 0.00315761 0)
(1.00933 0.0138475 0)
(1.02065 0.000411344 0)
(1.00967 -0.00547948 0)
(1.00242 -0.0140688 0)
(0.99075 -0.00321962 0)
(0.997351 0.00637823 0)
(1.00643 0.0150308 0)
(1.01279 0.0111816 0)
(1.00937 0.0084718 0)
(1.01583 0.00369507 0)
(1.00976 -0.00245154 0)
(1.01027 -0.00136307 0)
(1.00409 -0.0127255 0)
(0.998353 -0.00421601 0)
(0.994832 -0.0158206 0)
(0.987667 -0.00551432 0)
(0.983484 -0.0127502 0)
(1.01101 -0.000817864 0)
(0.992834 -0.0157109 0)
(0.989862 0.00306248 0)
(1.00214 0.0135477 0)
(1.01668 0.000518166 0)
(1.00869 -0.0054529 0)
(1.00238 -0.0136978 0)
(0.988929 -0.00324206 0)
(0.993057 0.00623923 0)
(1.00133 0.0146884 0)
(1.00819 0.0112426 0)
(1.00593 0.00816918 0)
(1.01294 0.00391222 0)
(1.00869 -0.0025439 0)
(1.00904 -0.00103957 0)
(1.00417 -0.0124043 0)
(0.998271 -0.00392699 0)
(0.995111 -0.0150702 0)
(0.988249 -0.00514575 0)
(0.983999 -0.0117946 0)
(1.01154 -0.000854296 0)
(0.994526 -0.0155275 0)
(0.984978 0.00302089 0)
(0.997134 0.013221 0)
(1.01278 0.000582092 0)
(1.00776 -0.00547046 0)
(1.00206 -0.0133051 0)
(0.987926 -0.00321483 0)
(0.989712 0.00615329 0)
(0.997046 0.0143355 0)
(1.00416 0.0112817 0)
(1.00315 0.00781419 0)
(1.01035 0.00407176 0)
(1.00779 -0.00266099 0)
(1.00803 -0.000780853 0)
(1.00403 -0.0120511 0)
(0.998304 -0.00369146 0)
(0.995185 -0.0142738 0)
(0.98883 -0.0048008 0)
(0.984403 -0.0108444 0)
(1.01146 -0.000901841 0)
(0.995589 -0.0153052 0)
(0.981852 0.00301584 0)
(0.994102 0.0128813 0)
(1.00926 0.000618904 0)
(1.00688 -0.00552692 0)
(1.00143 -0.0128991 0)
(0.987501 -0.00315265 0)
(0.987407 0.00611709 0)
(0.994035 0.0139739 0)
(1.00116 0.0113027 0)
(1.00124 0.0074192 0)
(1.00829 0.00417978 0)
(1.00707 -0.0027921 0)
(1.00733 -0.000587109 0)
(1.00373 -0.0116548 0)
(0.998464 -0.00350929 0)
(0.995163 -0.0134421 0)
(0.989407 -0.00447129 0)
(0.984799 -0.00990034 0)
(1.01097 -0.000954206 0)
(0.996128 -0.0150571 0)
(0.980126 0.00303128 0)
(0.992606 0.0125395 0)
(1.00624 0.000643525 0)
(1.00606 -0.00561558 0)
(1.00062 -0.0124854 0)
(0.987426 -0.00307125 0)
(0.986014 0.00611909 0)
(0.992288 0.0136029 0)
(0.999249 0.0113081 0)
(1.00018 0.00700476 0)
(1.0068 0.00424654 0)
(1.00651 -0.00291914 0)
(1.00691 -0.000455218 0)
(1.00333 -0.0112124 0)
(0.998714 -0.00337528 0)
(0.995127 -0.0125832 0)
(0.989966 -0.00415371 0)
(0.98525 -0.00896466 0)
(1.01021 -0.00100626 0)
(0.996282 -0.0147946 0)
(0.979503 0.00305457 0)
(0.992191 0.0122034 0)
(1.00378 0.000667359 0)
(1.00525 -0.00573096 0)
(0.999845 -0.0120687 0)
(0.987558 -0.00298115 0)
(0.985309 0.006144 0)
(0.991548 0.013222 0)
(0.998276 0.0112992 0)
(0.999799 0.00658503 0)
(1.00587 0.00427733 0)
(1.00606 -0.00302797 0)
(1.00672 -0.000376889 0)
(1.00291 -0.0107274 0)
(0.998992 -0.00327976 0)
(0.995127 -0.0117043 0)
(0.990496 -0.00384701 0)
(0.985778 -0.0080419 0)
(1.00929 -0.00105401 0)
(0.996171 -0.0145276 0)
(0.97977 0.00307641 0)
(0.992487 0.0118783 0)
(1.00194 0.000699858 0)
(1.00439 -0.00586908 0)
(0.999263 -0.0116531 0)
(0.987844 -0.00288909 0)
(0.98509 0.00618108 0)
(0.991503 0.0128289 0)
(0.998019 0.0112738 0)
(0.999909 0.00617228 0)
(1.00544 0.00427352 0)
(1.00573 -0.00310657 0)
(1.00667 -0.000344959 0)
(1.00253 -0.010203 0)
(0.999242 -0.0032125 0)
(0.995179 -0.0108143 0)
(0.990982 -0.00354916 0)
(0.986366 -0.00713776 0)
(1.00833 -0.00109476 0)
(0.995891 -0.0142641 0)
(0.980743 0.00309045 0)
(0.993214 0.0115674 0)
(1.0007 0.000748846 0)
(1.00344 -0.00602687 0)
(0.998933 -0.0112434 0)
(0.988275 -0.0027971 0)
(0.985226 0.0062212 0)
(0.991892 0.0124223 0)
(0.998254 0.0112334 0)
(1.00034 0.00577692 0)
(1.0054 0.00423872 0)
(1.00551 -0.00313905 0)
(1.00669 -0.000355814 0)
(1.00222 -0.00964104 0)
(0.999425 -0.00316347 0)
(0.995277 -0.00992279 0)
(0.99142 -0.00325582 0)
(0.986982 -0.00625898 0)
(1.00745 -0.00112692 0)
(0.995522 -0.0140103 0)
(0.982211 0.00309273 0)
(0.994147 0.0112722 0)
(1.00002 0.000820518 0)
(1.00241 -0.00620102 0)
(0.998804 -0.010846 0)
(0.988835 -0.00270241 0)
(0.985635 0.006255 0)
(0.992516 0.0120037 0)
(0.998775 0.0111734 0)
(1.00094 0.00542205 0)
(1.00563 0.00417428 0)
(1.00541 -0.00311878 0)
(1.0067 -0.000399858 0)
(1.00201 -0.00904851 0)
(0.999527 -0.00312306 0)
(0.9954 -0.00903746 0)
(0.991815 -0.0029599 0)
(0.987591 -0.00541192 0)
(1.00671 -0.00115008 0)
(0.995135 -0.0137704 0)
(0.983924 0.00308134 0)
(0.99509 0.0109925 0)
(0.999749 0.000918503 0)
(1.00135 -0.00638675 0)
(0.99876 -0.0104674 0)
(0.989473 -0.0026033 0)
(0.986253 0.00628011 0)
(0.993228 0.0115809 0)
(0.999401 0.011078 0)
(1.00159 0.0051178 0)
(1.00598 0.00408395 0)
(1.0054 -0.00304576 0)
(1.00665 -0.000463027 0)
(1.00188 -0.00843404 0)
(0.999552 -0.00308189 0)
(0.99553 -0.00816859 0)
(0.992175 -0.0026536 0)
(0.988172 -0.0045998 0)
(1.00615 -0.00116494 0)
(0.994789 -0.0135452 0)
(0.985639 0.00305679 0)
(0.995887 0.0107267 0)
(0.999775 0.00104307 0)
(1.00038 -0.00657845 0)
(0.998675 -0.0101103 0)
(0.990105 -0.00250343 0)
(0.987012 0.00629342 0)
(0.993923 0.011167 0)
(0.999998 0.0109405 0)
(1.00219 0.00485784 0)
(1.00632 0.00397064 0)
(1.00543 -0.00291964 0)
(1.0065 -0.000537989 0)
(1.0018 -0.00780128 0)
(0.999516 -0.00302359 0)
(0.995656 -0.00733296 0)
(0.992514 -0.00233728 0)
(0.988721 -0.00382498 0)
(1.00575 -0.00117272 0)
(0.994517 -0.0133339 0)
(0.987167 0.00302121 0)
(0.996441 0.0104723 0)
(0.999991 0.00119068 0)
(0.999602 -0.00676981 0)
(0.998458 -0.00977528 0)
(0.99064 -0.00240399 0)
(0.987848 0.00628537 0)
(0.994541 0.0107752 0)
(1.0005 0.0107562 0)
(1.00269 0.00464597 0)
(1.00655 0.0038223 0)
(1.00547 -0.00274329 0)
(1.00624 -0.000623639 0)
(1.00172 -0.00717195 0)
(0.999436 -0.00291906 0)
(0.99577 -0.00653227 0)
(0.992839 -0.00203287 0)
(0.989242 -0.00310028 0)
(1.00545 -0.00117473 0)
(0.994331 -0.0131341 0)
(0.988403 0.00297762 0)
(0.99673 0.0102259 0)
(1.00033 0.00135506 0)
(0.99911 -0.00695303 0)
(0.99807 -0.00946257 0)
(0.99101 -0.00230337 0)
(0.988703 0.00625353 0)
(0.995065 0.0104114 0)
(1.00089 0.0105209 0)
(1.00308 0.00447474 0)
(1.00662 0.00364297 0)
(1.00548 -0.00252157 0)
(1.00589 -0.000688233 0)
(1.00164 -0.00659299 0)
(0.999324 -0.00278346 0)
(0.995862 -0.00572439 0)
(0.993151 -0.00173171 0)
(0.989745 -0.00244153 0)
(1.00523 -0.00117199 0)
(0.994223 -0.0129431 0)
(0.989319 0.00292955 0)
(0.996795 0.00998245 0)
(1.00077 0.00152775 0)
(0.998961 -0.00712081 0)
(0.997522 -0.00916676 0)
(0.991191 -0.0022024 0)
(0.989532 0.00618639 0)
(0.995507 0.0100865 0)
(1.00121 0.0102364 0)
(1.00338 0.00434879 0)
(1.00652 0.00345828 0)
(1.00544 -0.00229988 0)
(1.00545 -0.000682078 0)
(1.00151 -0.0060211 0)
(0.999196 -0.00270425 0)
(0.995931 -0.00492914 0)
(0.993436 -0.00137651 0)
(0.990226 -0.00182299 0)
(1.00505 -0.00116544 0)
(0.994181 -0.0127577 0)
(0.98993 0.00288029 0)
(0.996707 0.00973647 0)
(1.00128 0.00170216 0)
(0.999158 -0.00726325 0)
(0.996862 -0.00888392 0)
(0.991201 -0.00209564 0)
(0.990305 0.00606556 0)
(0.995878 0.00980753 0)
(1.00148 0.00990699 0)
(1.00359 0.00426506 0)
(1.00628 0.00330439 0)
(1.00534 -0.00208592 0)
(1.00495 -0.000693005 0)
(1.00131 -0.00535241 0)
(0.99905 -0.00261756 0)
(0.995991 -0.00425222 0)
(0.993686 -0.00102089 0)
(0.990676 -0.0012242 0)
(1.00488 -0.00115581 0)
(0.994188 -0.0125744 0)
(0.990271 0.00282888 0)
(0.99654 0.00948929 0)
(1.00183 0.00186352 0)
(0.999656 -0.00736918 0)
(0.996161 -0.00861415 0)
(0.991092 -0.00197765 0)
(0.990999 0.00589681 0)
(0.996186 0.0095677 0)
(1.00172 0.00953774 0)
(1.00372 0.00422338 0)
(1.00593 0.00312457 0)
(1.00518 -0.0018074 0)
(1.00443 -0.000757371 0)
(1.00107 -0.00474019 0)
(0.998867 -0.00240639 0)
(0.996028 -0.00360179 0)
(0.993905 -0.000759034 0)
(0.991094 -0.000711423 0)
(1.00474 -0.00114269 0)
(0.994231 -0.0123925 0)
(0.990381 0.00277886 0)
(0.996351 0.0092293 0)
(1.0024 0.00201413 0)
(1.00037 -0.00744884 0)
(0.995494 -0.0083385 0)
(0.990927 -0.00186107 0)
(0.991602 0.00568724 0)
(0.996423 0.00935423 0)
(1.0019 0.0091576 0)
(1.00376 0.00418266 0)
(1.00552 0.00299015 0)
(1.00496 -0.00164742 0)
(1.00388 -0.000617064 0)
(1.0008 -0.00428221 0)
(0.998677 -0.00218561 0)
(0.996035 -0.00308076 0)
(0.994076 -0.000316739 0)
(0.991489 -0.000194859 0)
(1.00461 -0.00112656 0)
(0.994301 -0.0122098 0)
(0.990304 0.00273715 0)
(0.99618 0.00894992 0)
(1.00295 0.00214365 0)
(1.00121 -0.00747681 0)
(0.994934 -0.0080741 0)
(0.990768 -0.00173242 0)
(0.992111 0.00543953 0)
(0.996583 0.00915704 0)
(1.00202 0.00877745 0)
(1.00372 0.00413065 0)
(1.00505 0.00292842 0)
(1.00469 -0.00147523 0)
(1.00336 -0.000574997 0)
(1.00049 -0.00361723 0)
(0.998463 -0.00197002 0)
(0.996052 -0.00264114 0)
(0.994207 0.000132877 0)
(0.991787 0.000347739 0)
(1.00449 -0.00111106 0)
(0.99439 -0.0120143 0)
(0.990084 0.00267534 0)
(0.996047 0.00868717 0)
(1.00344 0.00221652 0)
(1.00204 -0.00744064 0)
(0.994533 -0.00783426 0)
(0.99066 -0.00157612 0)
(0.992533 0.00511857 0)
(0.996666 0.00900384 0)
(1.00206 0.00833272 0)
(1.00358 0.0041863 0)
(1.00458 0.00270494 0)
(1.00437 -0.00101906 0)
(1.00288 -0.000791781 0)
(1.00018 -0.00294906 0)
(0.998223 -0.00177979 0)
(0.996055 -0.00178031 0)
(0.994314 -0.000131635 0)
(0.992063 0.000522639 0)
(1.0044 -0.00108559 0)
(0.994492 -0.0118308 0)
(0.989772 0.00264416 0)
(0.995962 0.00836004 0)
(1.00386 0.00232038 0)
(1.00279 -0.00741161 0)
(0.994316 -0.00757454 0)
(0.990623 -0.00141442 0)
(0.992892 0.00479785 0)
(0.996685 0.00882294 0)
(1.00201 0.00795927 0)
(1.00337 0.00406273 0)
(1.00412 0.00287136 0)
(1.00404 -0.00114203 0)
(1.00242 -0.000369245 0)
(0.999898 -0.00269664 0)
(0.998058 -0.00144254 0)
(0.995985 -0.00162667 0)
(0.994315 0.00055348 0)
(0.992396 0.00122465 0)
(1.00433 -0.001069 0)
(0.994603 -0.0116131 0)
(0.989419 0.00257953 0)
(0.995926 0.00806995 0)
(1.00418 0.00232843 0)
(1.00338 -0.00725826 0)
(0.99428 -0.00736488 0)
(0.990664 -0.0012083 0)
(0.993208 0.00441511 0)
(0.996665 0.00868351 0)
(1.00188 0.00758512 0)
(1.00314 0.0039833 0)
(1.00365 0.00286563 0)
(1.00373 -0.000844551 0)
(1.00205 -0.000439794 0)
(0.999597 -0.00200319 0)
(0.997815 -0.00125915 0)
(0.996054 -0.00102228 0)
(0.994484 0.00086958 0)
(0.992532 0.00147452 0)
(1.00428 -0.00104802 0)
(0.994715 -0.0113956 0)
(0.989083 0.0025116 0)
(0.995934 0.00776835 0)
(1.00439 0.00230913 0)
(1.00377 -0.00710055 0)
(0.99439 -0.00714989 0)
(0.99076 -0.00102186 0)
(0.993521 0.00409902 0)
(0.996629 0.00840843 0)
(1.00171 0.00731946 0)
(1.00287 0.00382383 0)
(1.00328 0.00292826 0)
(1.00339 -0.000682868 0)
(1.00174 -0.000367589 0)
(0.999399 -0.00170668 0)
(0.997715 -0.000867698 0)
(0.996035 -0.000677572 0)
(0.994421 0.00106756 0)
(0.992793 0.00186732 0)
(1.00423 -0.00100769 0)
(0.994831 -0.0112062 0)
(0.988803 0.00250233 0)
(0.995978 0.00737396 0)
(1.00451 0.0023634 0)
(1.00396 -0.00698157 0)
(0.99461 -0.00689291 0)
(0.990899 -0.000843394 0)
(0.993834 0.00381797 0)
(0.996608 0.00817946 0)
(1.00152 0.00704589 0)
(1.00264 0.00360574 0)
(1.0029 0.00318399 0)
(1.00313 -0.000777505 0)
(1.0015 2.08308e-05 0)
(0.99922 -0.00159891 0)
(0.997557 -0.000334788 0)
(0.996134 -0.000652625 0)
(0.994669 0.00185861 0)
(0.992925 0.00264702 0)
(1.00418 -0.00100219 0)
(0.994949 -0.0109237 0)
(0.98862 0.00237558 0)
(0.996043 0.00711958 0)
(1.00454 0.00222648 0)
(1.00397 -0.00662593 0)
(0.994887 -0.0068043 0)
(0.991046 -0.000530563 0)
(0.994178 0.00329066 0)
(0.996605 0.00814487 0)
(1.00133 0.00662659 0)
(1.00242 0.00368734 0)
(1.00261 0.00280299 0)
(1.00288 8.05168e-05 0)
(1.00132 -0.000370735 0)
(0.999117 -0.000442651 0)
(0.997516 -0.0001337 0)
(0.996215 0.000287548 0)
(0.994779 0.00113026 0)
(0.993108 0.00208147 0)
(1.00411 -0.000969479 0)
(0.995081 -0.0106977 0)
(0.988541 0.00232316 0)
(0.996131 0.00677051 0)
(1.00451 0.00216273 0)
(1.00385 -0.00639884 0)
(0.995173 -0.00664846 0)
(0.9912 -0.000294325 0)
(0.994527 0.00307089 0)
(0.996652 0.00765673 0)
(1.00115 0.0065917 0)
(1.00222 0.00332308 0)
(1.00241 0.00304642 0)
(1.00266 4.0792e-05 0)
(1.00126 -5.5786e-05 0)
(0.999121 -0.000397427 0)
(0.997473 0.000283744 0)
(0.996232 0.000395868 0)
(0.994875 0.00173847 0)
(0.993418 0.00279463 0)
(1.00402 -0.000922346 0)
(0.995223 -0.0104853 0)
(0.988569 0.00228678 0)
(0.996236 0.00640004 0)
(1.00441 0.00213051 0)
(1.00364 -0.00621375 0)
(0.995447 -0.00637773 0)
(0.991367 -0.0001946 0)
(0.994855 0.002975 0)
(0.996742 0.00721842 0)
(1.00097 0.00652762 0)
(1.00208 0.00303075 0)
(1.00221 0.0033032 0)
(1.00249 7.80399e-06 0)
(1.00118 0.000191302 0)
(0.999122 -0.000531627 0)
(0.997522 0.000575915 0)
(0.996433 0.000652145 0)
(0.995196 0.0025314 0)
(0.993595 0.00359523 0)
(1.00391 -0.0009235 0)
(0.99537 -0.0101676 0)
(0.988705 0.0021227 0)
(0.996342 0.00617965 0)
(1.00428 0.00189667 0)
(1.00337 -0.00570775 0)
(0.995702 -0.00641494 0)
(0.991524 0.000254076 0)
(0.995188 0.00237547 0)
(0.996849 0.00718981 0)
(1.00081 0.00611978 0)
(1.00194 0.00324146 0)
(1.00208 0.00272986 0)
(1.00231 0.00109035 0)
(1.00118 0.000318509 0)
(0.999192 0.000621679 0)
(0.997616 0.00080532 0)
(0.996605 0.0015767 0)
(0.995462 0.00165201 0)
(0.993884 0.00261611 0)
(1.00378 -0.000881358 0)
(0.995535 -0.00993247 0)
(0.988917 0.00204283 0)
(0.996457 0.00586237 0)
(1.00412 0.00176493 0)
(1.00309 -0.00543108 0)
(0.995933 -0.00625116 0)
(0.991681 0.000330478 0)
(0.995488 0.0023833 0)
(0.997 0.00649928 0)
(1.00065 0.00618693 0)
(1.00178 0.00292055 0)
(1.00204 0.00306733 0)
(1.00223 0.000853853 0)
(1.00118 0.000518508 0)
(0.999278 0.000515724 0)
(0.997774 0.00115243 0)
(0.996663 0.00158595 0)
(0.9955 0.00246421 0)
(0.994239 0.00343058 0)
(1.00363 -0.000829021 0)
(0.99571 -0.00970896 0)
(0.989185 0.0019813 0)
(0.996578 0.0055255 0)
(1.00393 0.00168692 0)
(1.0028 -0.00524011 0)
(0.996123 -0.00596715 0)
(0.991896 0.00030599 0)
(0.995744 0.00241905 0)
(0.997162 0.00582498 0)
(1.0005 0.00633449 0)
(1.00168 0.00259201 0)
(1.00189 0.00309495 0)
(1.00205 0.000832211 0)
(1.00122 0.000709967 0)
(0.999403 0.000425062 0)
(0.997902 0.00152449 0)
(0.996986 0.00158649 0)
(0.99601 0.00326207 0)
(0.994475 0.00433178 0)
(1.00348 -0.00083772 0)
(0.995879 -0.0093586 0)
(0.989509 0.00175 0)
(0.996678 0.0053917 0)
(1.00374 0.00136757 0)
(1.00252 -0.00462111 0)
(0.996325 -0.00609269 0)
(0.992103 0.000791333 0)
(0.995982 0.00185841 0)
(0.997351 0.00592094 0)
(1.00035 0.00562851 0)
(1.00148 0.00304322 0)
(1.00188 0.00267706 0)
(1.00198 0.0020094 0)
(1.00121 0.00105957 0)
(0.999518 0.00150185 0)
(0.998061 0.00154954 0)
(0.997134 0.00280062 0)
(0.996259 0.00238935 0)
(0.994798 0.0031099 0)
(1.00332 -0.000784799 0)
(0.996063 -0.00912417 0)
(0.989852 0.0016446 0)
(0.996772 0.00510519 0)
(1.00354 0.00123243 0)
(1.00225 -0.00437804 0)
(0.99651 -0.00586214 0)
(0.992342 0.000716859 0)
(0.996212 0.00204207 0)
(0.997509 0.00517051 0)
(1.00022 0.00569679 0)
(1.00139 0.00283956 0)
(1.00184 0.00275314 0)
(1.00186 0.00183611 0)
(1.00125 0.00122811 0)
(0.999602 0.00136693 0)
(0.998344 0.00192669 0)
(0.997301 0.00264929 0)
(0.996247 0.00323031 0)
(0.995124 0.00405741 0)
(1.00316 -0.000730182 0)
(0.996252 -0.00888923 0)
(0.990207 0.00155754 0)
(0.996861 0.00482979 0)
(1.00333 0.00112595 0)
(1.00202 -0.0042104 0)
(0.996676 -0.00550155 0)
(0.992633 0.000566437 0)
(0.996389 0.00210997 0)
(0.997731 0.00449911 0)
(1.0001 0.00583159 0)
(1.00118 0.00263526 0)
(1.0018 0.0026484 0)
(1.0018 0.00169267 0)
(1.00122 0.00147965 0)
(0.999757 0.00123439 0)
(0.998456 0.00233169 0)
(0.997568 0.00243286 0)
(0.996789 0.00409605 0)
(0.995378 0.00510238 0)
(1.00301 -0.000756572 0)
(0.996421 -0.00849034 0)
(0.990586 0.00123089 0)
(0.996916 0.00479425 0)
(1.00313 0.000754305 0)
(1.00178 -0.00352901 0)
(0.996857 -0.00570794 0)
(0.992918 0.0010503 0)
(0.996594 0.00160189 0)
(0.997913 0.00475643 0)
(1.00001 0.00494591 0)
(1.00102 0.00336753 0)
(1.00175 0.00258213 0)
(1.00173 0.00243103 0)
(1.00123 0.00156489 0)
(0.999842 0.00237331 0)
(0.99866 0.00222184 0)
(0.997826 0.00375199 0)
(0.997072 0.00332827 0)
(0.995628 0.00393919 0)
(1.00286 -0.000672562 0)
(0.996601 -0.00830186 0)
(0.990956 0.00116139 0)
(0.996968 0.00447445 0)
(1.00293 0.000696768 0)
(1.00157 -0.00346639 0)
(0.997058 -0.00524757 0)
(0.993201 0.000817793 0)
(0.996772 0.00181725 0)
(0.998095 0.00401953 0)
(0.999953 0.00512651 0)
(1.00088 0.00314715 0)
(1.00171 0.00243484 0)
(1.00165 0.00220348 0)
(1.00129 0.00179512 0)
(0.999972 0.00213238 0)
(0.998945 0.00266855 0)
(0.997975 0.00364545 0)
(0.997001 0.00396059 0)
(0.995941 0.00475446 0)
(1.0027 -0.000647616 0)
(0.99679 -0.00800384 0)
(0.99132 0.000989603 0)
(0.997028 0.00428851 0)
(1.00271 0.000576748 0)
(1.0014 -0.00338171 0)
(0.997214 -0.0047748 0)
(0.993533 0.000475797 0)
(0.996932 0.0021226 0)
(0.998321 0.00335019 0)
(0.999905 0.00520389 0)
(1.00067 0.00285221 0)
(1.00163 0.00238819 0)
(1.00164 0.00191118 0)
(1.00126 0.00198642 0)
(1.0001 0.00199265 0)
(0.999126 0.00297601 0)
(0.998269 0.00346875 0)
(0.997538 0.00516527 0)
(0.996146 0.00598415 0)
(1.00257 -0.000662175 0)
(0.996948 -0.00761436 0)
(0.991708 0.000667332 0)
(0.997061 0.00423912 0)
(1.00251 0.000296536 0)
(1.00122 -0.00290111 0)
(0.997396 -0.00478741 0)
(0.993855 0.000781592 0)
(0.997099 0.00186805 0)
(0.998501 0.00334492 0)
(0.9999 0.00469857 0)
(1.0005 0.00334344 0)
(1.00158 0.00238377 0)
(1.00161 0.00232282 0)
(1.00135 0.00206054 0)
(1.00025 0.00275316 0)
(0.999347 0.00301336 0)
(0.998672 0.00422638 0)
(0.997845 0.00496227 0)
(0.996246 0.00542784 0)
(1.00243 -0.000561121 0)
(0.997115 -0.00744043 0)
(0.992084 0.000613679 0)
(0.997087 0.00390846 0)
(1.00231 0.000284144 0)
(1.00105 -0.00281011 0)
(0.997586 -0.00444355 0)
(0.994165 0.000748192 0)
(0.997246 0.00189304 0)
(0.998701 0.00308153 0)
(0.999929 0.00453532 0)
(1.00034 0.00347258 0)
(1.0015 0.00248453 0)
(1.00161 0.00237274 0)
(1.00141 0.00228156 0)
(1.00038 0.00289809 0)
(0.999612 0.00329615 0)
(0.998941 0.00420718 0)
(0.99802 0.00451928 0)
(0.996403 0.00511708 0)
(1.00229 -0.000592294 0)
(0.997279 -0.00704903 0)
(0.992456 0.000308036 0)
(0.997119 0.00382139 0)
(1.00211 0.000166238 0)
(1.0009 -0.00266531 0)
(0.997779 -0.00418669 0)
(0.994487 0.000742297 0)
(0.99739 0.00199788 0)
(0.998878 0.00286671 0)
(0.999972 0.00423166 0)
(1.0002 0.00362134 0)
(1.00141 0.00258179 0)
(1.00161 0.00250542 0)
(1.00151 0.00238994 0)
(1.00055 0.003147 0)
(0.999786 0.00345866 0)
(0.99912 0.0040463 0)
(0.998246 0.00442102 0)
(0.996654 0.00512745 0)
(1.00216 -0.000530211 0)
(0.997437 -0.0067984 0)
(0.992828 0.000186659 0)
(0.997152 0.00355238 0)
(1.00192 0.000123224 0)
(1.00076 -0.00246838 0)
(0.997973 -0.00392184 0)
(0.994812 0.000713855 0)
(0.997514 0.00205736 0)
(0.999036 0.00263661 0)
(1.00006 0.00400976 0)
(1.00009 0.00374967 0)
(1.00132 0.00272824 0)
(1.00161 0.00258134 0)
(1.00161 0.00252287 0)
(1.00071 0.00319131 0)
(0.999936 0.00356251 0)
(0.999327 0.00406255 0)
(0.998506 0.00452019 0)
(0.996894 0.00507733 0)
(1.00203 -0.000513386 0)
(0.997594 -0.00648733 0)
(0.993193 -2.45523e-05 0)
(0.997188 0.00330126 0)
(1.00173 0.000192164 0)
(1.00063 -0.00236422 0)
(0.998159 -0.00366679 0)
(0.995141 0.000682475 0)
(0.997639 0.00216856 0)
(0.999186 0.00250484 0)
(1.00016 0.00376194 0)
(1 0.00376342 0)
(1.00122 0.00286624 0)
(1.00161 0.00267792 0)
(1.00171 0.00264498 0)
(1.00089 0.0032543 0)
(1.00011 0.00376421 0)
(0.999523 0.0041922 0)
(0.998717 0.0045725 0)
(0.9971 0.0049553 0)
(1.0019 -0.000485574 0)
(0.997735 -0.00620764 0)
(0.993561 -0.000169281 0)
(0.997243 0.0030586 0)
(1.00154 0.000188355 0)
(1.00049 -0.00221213 0)
(0.998354 -0.00335854 0)
(0.99548 0.000625593 0)
(0.997756 0.00222693 0)
(0.999304 0.00238421 0)
(1.00028 0.00349299 0)
(0.999958 0.00377444 0)
(1.00113 0.0030577 0)
(1.00161 0.00278617 0)
(1.00181 0.0027746 0)
(1.00109 0.00327411 0)
(1.0003 0.00390875 0)
(0.999689 0.00424628 0)
(0.998885 0.00457894 0)
(0.997289 0.00483395 0)
(1.00178 -0.000452008 0)
(0.99788 -0.00593282 0)
(0.99392 -0.000307629 0)
(0.997291 0.00274133 0)
(1.00138 0.00024425 0)
(1.00036 -0.00200357 0)
(0.998528 -0.00309637 0)
(0.995807 0.00054014 0)
(0.997878 0.00228556 0)
(0.999417 0.0023422 0)
(1.00041 0.00325108 0)
(0.999953 0.00375497 0)
(1.00104 0.00321764 0)
(1.00159 0.00284274 0)
(1.00189 0.00288975 0)
(1.0013 0.00326157 0)
(1.00049 0.00400112 0)
(0.999847 0.00430691 0)
(0.999032 0.00462876 0)
(0.99746 0.00477457 0)
(1.00166 -0.000432827 0)
(0.998006 -0.00565135 0)
(0.994274 -0.000466211 0)
(0.997368 0.0024913 0)
(1.00122 0.000283609 0)
(1.00023 -0.00184263 0)
(0.9987 -0.00284771 0)
(0.996151 0.00050306 0)
(0.998006 0.00234073 0)
(0.999493 0.00232217 0)
(1.00054 0.00301222 0)
(0.999982 0.00368865 0)
(1.00097 0.00336718 0)
(1.00158 0.00294504 0)
(1.00198 0.00303077 0)
(1.00151 0.00327021 0)
(1.00072 0.00407351 0)
(1.00001 0.00435676 0)
(0.999155 0.00468553 0)
(0.997607 0.00473952 0)
(1.00155 -0.000397156 0)
(0.998137 -0.00540428 0)
(0.994623 -0.000559617 0)
(0.997434 0.00219328 0)
(1.00107 0.00028637 0)
(1.00011 -0.00161025 0)
(0.99886 -0.00253983 0)
(0.996481 0.000431344 0)
(0.998136 0.00231883 0)
(0.999564 0.00231583 0)
(1.00068 0.00282346 0)
(1.00006 0.00358962 0)
(1.0009 0.00349613 0)
(1.00156 0.0030229 0)
(1.00203 0.0031547 0)
(1.00172 0.00327333 0)
(1.00094 0.0040887 0)
(1.00017 0.00437641 0)
(0.999271 0.00473154 0)
(0.997725 0.00473844 0)
(1.00145 -0.000374983 0)
(0.998253 -0.00514035 0)
(0.99496 -0.000696729 0)
(0.997528 0.00194323 0)
(1.00094 0.000278796 0)
(0.999987 -0.00140183 0)
(0.999002 -0.002272 0)
(0.996811 0.000401489 0)
(0.998281 0.00233471 0)
(0.999613 0.00237925 0)
(1.00081 0.00267613 0)
(1.00016 0.00343677 0)
(1.00086 0.00360008 0)
(1.00155 0.00310089 0)
(1.0021 0.00328846 0)
(1.00191 0.00330002 0)
(1.00119 0.00407535 0)
(1.00036 0.00439453 0)
(0.999391 0.00476167 0)
(0.997833 0.00478328 0)
(1.00134 -0.000337848 0)
(0.998371 -0.00490252 0)
(0.995293 -0.000779656 0)
(0.99761 0.0016886 0)
(1.00083 0.000177525 0)
(0.999886 -0.00118009 0)
(0.999137 -0.00198429 0)
(0.997132 0.000384876 0)
(0.998434 0.0022997 0)
(0.999658 0.0024195 0)
(1.00092 0.00257006 0)
(1.0003 0.00327907 0)
(1.00085 0.00371865 0)
(1.00154 0.00320875 0)
(1.00214 0.00341173 0)
(1.00208 0.00335153 0)
(1.00144 0.00405229 0)
(1.00056 0.00439073 0)
(0.999529 0.00477504 0)
(0.997923 0.00484304 0)
(1.00124 -0.000335545 0)
(0.998473 -0.00461401 0)
(0.995615 -0.00093157 0)
(0.997713 0.00147351 0)
(1.00073 0.000152 0)
(0.999784 -0.000846344 0)
(0.999245 -0.00172723 0)
(0.997441 0.000335395 0)
(0.998602 0.00222467 0)
(0.999699 0.00243645 0)
(1.00101 0.00249678 0)
(1.00047 0.0030881 0)
(1.00087 0.00374047 0)
(1.00153 0.00326969 0)
(1.00219 0.00348286 0)
(1.00223 0.00339992 0)
(1.00168 0.00400389 0)
(1.00078 0.00439542 0)
(0.99969 0.00476446 0)
(0.998017 0.00490836 0)
(1.00115 -0.000280301 0)
(0.99858 -0.00444108 0)
(0.995929 -0.000943302 0)
(0.997804 0.0011567 0)
(1.00066 0.000157302 0)
(0.999707 -0.000816319 0)
(0.999338 -0.00137344 0)
(0.997737 0.000437781 0)
(0.998773 0.00221256 0)
(0.999738 0.00247692 0)
(1.00108 0.00249174 0)
(1.00064 0.00292422 0)
(1.00092 0.00376647 0)
(1.00153 0.00338496 0)
(1.00223 0.00357044 0)
(1.00236 0.00348994 0)
(1.00193 0.00398806 0)
(1.00101 0.00441404 0)
(0.999877 0.00473269 0)
(0.998117 0.0049372 0)
(1.00106 -0.000260272 0)
(0.998675 -0.00419608 0)
(0.996225 -0.00103446 0)
(0.997917 0.000901056 0)
(1.0006 7.30894e-05 0)
(0.999643 -0.000764426 0)
(0.999455 -0.00101745 0)
(0.998013 0.000581285 0)
(0.998945 0.0022315 0)
(0.999783 0.00253001 0)
(1.00114 0.0025263 0)
(1.00084 0.00278093 0)
(1.00102 0.00373166 0)
(1.00154 0.00347554 0)
(1.00228 0.00362942 0)
(1.00248 0.00360618 0)
(1.00215 0.00396244 0)
(1.00123 0.00442036 0)
(1.00006 0.00467941 0)
(0.998219 0.00495061 0)
(1.00098 -0.000247554 0)
(0.998767 -0.00394705 0)
(0.996515 -0.00110899 0)
(0.99802 0.000730878 0)
(1.00055 -4.18164e-05 0)
(0.999603 -0.000465023 0)
(0.999549 -0.000757261 0)
(0.998277 0.000600411 0)
(0.999123 0.0021449 0)
(0.999838 0.00250193 0)
(1.00118 0.0025511 0)
(1.00101 0.00265204 0)
(1.00114 0.00362919 0)
(1.00156 0.00354318 0)
(1.00232 0.00365666 0)
(1.00257 0.00367336 0)
(1.00236 0.00391205 0)
(1.00144 0.00438748 0)
(1.00025 0.00462111 0)
(0.998347 0.0049476 0)
(1.0009 -0.00019821 0)
(0.998851 -0.00376684 0)
(0.996791 -0.0011278 0)
(0.998128 0.000506973 0)
(1.00053 -6.51751e-05 0)
(0.99958 -0.000319665 0)