/*--------------------------------*- C++ -*----------------------------------*\
| =========                 |                                                 |
| \\      /  F ield         | OpenFOAM: The Open Source CFD Toolbox           |
|  \\    /   O peration     | Version:  v2012                                 |
|   \\  /    A nd           | Website:  www.openfoam.com                      |
|    \\/     M anipulation  |                                                 |
\*---------------------------------------------------------------------------*/
FoamFile
{
    version     2.0;
    format      ascii;
    class       volScalarField;
    location    "3.8";
    object      p;
}
// * * * * * * * * * * * * * * * * * * * * * * * * * * * * * * * * * * * * * //

dimensions      [0 2 -2 0 0 0 0];


internalField   nonuniform List<scalar> 
7000
(
3.02328e-11
0.00407539
-0.00135781
0.00356109
0.00743837
0.00919159
0.00643486
0.0102254
0.010569
0.0113638
0.0120431
0.013831
0.0151634
0.0166872
0.0158742
0.017966
0.0177524
0.0206532
0.0221257
0.0280438
-1.13436e-07
0.0040893
-0.00134828
0.00353804
0.00744612
0.00919631
0.00643111
0.010228
0.0105551
0.0113539
0.0120466
0.0138418
0.0151717
0.0166857
0.0158901
0.0179569
0.017777
0.0206274
0.0221318
0.0277216
1.53089e-06
0.00410247
-0.00134062
0.003513
0.00746483
0.00919923
0.00642853
0.01022
0.0105286
0.0113503
0.0120506
0.0138728
0.0151803
0.0166844
0.0159165
0.0179377
0.0178185
0.0205749
0.0221363
0.0273005
5.08253e-06
0.00411078
-0.00133611
0.00351466
0.00749465
0.0091989
0.00643345
0.010194
0.0104991
0.0113583
0.0120502
0.0139195
0.0151872
0.0166806
0.0159498
0.0179126
0.0178733
0.0205091
0.0221412
0.0268563
1.09701e-05
0.00411433
-0.00132961
0.00354439
0.00753409
0.00919491
0.00645079
0.0101514
0.0104685
0.0113712
0.0120501
0.0139755
0.0151955
0.0166718
0.0159879
0.0178844
0.0179374
0.0204412
0.0221393
0.0264316
1.9475e-05
0.00411329
-0.00131848
0.00359467
0.00757964
0.00918758
0.00648279
0.0100971
0.0104367
0.0113867
0.0120567
0.0140362
0.0152078
0.0166563
0.01603
0.0178535
0.0180083
0.0203757
0.0221307
0.0260399
3.03473e-05
0.00410805
-0.00130163
0.00365838
0.00762598
0.00917762
0.00652831
0.0100367
0.0104051
0.0114054
0.0120731
0.0140988
0.0152249
0.0166333
0.0160751
0.0178193
0.018084
0.0203143
0.0221156
0.0256811
4.29057e-05
0.0040995
-0.0012782
0.00372916
0.00766725
0.00916552
0.00658412
0.00997585
0.0103745
0.0114272
0.0120995
0.0141609
0.0152458
0.0166024
0.0161218
0.0177817
0.0181617
0.0202567
0.0220936
0.0253515
5.63951e-05
0.00408892
-0.0012474
0.00380207
0.00769865
0.00915128
0.00664681
0.00991726
0.0103439
0.0114502
0.0121335
0.0142195
0.0152683
0.0165631
0.0161686
0.0177409
0.018238
0.0202031
0.0220637
0.0250469
7.031e-05
0.00407778
-0.00120847
0.00387456
0.00771713
0.00913459
0.00671399
0.00986123
0.0103116
0.0114721
0.0121717
0.0142715
0.0152901
0.0165147
0.0162139
0.0176975
0.0183098
0.0201531
0.0220241
0.0247641
8.44778e-05
0.00406742
-0.00115973
0.00394624
0.00772119
0.00911508
0.0067846
0.00980699
0.0102773
0.0114905
0.01221
0.0143126
0.0153089
0.0164572
0.0162563
0.0176525
0.018374
0.0201064
0.0219727
0.0244995
9.89569e-05
0.00405886
-0.00109973
0.00401787
0.0077105
0.00909254
0.00685856
0.00975441
0.0102419
0.0115036
0.0122454
0.0143404
0.015323
0.0163906
0.0162951
0.0176072
0.0184281
0.0200619
0.0219085
0.0242494
0.000113896
0.00405261
-0.00102717
0.00409042
0.00768564
0.00906691
0.0069364
0.00970445
0.0102077
0.0115112
0.012276
0.0143533
0.0153317
0.0163154
0.0163293
0.0175632
0.0184702
0.0200183
0.0218308
0.02401
0.000129439
0.00404874
-0.000941637
0.00416439
0.00764811
0.00903821
0.00701863
0.00965885
0.0101772
0.0115138
0.0123015
0.0143509
0.0153353
0.0162332
0.0163576
0.0175218
0.0184991
0.0199737
0.0217397
0.023778
0.000145694
0.00404697
-0.000843788
0.00423966
0.0076002
0.00900653
0.00710547
0.00961925
0.0101527
0.0115129
0.0123228
0.0143341
0.0153345
0.0161458
0.0163786
0.0174836
0.0185142
0.0199262
0.0216354
0.0235496
0.000162732
0.00404691
-0.000735154
0.00431572
0.00754464
0.00897199
0.00719674
0.0095864
0.0101353
0.0115095
0.0123417
0.0143048
0.0153308
0.0160557
0.0163912
0.0174491
0.0185156
0.019874
0.0215188
0.0233217
0.000180599
0.00404815
-0.000617634
0.00439198
0.00748422
0.00893474
0.00729199
0.00956009
0.010125
0.0115042
0.0123597
0.0142654
0.0153236
0.0159654
0.0163941
0.0174182
0.0185041
0.0198153
0.0213908
0.0230917
0.000199335
0.00405036
-0.000493049
0.0044679
0.00742139
0.00889487
0.00739061
0.00953946
0.0101209
0.0114968
0.0123783
0.0142184
0.0153132
0.0158773
0.0163866
0.01739
0.0184802
0.0197484
0.0212526
0.0228586
0.000218982
0.00405332
-0.000362879
0.00454307
0.00735814
0.00885246
0.00749195
0.00952335
0.0101219
0.011487
0.0123983
0.0141664
0.0152994
0.0157934
0.0163684
0.0173633
0.0184451
0.019672
0.0211048
0.0226216
0.000239592
0.00405687
-0.0002282
0.00461722
0.00729601
0.00880753
0.00759543
0.00951061
0.0101268
0.0114743
0.0124199
0.014112
0.015281
0.0157148
0.0163391
0.0173365
0.0184004
0.0195854
0.0209476
0.0223804
0.000261226
0.00406091
-8.97468e-05
0.00469011
0.00723611
0.00876013
0.00770048
0.00950022
0.0101346
0.0114588
0.0124426
0.0140571
0.0152574
0.0156425
0.0162991
0.0173077
0.0183477
0.0194883
0.0207818
0.022135
0.000283963
0.00406539
5.20111e-05
0.00476154
0.00717928
0.00871028
0.00780656
0.0094914
0.0101444
0.0114408
0.0124654
0.0140032
0.0152275
0.0155763
0.0162495
0.0172746
0.0182871
0.0193804
0.020608
0.0218862
0.00030789
0.00407027
0.000196813
0.00483132
0.00712612
0.00865806
0.00791315
0.00948357
0.0101557
0.0114206
0.0124866
0.0139516
0.0151909
0.0155152
0.0161921
0.0172348
0.0182181
0.0192625
0.0204275
0.0216344
0.000333106
0.00407556
0.00034457
0.00489926
0.00707705
0.00860352
0.00801979
0.00947645
0.0101675
0.011399
0.0125048
0.0139033
0.0151473
0.0154573
0.0161279
0.0171875
0.0181408
0.0191343
0.0202406
0.0213805
0.000359713
0.00408124
0.000495328
0.0049652
0.00703236
0.00854679
0.00812601
0.00947004
0.0101788
0.0113774
0.012519
0.0138583
0.0150967
0.0154006
0.0160577
0.0171322
0.0180556
0.0189953
0.0200475
0.0211253
0.000387826
0.0040873
0.000649207
0.005029
0.00699213
0.00848811
0.00823138
0.00946454
0.0101885
0.0113568
0.0125283
0.0138164
0.0150392
0.0153433
0.0159825
0.0170669
0.0179618
0.0188478
0.0198486
0.020869
0.000417561
0.00409374
0.000806297
0.00509053
0.00695648
0.00842766
0.00833539
0.00946068
0.0101955
0.011338
0.0125321
0.013777
0.0149763
0.015283
0.0159028
0.0169931
0.0178564
0.0186926
0.0196481
0.0206082
0.000449051
0.0041005
0.00096671
0.00514959
0.00692556
0.0083658
0.00843726
0.00945935
0.0101989
0.0113217
0.01253
0.0137385
0.0149102
0.0152186
0.0158165
0.0169122
0.0177457
0.0185218
0.0194457
0.0203506
0.000482458
0.00410754
0.00113051
0.00520607
0.00689927
0.00830312
0.00853624
0.00946112
0.0101978
0.0113082
0.0125228
0.0136997
0.014841
0.0151518
0.0157213
0.0168179
0.0176427
0.0183352
0.0192124
0.0201026
0.000517899
0.00411485
0.00129763
0.00525989
0.00687769
0.00823998
0.00863149
0.00946721
0.0101911
0.0112975
0.012511
0.0136602
0.014767
0.0150824
0.0156198
0.0167098
0.0175238
0.0181585
0.018989
0.0198354
0.000555581
0.0041223
0.00146815
0.00531087
0.00686086
0.00817733
0.00872155
0.00947861
0.0101787
0.0112886
0.0124963
0.013618
0.0146909
0.0150085
0.0155114
0.0165882
0.0173934
0.0179741
0.0188431
0.0195654
0.000595673
0.00412987
0.00164198
0.00535908
0.00684805
0.0081165
0.00880542
0.0094954
0.0101611
0.0112805
0.0124807
0.0135701
0.0146155
0.0149308
0.0153967
0.0164569
0.0172611
0.017768
0.0182494
0.0193048
0.000638246
0.00413755
0.00181888
0.00540474
0.00683929
0.00805757
0.00888314
0.00951768
0.0101384
0.011272
0.0124666
0.0135143
0.0145397
0.0148513
0.015278
0.016312
0.017089
0.0175694
0.0183173
0.0190448
0.000683744
0.00414499
0.00199906
0.00544771
0.00683439
0.00800174
0.00895359
0.0095452
0.0101124
0.0112601
0.0124563
0.0134516
0.0144637
0.0147706
0.015152
0.0161641
0.0169305
0.017332
0.0178367
0.0188024
0.000732155
0.00415245
0.00218216
0.00548826
0.0068318
0.00795105
0.00901517
0.00957943
0.0100819
0.0112453
0.0124483
0.0133881
0.0143715
0.0146943
0.0150147
0.0159695
0.0167618
0.0171415
0.0175791
0.0185484
0.00078352
0.00415983
0.0023675
0.00552742
0.00683099
0.00790536
0.00906863
0.0096201
0.0100478
0.011227
0.0124422
0.0133215
0.0142702
0.0146104
0.0148633
0.0157597
0.0165554
0.017025
0.0176064
0.0182771
0.000838669
0.00416653
0.00255565
0.00556454
0.00683284
0.00786561
0.00911437
0.0096612
0.0100186
0.0111983
0.0124411
0.0132512
0.0141625
0.0145288
0.0147307
0.0155634
0.0163553
0.0167329
0.0171679
0.0180584
0.000897323
0.00417325
0.00274557
0.00560068
0.00683444
0.0078337
0.00915138
0.00970678
0.00998788
0.0111638
0.0124398
0.0131865
0.0140327
0.0144274
0.0145825
0.015353
0.0161466
0.0165911
0.0169506
0.017829
0.000959364
0.00417994
0.00293593
0.00563804
0.00683441
0.00780858
0.00918148
0.0097571
0.00995672
0.0111231
0.0124358
0.0131277
0.0138928
0.0142522
0.0144144
0.0151271
0.0159058
0.0165436
0.0170008
0.0175803
0.00102611
0.0041858
0.00312788
0.00567502
0.00683599
0.00778905
0.00920732
0.00980001
0.00994103
0.0110673
0.012434
0.0130666
0.013744
0.0141905
0.0142797
0.0149158
0.0156725
0.0161327
0.0165295
0.0173835
0.00109684
0.00419181
0.00331948
0.00571399
0.00683508
0.00777682
0.00922714
0.00984573
0.00992207
0.0110121
0.0124247
0.01301
0.0135979
0.0139801
0.0141226
0.0146945
0.0154156
0.0158944
0.0163279
0.0171909
0.00117171
0.00419789
0.00350915
0.00575707
0.00683102
0.00777058
0.00924315
0.00989445
0.00990009
0.0109577
0.0124027
0.0129463
0.0133917
0.0137848
0.0139464
0.0144603
0.0150931
0.0158047
0.0164067
0.016979
0.00125205
0.00420371
0.00369793
0.00580164
0.00682949
0.00776635
0.00925955
0.00993195
0.00989682
0.0108888
0.0123754
0.0129027
0.013248
0.013651
0.0138004
0.0142326
0.0148583
0.0153962
0.0158969
0.01682
0.00133659
0.00421059
0.00388321
0.00585032
0.00682748
0.00776527
0.00927412
0.00996673
0.00989678
0.0108119
0.0123355
0.0128632
0.0130876
0.0134261
0.0136173
0.013985
0.0145124
0.0150325
0.0156792
0.0167185
0.0014263
0.00421817
0.00406415
0.00590454
0.0068239
0.00776756
0.00928682
0.0100021
0.00989287
0.0107298
0.0122796
0.0128202
0.0129336
0.0132323
0.0134135
0.0137512
0.0141927
0.0147327
0.0154965
0.01657
0.0015217
0.0042267
0.00424095
0.00596197
0.00682328
0.00777113
0.00929734
0.0100354
0.00989049
0.0106409
0.0122058
0.0127765
0.012793
0.0130268
0.0132302
0.0135329
0.0139394
0.0144648
0.0152078
0.0163923
0.00162197
0.00423723
0.00441136
0.00602406
0.00682657
0.00777393
0.00930506
0.0100668
0.00989054
0.0105448
0.0121121
0.0127345
0.0126644
0.0128162
0.0130079
0.0133211
0.0136907
0.0141517
0.0149676
0.0162127
0.00172809
0.00424979
0.00457536
0.00609033
0.00683338
0.00777669
0.00931021
0.0100934
0.00989485
0.0104432
0.0120002
0.01269
0.0125486
0.0126046
0.0127761
0.0131048
0.0134676
0.0138902
0.0146704
0.016023
0.0018398
0.00426511
0.00473231
0.00615882
0.00684675
0.00778102
0.00930953
0.0101142
0.00990388
0.0103393
0.0118694
0.0126387
0.0124463
0.0124001
0.0125342
0.0128755
0.0132451
0.0136393
0.0144195
0.0158309
0.001957
0.00428345
0.00488156
0.00622967
0.00686763
0.00778604
0.00930225
0.0101299
0.00991679
0.0102366
0.0117202
0.0125768
0.0123564
0.0122087
0.0122844
0.0126298
0.0130241
0.0134148
0.0142064
0.0156396
0.00208004
0.00430523
0.00502376
0.0063004
0.00689501
0.00779448
0.00928887
0.0101369
0.00993296
0.0101394
0.0115545
0.0124992
0.0122782
0.0120317
0.0120341
0.0123632
0.012809
0.0132289
0.0139859
0.0154536
0.00220866
0.00433109
0.00515845
0.00636987
0.00692958
0.00780826
0.00926779
0.0101328
0.0099524
0.0100532
0.0113734
0.0124015
0.0122086
0.0118714
0.0117903
0.0120821
0.0125763
0.0130417
0.0138216
0.0152853
0.00234293
0.00436124
0.00528596
0.00643786
0.0069694
0.00782758
0.00924071
0.0101178
0.00997309
0.00997923
0.0111805
0.0122811
0.0121435
0.0117278
0.0115594
0.0117933
0.0123298
0.0128719
0.0136667
0.0151347
0.00248277
0.00439629
0.00540677
0.00650263
0.00701296
0.00785434
0.00920968
0.0100906
0.00999096
0.00991946
0.0109831
0.0121366
0.0120769
0.0115965
0.0113455
0.0115061
0.012063
0.0126856
0.0135468
0.0150081
0.00262805
0.00443651
0.00552103
0.0065643
0.00705835
0.00788801
0.00917629
0.0100509
0.0100037
0.00987554
0.0107875
0.0119658
0.0120025
0.0114755
0.0111509
0.011232
0.0117866
0.0124915
0.0134178
0.0148974
0.00277864
0.00448223
0.00562921
0.00662263
0.00710305
0.00792767
0.00914364
0.0100002
0.0100081
0.00984569
0.0105985
0.0117682
0.0119166
0.0113667
0.0109762
0.0109753
0.0115015
0.0122689
0.0132873
0.0147979
0.0029343
0.00453386
0.00573172
0.00667824
0.00714549
0.00797182
0.00911342
0.00994036
0.0100023
0.00982667
0.0104228
0.0115491
0.0118153
0.0112672
0.0108159
0.0107331
0.0112148
0.0120335
0.0131319
0.014702
0.00309475
0.00459178
0.00582908
0.00673134
0.00718377
0.00801739
0.00908774
0.00987476
0.00998535
0.00981395
0.0102661
0.0113145
0.011692
0.0111729
0.0106657
0.0105077
0.0109344
0.0117821
0.0129624
0.0146004
0.00325973
0.00465618
0.00592224
0.00678208
0.00721658
0.00806087
0.00906717
0.00980724
0.0099572
0.00980289
0.0101305
0.0110699
0.0115423
0.01108
0.0105274
0.0103036
0.0106647
0.0115217
0.0127659
0.0144846
0.00342875
0.00472739
0.00601168
0.0068319
0.00724368
0.00809829
0.00905103
0.00974156
0.00991931
0.00978948
0.0100162
0.0108234
0.011364
0.0109855
0.0104037
0.0101181
0.0104058
0.0112545
0.0125516
0.0143551
0.00360105
0.00480582
0.00609767
0.00688171
0.00726432
0.00812546
0.00904117
0.00968073
0.00987302
0.00976893
0.00991988
0.0105844
0.0111595
0.0108847
0.0102909
0.00994807
0.0101605
0.0109862
0.0123246
0.014214
0.00377664
0.00489059
0.00618157
0.00693144
0.00727601
0.00814389
0.00903794
0.00962568
0.00981978
0.00973714
0.00983698
0.0103629
0.0109352
0.0107673
0.0101839
0.00979444
0.00993375
0.0107224
0.0120908
0.0140637
0.00395516
0.00498112
0.00626381
0.00698012
0.0072812
0.00815454
0.00903878
0.00957678
0.00976126
0.00969286
0.00976198
0.010163
0.010696
0.0106274
0.0100808
0.0096587
0.00972795
0.0104689
0.0118552
0.0139037
0.00413587
0.00507729
0.00634361
0.00702926
0.00728353
0.00815556
0.00903992
0.00953409
0.00970032
0.00963784
0.00968827
0.00998508
0.010452
0.0104659
0.00997688
0.00953607
0.00954167
0.0102306
0.0116212
0.0137351
0.00431856
0.00517844
0.00642054
0.00708059
0.00728519
0.00814538
0.00903806
0.00949755
0.00964056
0.00957495
0.00961003
0.00982659
0.0102126
0.010284
0.00986413
0.00942115
0.00937625
0.0100125
0.0113953
0.013564
0.00450283
0.00528405
0.00649431
0.00713429
0.00728875
0.00812439
0.00902978
0.00946605
0.00958342
0.00950659
0.0095241
0.00968271
0.00998409
0.0100854
0.00973953
0.0093136
0.00923226
0.00981632
0.0111831
0.0133944
0.00468818
0.00539389
0.00656464
0.00718981
0.00729708
0.00809415
0.00901183
0.00943738
0.0095298
0.00943591
0.0094308
0.00954907
0.0097707
0.00987723
0.0096019
0.00920833
0.00910403
0.00964116
0.0109876
0.013229
0.00487411
0.00550779
0.00663161
0.00724625
0.00731204
0.00805694
0.00898215
0.00940875
0.00947994
0.00936623
0.00933202
0.00942027
0.0095737
0.00966599
0.00944914
0.00909881
0.00898838
0.00948763
0.010811
0.0130708
0.00506015
0.0056256
0.00669546
0.00730237
0.00733442
0.00801576
0.00893978
0.00937719
0.00943297
0.0093001
0.00923019
0.00929157
0.00939117
0.00945606
0.00928294
0.00898367
0.00888306
0.00935401
0.0106536
0.0129209
0.00524574
0.00574703
0.00675679
0.00735689
0.007364
0.00797396
0.0088851
0.00933964
0.00938769
0.00923857
0.00912858
0.00916075
0.00921931
0.00925206
0.00910914
0.0088612
0.00878269
0.00923725
0.010514
0.01278
0.0054304
0.00587182
0.00681612
0.0074088
0.00739999
0.00793456
0.00881944
0.00929352
0.00934297
0.00918133
0.00903004
0.00902782
0.00905541
0.00905814
0.00893179
0.00872858
0.00868264
0.00913339
0.0103903
0.0126496
0.00561359
0.00599966
0.0068741
0.00745728
0.00744106
0.00789975
0.00874499
0.00923743
0.00929547
0.0091268
0.00893721
0.00889458
0.00889691
0.0088743
0.00875379
0.00858698
0.00857889
0.00903707
0.0102809
0.0125296
0.00579477
0.00613014
0.00693142
0.00750182
0.00748559
0.00787102
0.00866468
0.00917076
0.00924158
0.00907279
0.00885206
0.00876368
0.00874084
0.00869813
0.00857893
0.00843966
0.00846842
0.00894345
0.0101817
0.0124181
0.00597347
0.0062629
0.00698871
0.00754208
0.00753184
0.00784909
0.00858149
0.00909384
0.00917991
0.00901729
0.00877431
0.0086378
0.00858601
0.00852732
0.00840946
0.00828988
0.00835045
0.00884737
0.0100869
0.0123135
0.0061492
0.00639735
0.00704658
0.00757818
0.00757799
0.00783387
0.00849813
0.00900791
0.00910985
0.00895702
0.00870175
0.00851978
0.00843367
0.0083601
0.00824517
0.0081402
0.00822546
0.0087449
0.00999165
0.0122126
0.00632157
0.00653289
0.00710544
0.00761037
0.00762249
0.00782486
0.00841699
0.00891459
0.00903128
0.00888934
0.00863146
0.00841094
0.00828569
0.00819483
0.00808345
0.00799181
0.00809619
0.00863555
0.00989205
0.0121118
0.00649019
0.00666883
0.00716582
0.00763905
0.00766396
0.00782099
0.00833954
0.00881597
0.0089452
0.00881335
0.00855993
0.00831039
0.00814409
0.00803111
0.00792188
0.00784512
0.00796582
0.00852087
0.0097871
0.0120088
0.00665466
0.00680447
0.0072279
0.00766477
0.00770159
0.00782101
0.00826699
0.00871388
0.00885231
0.00872939
0.00848343
0.00821606
0.00801116
0.00787061
0.00775948
0.00769788
0.00783402
0.00840214
0.0096769
0.011902
0.00681458
0.00693922
0.00729188
0.00768798
0.00773456
0.00782339
0.00820009
0.00861032
0.00875368
0.00863859
0.00839935
0.00812418
0.00788734
0.00771616
0.00759663
0.00754689
0.00769859
0.00827895
0.0095613
0.0117909
0.00696972
0.00707236
0.00735775
0.00770943
0.00776244
0.00782665
0.00813877
0.00850697
0.0086497
0.00854224
0.00830725
0.00803025
0.00777041
0.00756945
0.00743535
0.00739223
0.00755867
0.00815107
0.00944085
0.0116748
0.00711975
0.0072033
0.00742535
0.00772945
0.00778508
0.00782951
0.0080827
0.00840552
0.0085407
0.00844109
0.00820848
0.00793099
0.00765633
0.00742878
0.00727689
0.00723512
0.00741444
0.00801904
0.00931641
0.0115544
0.00726448
0.00733128
0.0074945
0.00774883
0.00780259
0.0078307
0.00803076
0.00830734
0.00842803
0.00833512
0.00810486
0.00782503
0.00754122
0.00729205
0.00712169
0.0070761
0.00726479
0.0078812
0.0091869
0.0114296
0.00740365
0.00745574
0.00756463
0.00776788
0.00781552
0.00782963
0.00798158
0.00821326
0.00831346
0.00822328
0.00799747
0.00771331
0.00742231
0.00715669
0.00696899
0.00691586
0.00710935
0.00773586
0.00905004
0.0112981
0.0075372
0.00757617
0.00763534
0.00778691
0.007824
0.00782581
0.00793374
0.00812316
0.00819971
0.00810504
0.00788572
0.00759776
0.00729872
0.00701959
0.00681634
0.00675456
0.006949
0.00758284
0.00890436
0.0111577
0.00766487
0.0076922
0.00770607
0.00780626
0.00782828
0.00781932
0.00788665
0.00803526
0.00808871
0.00798186
0.00776744
0.00747893
0.00717152
0.00687988
0.0066617
0.00659049
0.00678307
0.0074215
0.00874887
0.0110072
0.00778621
0.00780323
0.00777663
0.00782644
0.00782852
0.00780977
0.00784036
0.00794777
0.00798073
0.00785675
0.00764124
0.00735478
0.00704099
0.006738
0.00650446
0.0064222
0.00661047
0.0072511
0.00858268
0.0108448
0.007901
0.00790884
0.00784574
0.00784784
0.00782591
0.00779648
0.00779496
0.00785927
0.00787463
0.00773385
0.00750867
0.00722264
0.00690444
0.00659252
0.00634403
0.00624915
0.00643012
0.0070703
0.00840495
0.0106705
0.00800915
0.00800948
0.0079133
0.00786944
0.00782057
0.00777887
0.00775084
0.00776957
0.00776703
0.007616
0.00737468
0.00708476
0.00676159
0.00644111
0.00617845
0.00606894
0.00623883
0.00687469
0.00821116
0.01048
0.0081097
0.00810388
0.00797985
0.00789334
0.00781373
0.00775557
0.00770658
0.00768017
0.00765426
0.0075004
0.00724325
0.00694368
0.0066141
0.00628513
0.0060081
0.00588174
0.00603854
0.00666655
0.00799913
0.0102675
0.00820232
0.00819182
0.00804283
0.00791795
0.00780737
0.00772916
0.0076615
0.00759352
0.00753696
0.00738247
0.00711469
0.00680103
0.00646089
0.00612155
0.00583077
0.00568671
0.00582651
0.00644132
0.00776785
0.0100352
0.00828928
0.00827544
0.00810428
0.00794203
0.00779548
0.0076928
0.00761148
0.00751026
0.00742034
0.00726294
0.00699009
0.0066611
0.00630539
0.00595131
0.00564566
0.00548219
0.00560271
0.00620006
0.00751419
0.00977442
0.00835892
0.00836161
0.00817539
0.00797342
0.00778771
0.00765052
0.0075478
0.00743197
0.00730978
0.0071432
0.00686978
0.00652895
0.0061533
0.0057775
0.00544943
0.00526391
0.00536611
0.00594991
0.00725046
0.00949726
0.00840152
0.00841878
0.00824934
0.00800448
0.0077792
0.00761757
0.00748809
0.00731
0.00716128
0.00699712
0.00673308
0.00638398
0.00598687
0.005579
0.00521452
0.00499489
0.00507385
0.00562977
0.00690315
0.00912865
0.0085086
0.00849948
0.0082822
0.00801734
0.00774056
0.00755101
0.00743979
0.00737105
0.00716241
0.00696596
0.00671284
0.00637672
0.00598152
0.00556175
0.00515842
0.00486778
0.00482518
0.00525125
0.00640218
0.00851215
0.00850152
0.00855282
0.00830306
0.00811384
0.00787681
0.00750576
0.00716998
0.00698533
0.00685492
0.00669037
0.00643193
0.00610257
0.00572754
0.00540349
0.00516782
0.00507131
0.00519427
0.00570912
0.00686091
0.00891766
0.00864996
0.00856475
0.0083491
0.00801271
0.00769936
0.00750979
0.00743675
0.00731827
0.00713111
0.00691469
0.00661483
0.00620482
0.0056604
0.00500611
0.00433954
0.00377795
0.00348831
0.00368686
0.00462547
0.00653317
0.00893867
0.00851333
0.00819029
0.00784721
0.00760438
0.00729815
0.00699813
0.00686978
0.00670227
0.0064186
0.00613376
0.00590768
0.0058888
0.00614925
0.00674945
0.00762479
0.00860116
0.00938067
0.00960413
0.00894464
0.00891493
0.00856759
0.00820614
0.00793973
0.00775916
0.00764347
0.00758813
0.00745151
0.00721936
0.00688049
0.00640084
0.0057229
0.00485788
0.00390938
0.00300423
0.00223429
0.00172254
0.00166523
0.00232994
0.00396809
0.00912093
0.00855678
0.00815205
0.00786587
0.00771364
0.00746906
0.00717626
0.0067491
0.00634133
0.00615837
0.00601114
0.00571211
0.00541771
0.0053152
0.00551259
0.00599912
0.00667942
0.00728368
0.00743523
0.00677475
0.00911093
0.00854329
0.00817142
0.00795737
0.00790966
0.00791907
0.00795563
0.00784014
0.00755055
0.00701891
0.00618255
0.00495942
0.00341902
0.00176721
0.000256686
-0.000919422
-0.00160831
-0.00164487
-0.000818769
0.00105999
0.0343247
0.0167543
0.00999052
0.01059
0.0118829
0.0124537
0.0129036
0.0136018
0.0143929
0.0151426
0.0157858
0.0163706
0.0171597
0.0180887
0.0189299
0.0197629
0.0206629
0.0215547
0.02235
0.0230825
0.0239848
0.0250411
0.0261062
0.0272849
0.0284736
0.0295229
0.0306276
0.031903
0.0331897
0.0345484
0.0359437
0.0373506
0.0387783
0.0403147
0.0419292
0.0435872
0.0453205
0.0470739
0.0489466
0.0508408
0.0528785
0.0549209
0.0570301
0.059233
0.0613968
0.0637839
0.0659803
0.0684086
0.0704701
0.0722192
0.0337556
0.0168023
0.0100335
0.0106077
0.0118926
0.0124596
0.0129076
0.0136049
0.0143955
0.0151448
0.0157877
0.0163722
0.0171609
0.0180899
0.0189309
0.0197638
0.0206637
0.0215555
0.0223508
0.0230832
0.0239854
0.0250416
0.0261067
0.0272854
0.028474
0.0295234
0.030628
0.0319033
0.03319
0.0345486
0.035944
0.0373508
0.0387785
0.0403149
0.0419293
0.0435874
0.0453207
0.047074
0.0489467
0.0508409
0.0528787
0.054921
0.0570302
0.0592331
0.0613969
0.063784
0.0659804
0.0684086
0.0704701
0.0722192
0.0331823
0.0168868
0.0101031
0.0106302
0.0119036
0.0124663
0.0129118
0.0136079
0.0143979
0.0151469
0.0157894
0.0163736
0.017162
0.0180909
0.0189318
0.0197647
0.0206645
0.0215562
0.0223514
0.0230838
0.0239859
0.0250422
0.0261072
0.0272858
0.0284745
0.0295237
0.0306283
0.0319036
0.0331903
0.0345489
0.0359442
0.037351
0.0387787
0.0403151
0.0419295
0.0435875
0.0453208
0.0470742
0.0489468
0.050841
0.0528788
0.0549211
0.0570303
0.0592331
0.061397
0.063784
0.0659805
0.0684087
0.0704701
0.0722192
0.0326439
0.0170038
0.0102082
0.0106641
0.0119191
0.0124757
0.0129175
0.0136116
0.0144007
0.0151492
0.0157913
0.0163751
0.0171633
0.018092
0.0189328
0.0197655
0.0206653
0.0215569
0.0223521
0.0230844
0.0239864
0.0250427
0.0261077
0.0272862
0.0284749
0.0295241
0.0306286
0.0319039
0.0331906
0.0345491
0.0359444
0.0373512
0.0387789
0.0403153
0.0419297
0.0435877
0.045321
0.0470743
0.0489469
0.0508411
0.0528789
0.0549212
0.0570304
0.0592332
0.0613971
0.0637841
0.0659805
0.0684088
0.0704702
0.0722192
0.0321247
0.0171409
0.0103428
0.01071
0.0119403
0.0124894
0.0129259
0.0136169
0.0144042
0.0151519
0.0157938
0.0163771
0.0171648
0.0180932
0.0189338
0.0197664
0.0206661
0.0215577
0.0223528
0.023085
0.023987
0.0250432
0.0261082
0.0272867
0.0284754
0.0295245
0.0306289
0.0319042
0.0331908
0.0345494
0.0359446
0.0373514
0.0387791
0.0403154
0.0419298
0.0435878
0.0453211
0.0470744
0.0489471
0.0508412
0.052879
0.0549213
0.0570305
0.0592333
0.0613972
0.0637842
0.0659806
0.0684089
0.0704703
0.0722192
0.0316111
0.0172855
0.0104939
0.0107636
0.0119661
0.0125071
0.0129376
0.0136242
0.0144089
0.0151554
0.0157969
0.0163799
0.0171669
0.0180946
0.0189349
0.0197674
0.020667
0.0215585
0.0223536
0.0230856
0.0239875
0.0250438
0.0261087
0.0272872
0.0284759
0.0295249
0.0306292
0.0319045
0.0331912
0.0345497
0.0359449
0.0373516
0.0387793
0.0403156
0.04193
0.043588
0.0453213
0.0470746
0.0489472
0.0508413
0.0528791
0.0549214
0.0570306
0.0592334
0.0613972
0.0637843
0.0659807
0.068409
0.0704705
0.0722192
0.0311006
0.0174308
0.0106537
0.0108212
0.0119944
0.0125278
0.012952
0.0136334
0.0144147
0.0151597
0.0158009
0.0163835
0.0171696
0.0180963
0.0189361
0.0197684
0.020668
0.0215594
0.0223545
0.0230863
0.0239881
0.0250445
0.0261093
0.0272877
0.0284765
0.0295254
0.0306296
0.0319049
0.0331915
0.03455
0.0359452
0.0373519
0.0387795
0.0403158
0.0419302
0.0435882
0.0453214
0.0470747
0.0489473
0.0508415
0.0528792
0.0549216
0.0570307
0.0592335
0.0613973
0.0637844
0.0659808
0.0684091
0.0704707
0.0722192
0.0305956
0.017575
0.0108201
0.0108814
0.0120241
0.0125503
0.0129684
0.0136444
0.0144216
0.0151647
0.0158057
0.0163882
0.0171731
0.0180984
0.0189374
0.0197696
0.020669
0.0215603
0.0223554
0.0230872
0.0239888
0.0250451
0.0261099
0.0272882
0.0284771
0.029526
0.03063
0.0319053
0.0331919
0.0345503
0.0359455
0.0373522
0.0387797
0.040316
0.0419304
0.0435883
0.0453216
0.0470749
0.0489475
0.0508416
0.0528794
0.0549217
0.0570308
0.0592336
0.0613974
0.0637845
0.0659809
0.0684092
0.070471
0.0722192
0.0300978
0.0177179
0.0109931
0.0109444
0.0120546
0.0125739
0.0129861
0.0136566
0.0144295
0.0151703
0.0158112
0.0163938
0.0171775
0.0181009
0.0189389
0.0197707
0.02067
0.0215612
0.0223564
0.0230882
0.0239897
0.0250459
0.0261104
0.0272888
0.0284778
0.0295266
0.0306305
0.0319058
0.0331924
0.0345508
0.0359459
0.0373525
0.03878
0.0403163
0.0419306
0.0435885
0.0453218
0.047075
0.0489476
0.0508418
0.0528795
0.0549218
0.0570309
0.0592338
0.0613975
0.0637846
0.065981
0.0684094
0.0704713
0.0722193
0.0296076
0.0178597
0.0111735
0.0110103
0.0120858
0.0125984
0.0130046
0.0136696
0.014438
0.0151764
0.0158171
0.0164001
0.0171826
0.0181039
0.0189405
0.0197719
0.0206709
0.0215619
0.0223575
0.0230895
0.0239909
0.025047
0.0261111
0.0272893
0.0284785
0.0295272
0.030631
0.0319063
0.0331928
0.0345512
0.0359464
0.037353
0.0387803
0.0403166
0.0419309
0.0435888
0.045322
0.0470752
0.0489478
0.0508419
0.0528797
0.054922
0.0570311
0.0592339
0.0613977
0.0637847
0.0659812
0.0684097
0.0704718
0.0722194
0.0291243
0.0179996
0.0113612
0.0110795
0.0121175
0.0126235
0.0130239
0.0136832
0.0144469
0.0151828
0.0158234
0.0164068
0.0171883
0.0181073
0.0189423
0.0197731
0.0206718
0.0215625
0.0223583
0.0230908
0.0239925
0.0250484
0.0261118
0.0272896
0.0284791
0.0295279
0.0306316
0.0319069
0.0331934
0.0345517
0.0359469
0.0373534
0.0387807
0.0403169
0.0419312
0.043589
0.0453223
0.0470754
0.048948
0.0508421
0.0528798
0.0549221
0.0570312
0.059234
0.0613978
0.0637849
0.0659814
0.06841
0.0704724
0.0722195
0.0286469
0.018136
0.011555
0.0111516
0.0121495
0.0126491
0.0130438
0.0136972
0.0144563
0.0151895
0.01583
0.0164139
0.0171944
0.0181111
0.0189442
0.0197744
0.0206726
0.021563
0.022359
0.0230921
0.0239943
0.0250502
0.0261127
0.0272899
0.0284795
0.0295285
0.0306323
0.0319076
0.033194
0.0345523
0.0359475
0.037354
0.0387812
0.0403173
0.0419315
0.0435893
0.0453225
0.0470757
0.0489482
0.0508423
0.05288
0.0549223
0.0570314
0.0592342
0.061398
0.0637851
0.0659816
0.0684103
0.0704731
0.0722197
0.0281746
0.018267
0.0117532
0.011226
0.0121817
0.0126752
0.0130642
0.0137117
0.0144658
0.0151964
0.0158367
0.0164212
0.0172008
0.0181152
0.0189463
0.0197756
0.0206734
0.0215633
0.0223595
0.0230933
0.0239963
0.0250525
0.026114
0.0272901
0.0284797
0.029529
0.030633
0.0319083
0.0331947
0.0345529
0.0359481
0.0373546
0.0387818
0.0403178
0.041932
0.0435897
0.0453229
0.0470759
0.0489484
0.0508425
0.0528802
0.0549225
0.0570316
0.0592344
0.0613981
0.0637853
0.0659818
0.0684108
0.070474
0.07222
0.0277069
0.0183909
0.0119544
0.0113026
0.0122137
0.0127016
0.0130852
0.0137265
0.0144756
0.0152035
0.0158435
0.0164287
0.0172074
0.0181195
0.0189484
0.0197769
0.0206742
0.0215636
0.0223597
0.0230941
0.0239983
0.0250551
0.0261155
0.0272902
0.0284797
0.0295293
0.0306336
0.0319091
0.0331954
0.0345535
0.0359487
0.0373553
0.0387825
0.0403184
0.0419324
0.0435901
0.0453233
0.0470763
0.0489487
0.0508427
0.0528804
0.0549227
0.0570318
0.0592346
0.0613983
0.0637855
0.0659821
0.0684113
0.0704751
0.0722204
0.0272437
0.0185064
0.0121574
0.0113811
0.0122455
0.0127282
0.0131068
0.0137416
0.0144855
0.0152107
0.0158506
0.0164364
0.0172143
0.018124
0.0189507
0.0197781
0.020675
0.0215638
0.0223597
0.0230947
0.024
0.0250578
0.0261173
0.0272902
0.0284793
0.0295294
0.0306341
0.03191
0.0331962
0.0345542
0.0359493
0.0373559
0.0387833
0.0403192
0.041933
0.0435906
0.0453237
0.0470767
0.048949
0.0508429
0.0528806
0.0549229
0.057032
0.0592348
0.0613986
0.0637858
0.0659825
0.068412
0.0704763
0.0722209
0.0267851
0.0186125
0.0123619
0.0114621
0.012277
0.0127549
0.013129
0.0137571
0.0144956
0.0152179
0.0158577
0.0164443
0.0172214
0.0181287
0.018953
0.0197793
0.0206758
0.0215639
0.0223596
0.0230951
0.0240015
0.0250605
0.0261193
0.0272901
0.0284787
0.0295291
0.0306345
0.0319108
0.0331971
0.034555
0.0359499
0.0373566
0.0387841
0.0403201
0.0419337
0.0435911
0.0453242
0.0470771
0.0489494
0.0508432
0.0528808
0.0549231
0.0570322
0.059235
0.0613988
0.0637861
0.0659829
0.0684127
0.0704778
0.0722215
0.0263313
0.0187089
0.0125684
0.011546
0.0123083
0.0127815
0.013152
0.0137732
0.0145058
0.0152254
0.0158651
0.0164524
0.0172288
0.0181337
0.0189555
0.0197804