/*--------------------------------*- C++ -*----------------------------------*\
| =========                 |                                                 |
| \\      /  F ield         | OpenFOAM: The Open Source CFD Toolbox           |
|  \\    /   O peration     | Version:  v2012                                 |
|   \\  /    A nd           | Website:  www.openfoam.com                      |
|    \\/     M anipulation  |                                                 |
\*---------------------------------------------------------------------------*/
FoamFile
{
    version     2.0;
    format      ascii;
    class       volVectorField;
    location    "3.8";
    object      U;
}
// * * * * * * * * * * * * * * * * * * * * * * * * * * * * * * * * * * * * * //

dimensions      [0 1 -1 0 0 0 0];


internalField   nonuniform List<vector> 
7000
(
(0.631682 -0.013308 0)
(1.34182 -0.00469379 0)
(0.913988 0.00688754 0)
(1.38734 0.0171074 0)
(0.661386 -0.0176737 0)
(1.41756 -0.0150058 0)
(0.77294 -0.0155708 0)
(1.32375 0.0112167 0)
(0.850782 0.0116087 0)
(1.18528 0.0195856 0)
(0.879397 0.00664834 0)
(1.18557 -0.00296892 0)
(0.920461 -0.0152601 0)
(1.19867 -0.0177208 0)
(0.937738 -0.023586 0)
(1.20379 -0.0173621 0)
(0.947768 -0.019365 0)
(1.19988 -0.0109076 0)
(0.938317 -0.00982206 0)
(1.1814 -0.00237428 0)
(0.659817 -0.013373 0)
(1.32991 -0.005838 0)
(0.923082 0.00624075 0)
(1.37801 0.0186647 0)
(0.733502 -0.0184839 0)
(1.40073 -0.0152678 0)
(0.808641 -0.0153699 0)
(1.31336 0.0110165 0)
(0.883581 0.0124691 0)
(1.16103 0.0197711 0)
(0.938391 0.00631245 0)
(1.14512 -0.00324005 0)
(0.983599 -0.0157834 0)
(1.13974 -0.0178137 0)
(0.992495 -0.0238903 0)
(1.13612 -0.0177048 0)
(1.01023 -0.0192426 0)
(1.12611 -0.0110081 0)
(1.01983 -0.00867663 0)
(1.09302 -0.00166803 0)
(0.700255 -0.0135163 0)
(1.3016 -0.00677622 0)
(0.944233 0.0056833 0)
(1.36267 0.0202229 0)
(0.816193 -0.0190122 0)
(1.36275 -0.0152747 0)
(0.867264 -0.0151105 0)
(1.28257 0.0107687 0)
(0.943951 0.0138671 0)
(1.12475 0.0194308 0)
(1.00667 0.00627422 0)
(1.10776 -0.00367961 0)
(1.03258 -0.0156197 0)
(1.08532 -0.0178732 0)
(1.0278 -0.0236175 0)
(1.07418 -0.0182668 0)
(1.0435 -0.0188113 0)
(1.07151 -0.0115415 0)
(1.05334 -0.00733484 0)
(1.05418 -0.00180403 0)
(0.748493 -0.0136685 0)
(1.25545 -0.00762765 0)
(0.975934 0.00515491 0)
(1.34297 0.0211747 0)
(0.89888 -0.0192338 0)
(1.30415 -0.0152653 0)
(0.93358 -0.0147693 0)
(1.23328 0.0104039 0)
(1.00706 0.0152694 0)
(1.09743 0.0188152 0)
(1.05766 0.00639282 0)
(1.08843 -0.00391618 0)
(1.05686 -0.0149822 0)
(1.05319 -0.0177785 0)
(1.0351 -0.0230759 0)
(1.03716 -0.0188633 0)
(1.04288 -0.0185921 0)
(1.04325 -0.0122063 0)
(1.05254 -0.00660114 0)
(1.04071 -0.00164869 0)
(0.799843 -0.0137749 0)
(1.19591 -0.00850633 0)
(1.01284 0.00444466 0)
(1.3195 0.0217458 0)
(0.970916 -0.0190045 0)
(1.23282 -0.0152813 0)
(0.989614 -0.0143757 0)
(1.17766 0.00989239 0)
(1.05431 0.0163804 0)
(1.08871 0.0183068 0)
(1.08923 0.0065201 0)
(1.0862 -0.00380238 0)
(1.06435 -0.0140613 0)
(1.04058 -0.0173952 0)
(1.02813 -0.0223542 0)
(1.01852 -0.0193123 0)
(1.02809 -0.0184992 0)
(1.02741 -0.0129144 0)
(1.03922 -0.00626015 0)
(1.03325 -0.00169498 0)
(0.849166 -0.0137942 0)
(1.13176 -0.00943208 0)
(1.048 0.00352412 0)
(1.29297 0.022115 0)
(1.0251 -0.0183092 0)
(1.16067 -0.0152767 0)
(1.02419 -0.0140475 0)
(1.12936 0.00933714 0)
(1.08208 0.0170271 0)
(1.09552 0.0179369 0)
(1.10846 0.00664908 0)
(1.09273 -0.00334219 0)
(1.06521 -0.0129032 0)
(1.03768 -0.0167368 0)
(1.01895 -0.0214265 0)
(1.00824 -0.0195761 0)
(1.01223 -0.0183914 0)
(1.015 -0.0136697 0)
(1.0239 -0.00618991 0)
(1.02464 -0.00197146 0)
(0.892356 -0.0137092 0)
(1.07292 -0.0103868 0)
(1.07528 0.00242173 0)
(1.26446 0.022352 0)
(1.05954 -0.0172148 0)
(1.09867 -0.0151845 0)
(1.03642 -0.013888 0)
(1.09577 0.00876559 0)
(1.09623 0.0171237 0)
(1.10952 0.0175957 0)
(1.12167 0.00685649 0)
(1.10018 -0.00259317 0)
(1.06469 -0.0115259 0)
(1.03721 -0.0158754 0)
(1.01232 -0.0202864 0)
(1.00109 -0.019662 0)
(0.999904 -0.018199 0)
(1.00355 -0.0143968 0)
(1.01026 -0.00627027 0)
(1.01426 -0.00245353 0)
(0.927279 -0.0135306 0)
(1.02699 -0.0113336 0)
(1.09069 0.00117939 0)
(1.23491 0.0225138 0)
(1.0766 -0.0158392 0)
(1.05285 -0.014961 0)
(1.03278 -0.0139592 0)
(1.07637 0.00807085 0)
(1.10396 0.0167214 0)
(1.12331 0.0172117 0)
(1.13108 0.00721949 0)
(1.1041 -0.00161076 0)
(1.06368 -0.00996256 0)
(1.03602 -0.0148831 0)
(1.00851 -0.0189705 0)
(0.9957 -0.0195827 0)
(0.991503 -0.0178915 0)
(0.993369 -0.0150105 0)
(0.999091 -0.00643798 0)
(1.00354 -0.00305285 0)
(0.953752 -0.0132902 0)
(0.99703 -0.012231 0)
(1.09301 -0.000130653 0)
(1.20466 0.0226358 0)
(1.08067 -0.0143201 0)
(1.02346 -0.0146084 0)
(1.02201 -0.0142647 0)
(1.066 0.00713767 0)
(1.10892 0.0159619 0)
(1.13232 0.0167875 0)
(1.1358 0.00777322 0)
(1.10288 -0.000442916 0)
(1.06129 -0.00827142 0)
(1.03335 -0.0138291 0)
(1.00647 -0.0175491 0)
(0.992025 -0.0193609 0)
(0.986254 -0.0174556 0)
(0.985169 -0.0154618 0)
(0.99032 -0.00663967 0)
(0.993761 -0.00369451 0)
(0.972876 -0.0130289 0)
(0.981531 -0.0130291 0)
(1.08357 -0.00141596 0)
(1.1736 0.0227189 0)
(1.07622 -0.0127861 0)
(1.00693 -0.0141696 0)
(1.01101 -0.01474 0)
(1.05913 0.00594624 0)
(1.11085 0.0149947 0)
(1.13418 0.016364 0)
(1.1341 0.00851412 0)
(1.09646 0.000848605 0)
(1.05675 -0.00652773 0)
(1.02937 -0.0127829 0)
(1.00531 -0.0161112 0)
(0.989996 -0.019018 0)
(0.983388 -0.0168911 0)
(0.979257 -0.0157212 0)
(0.983744 -0.00682082 0)
(0.985543 -0.00429375 0)
(0.986233 -0.0127827 0)
(0.976304 -0.013678 0)
(1.06565 -0.00258851 0)
(1.14177 0.0227417 0)
(1.06689 -0.0113416 0)
(0.998829 -0.0137064 0)
(1.00304 -0.0152842 0)
(1.05212 0.00457539 0)
(1.10772 0.0139408 0)
(1.12796 0.0159881 0)
(1.12507 0.00940631 0)
(1.08562 0.00218062 0)
(1.05005 -0.00481766 0)
(1.02454 -0.011808 0)
(1.00452 -0.0147368 0)
(0.989282 -0.0185824 0)
(0.98229 -0.0162281 0)
(0.975571 -0.0157703 0)
(0.979145 -0.00694497 0)
(0.979075 -0.00479281 0)
(0.995318 -0.0125731 0)
(0.976805 -0.0141472 0)
(1.0435 -0.00358602 0)
(1.10989 0.0226768 0)
(1.05529 -0.0100645 0)
(0.995654 -0.0132747 0)
(0.998371 -0.0158042 0)
(1.04343 0.0031551 0)
(1.09812 0.012901 0)
(1.11405 0.0156921 0)
(1.10929 0.0103797 0)
(1.07173 0.00344917 0)
(1.04179 -0.00322506 0)
(1.01947 -0.0109624 0)
(1.00384 -0.0134851 0)
(0.989443 -0.0180838 0)
(0.98241 -0.0155104 0)
(0.973842 -0.015617 0)
(0.976258 -0.006984 0)
(0.974389 -0.00515478 0)
(1.00131 -0.0124066 0)
(0.9796 -0.0144315 0)
(1.02126 -0.00437894 0)
(1.07947 0.0225056 0)
(1.04329 -0.00900316 0)
(0.99514 -0.0129138 0)
(0.995895 -0.0162296 0)
(1.03305 0.001818 0)
(1.08247 0.0119596 0)
(1.09418 0.0154781 0)
(1.08881 0.011348 0)
(1.05649 0.00454699 0)
(1.03294 -0.00181752 0)
(1.01482 -0.0102858 0)
(1.00315 -0.0123958 0)
(0.990086 -0.0175444 0)
(0.983245 -0.0147717 0)
(0.973675 -0.0152766 0)
(0.974779 -0.00691431 0)
(0.971443 -0.00533251 0)
(1.00507 -0.0122792 0)
(0.982697 -0.0145493 0)
(1.00202 -0.0049642 0)
(1.05234 0.0222284 0)
(1.03225 -0.0081743 0)
(0.995862 -0.012643 0)
(0.994432 -0.0165149 0)
(1.02188 0.000666452 0)
(1.06291 0.0111742 0)
(1.0712 0.0153188 0)
(1.0666 0.0122235 0)
(1.04171 0.00539379 0)
(1.02454 -0.000648429 0)
(1.01106 -0.00978344 0)
(1.00244 -0.0114821 0)
(0.990928 -0.0169784 0)
(0.984396 -0.0140502 0)
(0.974592 -0.0147733 0)
(0.974395 -0.0067377 0)
(0.970091 -0.00531374 0)
(1.00726 -0.0121814 0)
(0.985206 -0.0145317 0)
(0.987371 -0.00536016 0)
(1.03003 0.0218611 0)
(1.02306 -0.00756348 0)
(0.996899 -0.0124605 0)
(0.993198 -0.0166459 0)
(1.01108 -0.000247409 0)
(1.04246 0.0105702 0)
(1.04833 0.0151729 0)
(1.04568 0.012934 0)
(1.02889 0.0059512 0)
(1.01746 0.000260528 0)
(1.00841 -0.00943201 0)
(1.00181 -0.0107323 0)
(0.991805 -0.0163966 0)
(0.985609 -0.0133738 0)
(0.976114 -0.0141515 0)
(0.974812 -0.00647894 0)
(0.970034 -0.0051211 0)
(1.00838 -0.0121022 0)
(0.986871 -0.0144141 0)
(0.977548 -0.00559727 0)
(1.0132 0.0214255 0)
(1.01613 -0.00713316 0)
(0.997717 -0.01235 0)
(0.991824 -0.0166298 0)
(1.00162 -0.000922126 0)
(1.02392 0.0101427 0)
(1.02831 0.0150007 0)
(1.02833 0.0134443 0)
(1.01895 0.00621957 0)
(1.01219 0.000919962 0)
(1.00684 -0.0091891 0)
(1.00137 -0.010123 0)
(0.992646 -0.0157962 0)
(0.986761 -0.0127571 0)
(0.977842 -0.0134551 0)
(0.975755 -0.00616324 0)
(0.97087 -0.00479267 0)
(1.00883 -0.0120315 0)
(0.98774 -0.0142303 0)
(0.971831 -0.00571358 0)
(1.00155 0.0209422 0)
(1.01139 -0.00683645 0)
(0.998112 -0.0122868 0)
(0.990239 -0.0164851 0)
(0.993949 -0.00138735 0)
(1.00902 0.00986253 0)
(1.0127 0.014774 0)
(1.01559 0.0137527 0)
(1.01214 0.00624452 0)
(1.00883 0.00136226 0)
(1.00613 -0.00900366 0)
(1.00122 -0.00962446 0)
(0.993438 -0.0151717 0)
(0.987816 -0.0121941 0)
(0.979523 -0.0127132 0)
(0.976981 -0.00581018 0)
(0.972194 -0.00437747 0)
(1.00887 -0.0119609 0)
(0.987981 -0.0140084 0)
(0.969129 -0.00574629 0)
(0.994147 0.0204276 0)
(1.00846 -0.00662696 0)
(0.998119 -0.0122469 0)
(0.988561 -0.0162348 0)
(0.988086 -0.00169449 0)
(0.998231 0.00968744 0)
(1.00182 0.0144787 0)
(1.00733 0.0138749 0)
(1.00814 0.00610167 0)
(1.00712 0.00163451 0)
(1.00602 -0.00882484 0)
(1.00136 -0.00921045 0)
(0.994186 -0.0145229 0)
(0.988767 -0.0116672 0)
(0.981041 -0.0119454 0)
(0.978286 -0.00543345 0)
(0.97369 -0.00390921 0)
(1.00869 -0.0118848 0)
(0.987804 -0.0137689 0)
(0.968405 -0.00572374 0)
(0.98989 0.0198928 0)
(1.00682 -0.00646658 0)
(0.997877 -0.0122129 0)
(0.986973 -0.015901 0)
(0.983803 -0.00190029 0)
(0.991096 0.00957409 0)
(0.995008 0.0141122 0)
(1.00267 0.0138441 0)
(1.00632 0.00583894 0)
(1.00664 0.00177578 0)
(1.00626 -0.00861872 0)
(1.00171 -0.00886092 0)
(0.994891 -0.0138396 0)
(0.989607 -0.0111668 0)
(0.982372 -0.0111805 0)
(0.979529 -0.00504812 0)
(0.975163 -0.00341542 0)
(1.00838 -0.0117991 0)
(0.987414 -0.0135257 0)
(0.96887 -0.00566868 0)
(0.987804 0.0193435 0)
(1.006 -0.00632804 0)
(0.997526 -0.0121734 0)
(0.985642 -0.0155029 0)
(0.980837 -0.0020461 0)
(0.986762 0.0094842 0)
(0.991268 0.0136795 0)
(1.00048 0.0136891 0)
(1.0059 0.00551321 0)
(1.00692 0.0018281 0)
(1.00666 -0.00836384 0)
(1.00216 -0.00855696 0)
(0.995541 -0.0131171 0)
(0.990322 -0.0106782 0)
(0.983528 -0.0104277 0)
(0.980633 -0.00466805 0)
(0.976521 -0.00292525 0)
(1.008 -0.0117019 0)
(0.986982 -0.0132888 0)
(0.969991 -0.00559742 0)
(0.98716 0.0187831 0)
(1.00567 -0.0061918 0)
(0.997154 -0.0121239 0)
(0.984659 -0.0150579 0)
(0.978967 -0.00216373 0)
(0.984405 0.00939187 0)
(0.989623 0.0131925 0)
(0.999787 0.0134216 0)
(1.00622 0.00518266 0)
(1.00751 0.00182197 0)
(1.00706 -0.00804011 0)
(1.00259 -0.00828514 0)
(0.996114 -0.0123675 0)
(0.990907 -0.0101887 0)
(0.984533 -0.00967665 0)
(0.981581 -0.00427858 0)
(0.977736 -0.00243456 0)
(1.00758 -0.0115924 0)
(0.986619 -0.013064 0)
(0.971409 -0.00552076 0)
(0.98741 0.0182138 0)
(1.00558 -0.00604387 0)
(0.996803 -0.0120649 0)
(0.984032 -0.0145823 0)
(0.978003 -0.00227111 0)
(0.98339 0.00927979 0)
(0.989316 0.0126636 0)
(0.999867 0.0130689 0)
(1.00674 0.00486825 0)
(1.0081 0.00177306 0)
(1.00735 -0.00765137 0)
(1.0029 -0.00802596 0)
(0.996581 -0.0116147 0)
(0.991371 -0.0096739 0)
(0.985407 -0.00892403 0)
(0.982396 -0.00387944 0)
(0.978816 -0.00195437 0)
(1.00717 -0.0114704 0)
(0.986372 -0.012854 0)
(0.972866 -0.00544483 0)
(0.988119 0.0176366 0)
(1.00561 -0.00587637 0)
(0.996497 -0.0119968 0)
(0.983712 -0.0140903 0)
(0.977745 -0.00237623 0)
(0.983249 0.00913559 0)
(0.9898 0.012115 0)
(1.00026 0.0126539 0)
(1.00714 0.00459135 0)
(1.00845 0.00168281 0)
(1.00745 -0.00721285 0)
(1.00304 -0.00776628 0)
(0.99692 -0.0108618 0)
(0.991731 -0.00913917 0)
(0.98617 -0.00818481 0)
(0.983118 -0.00347799 0)
(0.979792 -0.00149089 0)
(1.00679 -0.0113366 0)
(0.986242 -0.0126591 0)
(0.974183 -0.00537179 0)
(0.98895 0.017052 0)
(1.00565 -0.0056855 0)
(0.996261 -0.0119224 0)
(0.983628 -0.0135879 0)
(0.977984 -0.00248545 0)
(0.983612 0.00895788 0)
(0.990673 0.0115725 0)
(1.00067 0.0121854 0)
(1.00726 0.00436061 0)
(1.00846 0.00155543 0)
(1.00731 -0.00673651 0)
(1.00299 -0.00749714 0)
(0.99711 -0.0101125 0)
(0.992003 -0.00860802 0)
(0.986838 -0.00746288 0)
(0.983794 -0.00306367 0)
(0.9807 -0.00103619 0)
(1.00644 -0.0111918 0)
(0.98621 -0.0124778 0)
(0.975264 -0.00530085 0)
(0.989688 0.0164578 0)
(1.00566 -0.00546993 0)
(0.996132 -0.0118428 0)
(0.983713 -0.0130859 0)
(0.978529 -0.00259988 0)
(0.984189 0.00874198 0)
(0.99164 0.0110577 0)
(1.00095 0.0116784 0)
(1.00708 0.00417402 0)
(1.00812 0.00140885 0)
(1.00694 -0.00624188 0)
(1.00276 -0.00722213 0)
(0.997145 -0.00937182 0)
(0.992204 -0.00806043 0)
(0.987425 -0.00675943 0)
(0.98445 -0.00264819 0)
(0.981567 -0.000593305 0)
(1.00611 -0.0110364 0)
(0.986257 -0.0123086 0)
(0.976094 -0.00522856 0)
(0.99025 0.0158513 0)
(1.0056 -0.00523885 0)
(0.996134 -0.0117526 0)
(0.983919 -0.0125946 0)
(0.979245 -0.00271222 0)
(0.984791 0.00848389 0)
(0.992517 0.0105801 0)
(1.00101 0.0111549 0)
(1.00665 0.00403708 0)
(1.00751 0.00124889 0)
(1.00636 -0.00574401 0)
(1.00237 -0.00693808 0)
(0.997039 -0.00866558 0)
(0.992342 -0.00748393 0)
(0.987928 -0.00607141 0)
(0.985095 -0.00225381 0)
(0.982401 -0.000165607 0)
(1.0058 -0.0108714 0)
(0.986372 -0.0121483 0)
(0.976716 -0.00515555 0)
(0.99065 0.0152369 0)
(1.00548 -0.00499879 0)
(0.996276 -0.0116572 0)
(0.984211 -0.01211 0)
(0.980058 -0.00281089 0)
(0.985341 0.00817136 0)
(0.993229 0.0101433 0)
(1.00088 0.0106136 0)
(1.00607 0.00395268 0)
(1.00673 0.00109447 0)
(1.00565 -0.00526931 0)
(1.0019 -0.00661173 0)
(0.99682 -0.00799634 0)
(0.992431 -0.00696652 0)
(0.988343 -0.005361 0)
(0.985719 -0.00190201 0)
(0.983196 0.000217048 0)
(1.00551 -0.0106973 0)
(0.986544 -0.0119954 0)
(0.977186 -0.00507915 0)
(0.990936 0.0146063 0)
(1.00531 -0.00473974 0)
(0.996541 -0.0115632 0)
(0.984567 -0.0116404 0)
(0.98093 -0.00288531 0)
(0.985842 0.00782148 0)
(0.993774 0.00974612 0)
(1.00062 0.0100664 0)
(1.00542 0.00388436 0)
(1.00589 0.000961381 0)
(1.00487 -0.0048232 0)
(1.00138 -0.006297 0)
(0.996514 -0.00730156 0)
(0.992487 -0.00641509 0)
(0.98869 -0.00490769 0)
(0.986304 -0.00136712 0)
(0.983944 0.000647387 0)
(1.00524 -0.0105124 0)
(0.986758 -0.0118552 0)
(0.977555 -0.00498736 0)
(0.991147 0.0139542 0)
(1.00509 -0.00448919 0)
(0.996897 -0.0114546 0)
(0.98497 -0.0111928 0)
(0.981828 -0.00294275 0)
(0.986331 0.00744388 0)
(0.994179 0.00939123 0)
(1.00029 0.00953485 0)
(1.00475 0.00382229 0)
(1.00505 0.000846147 0)
(1.00407 -0.00437096 0)
(1.00088 -0.00602956 0)
(0.996186 -0.0066265 0)
(0.992477 -0.00579196 0)
(0.988991 -0.00442696 0)
(0.986874 -0.000929792 0)
(0.984588 0.00104593 0)
(1.00502 -0.0103234 0)
(0.986993 -0.0117066 0)
(0.977857 -0.0049131 0)
(0.991299 0.0133176 0)
(1.00483 -0.00425331 0)
(0.997304 -0.0113351 0)
(0.985406 -0.01077 0)
(0.982712 -0.0029474 0)
(0.986835 0.00699071 0)
(0.994472 0.00910771 0)
(0.999961 0.00897723 0)
(1.00408 0.00381421 0)
(1.00428 0.000694266 0)
(1.00329 -0.00388462 0)
(1.00042 -0.00575594 0)
(0.995869 -0.00600827 0)
(0.992476 -0.00535013 0)
(0.989227 -0.00352082 0)
(0.987379 -0.00104014 0)
(0.985195 0.00120874 0)
(1.00485 -0.0101193 0)
(0.987231 -0.0115825 0)
(0.978113 -0.0048024 0)
(0.991401 0.0126292 0)
(1.00456 -0.003985 0)
(0.997718 -0.0112297 0)
(0.985866 -0.0103616 0)
(0.983536 -0.00292133 0)
(0.987359 0.0065477 0)
(0.994674 0.00879543 0)
(0.999659 0.00850955 0)
(1.00346 0.00369921 0)
(1.00361 0.00070235 0)
(1.00258 -0.00359589 0)
(1.00001 -0.00536177 0)
(0.995583 -0.00548193 0)
(0.992529 -0.0047131 0)
(0.98943 -0.00332721 0)
(0.987799 -0.000268541 0)
(0.985819 0.00165141 0)
(1.00474 -0.00991401 0)
(0.987456 -0.0114465 0)
(0.978344 -0.00470166 0)
(0.991456 0.0119597 0)
(1.00427 -0.00378474 0)
(0.998093 -0.0110576 0)
(0.986338 -0.0100276 0)
(0.984267 -0.00283798 0)
(0.987893 0.00605767 0)
(0.994797 0.00854386 0)
(0.999397 0.00801072 0)
(1.00289 0.00361983 0)
(1.00301 0.000682281 0)
(1.00195 -0.0032576 0)
(0.99968 -0.00502796 0)
(0.995391 -0.00504359 0)
(0.992486 -0.00420902 0)
(0.98972 -0.00259607 0)
(0.988292 -8.37149e-05 0)
(0.986241 0.00192925 0)
(1.00469 -0.00970399 0)
(0.987659 -0.0112984 0)
(0.978567 -0.00461918 0)
(0.991473 0.0113133 0)
(1.00398 -0.00359026 0)
(0.998394 -0.0108887 0)
(0.986816 -0.0096817 0)
(0.984882 -0.00276037 0)
(0.988427 0.00558831 0)
(0.994849 0.00824298 0)
(0.999182 0.0076145 0)
(1.00239 0.00342337 0)
(1.00252 0.000798715 0)
(1.00141 -0.00302705 0)
(0.999394 -0.00461377 0)
(0.995254 -0.00465643 0)
(0.992648 -0.00379207 0)
(0.989919 -0.00209052 0)
(0.988611 0.000141598 0)
(0.986837 0.0022175 0)
(1.00468 -0.00946597 0)
(0.987843 -0.01121 0)
(0.9788 -0.00444905 0)
(0.991455 0.0105475 0)
(1.0037 -0.00332397 0)
(0.998595 -0.0107735 0)
(0.987291 -0.00931974 0)
(0.985377 -0.00269161 0)
(0.988942 0.00517908 0)
(0.994857 0.0078805 0)
(0.998986 0.00732316 0)
(1.00196 0.00319086 0)
(1.00209 0.000838524 0)
(1.00096 -0.00271973 0)
(0.999191 -0.00424529 0)
(0.995205 -0.00416359 0)
(0.992688 -0.00304448 0)
(0.990267 -0.00202683 0)
(0.989089 0.000959727 0)
(0.987234 0.00266325 0)
(1.00471 -0.0092559 0)
(0.988013 -0.0110404 0)
(0.979061 -0.00437704 0)
(0.991412 0.00991635 0)
(1.00342 -0.00323936 0)
(0.998681 -0.0104838 0)
(0.98776 -0.00913396 0)
(0.985768 -0.00245488 0)
(0.989438 0.00455086 0)
(0.994829 0.00778141 0)
(0.998809 0.0067508 0)
(1.00156 0.00326593 0)
(1.00175 0.000595343 0)
(1.00059 -0.00208715 0)
(0.999029 -0.00421025 0)
(0.995246 -0.00340478 0)
(0.992819 -0.0025365 0)
(0.990545 -0.000883348 0)
(0.98948 0.000256775 0)
(0.987706 0.00232985 0)
(1.00475 -0.00901974 0)
(0.988188 -0.0109057 0)
(0.979358 -0.00425777 0)
(0.991352 0.00925294 0)
(1.00314 -0.00310075 0)
(0.998675 -0.0102422 0)
(0.988211 -0.00887809 0)
(0.98608 -0.00230967 0)
(0.989893 0.00413618 0)
(0.994801 0.00735692 0)
(0.998629 0.00653267 0)
(1.00122 0.00297285 0)
(1.00145 0.000783139 0)
(1.00028 -0.00189371 0)
(0.998942 -0.00366672 0)
(0.995411 -0.00312402 0)
(0.993081 -0.00218663 0)
(0.990797 -0.000593143 0)
(0.989787 0.00102283 0)
(0.988302 0.0027711 0)
(1.00476 -0.00875403 0)
(0.988382 -0.0108313 0)
(0.979694 -0.00406523 0)
(0.991304 0.00845149 0)
(1.00287 -0.00284742 0)
(0.998587 -0.0101171 0)
(0.988641 -0.00856146 0)
(0.98636 -0.00227805 0)
(0.990295 0.00389173 0)
(0.994794 0.00679083 0)
(0.998428 0.00647724 0)
(1.00092 0.00263773 0)
(1.00117 0.000862289 0)
(1.00004 -0.00162804 0)
(0.998846 -0.0030253 0)
(0.995528 -0.0028487 0)
(0.993273 -0.00169514 0)
(0.991247 -0.000519039 0)
(0.990257 0.00186329 0)
(0.988679 0.00325287 0)
(1.00476 -0.00853768 0)
(0.988595 -0.0106453 0)
(0.980084 -0.00400285 0)
(0.991268 0.00788958 0)
(1.0026 -0.0029274 0)
(0.998437 -0.00968004 0)
(0.989061 -0.00850449 0)
(0.986617 -0.00196119 0)
(0.990669 0.0031795 0)
(0.994802 0.00676903 0)
(0.998226 0.00579185 0)
(1.00063 0.00288232 0)
(1.00094 0.000435156 0)
(0.999837 -0.000874817 0)
(0.998794 -0.00287572 0)
(0.99571 -0.00194017 0)
(0.993517 -0.00117816 0)
(0.991601 0.000539039 0)
(0.990675 0.00111238 0)
(0.989169 0.00271151 0)
(1.00471 -0.00828581 0)
(0.988841 -0.0104961 0)
(0.980517 -0.00389027 0)
(0.991264 0.00725317 0)
(1.00232 -0.00284767 0)
(0.998257 -0.00937991 0)
(0.989461 -0.0082922 0)
(0.986879 -0.00185229 0)
(0.991013 0.00294001 0)
(0.99484 0.00611178 0)
(0.998021 0.00580792 0)
(1.00035 0.0025343 0)
(1.00074 0.00062233 0)
(0.999667 -0.000783865 0)
(0.998763 -0.00237201 0)
(0.995966 -0.00181707 0)
(0.993895 -0.000892677 0)
(0.991898 0.000610825 0)
(0.990925 0.00190009 0)
(0.989748 0.00322558 0)
(1.00462 -0.0079816 0)
(0.989121 -0.0104628 0)
(0.980984 -0.00366797 0)
(0.991309 0.00646248 0)
(1.00205 -0.00267392 0)
(0.998072 -0.00923148 0)
(0.98983 -0.00793301 0)
(0.987189 -0.00191819 0)
(0.991298 0.00285112 0)
(0.994938 0.0054337 0)
(0.997807 0.00575981 0)
(1.00008 0.00215833 0)
(1.00053 0.000755529 0)
(0.999512 -0.000667742 0)
(0.99871 -0.00178583 0)
(0.996123 -0.00167683 0)
(0.994123 -0.000516469 0)
(0.992392 0.000653575 0)
(0.991466 0.00283609 0)
(0.990116 0.00385969 0)
(1.00451 -0.0077885 0)
(0.989414 -0.0102166 0)
(0.981494 -0.00366415 0)
(0.991383 0.00602985 0)
(1.00179 -0.00289709 0)
(0.997871 -0.00867377 0)
(0.990189 -0.00798391 0)
(0.987504 -0.00156353 0)
(0.991608 0.00212229 0)
(0.995024 0.00551163 0)
(0.997604 0.0048795 0)
(0.99981 0.00271136 0)
(1.00037 0.000325401 0)
(0.999375 0.000214604 0)
(0.998657 -0.00162591 0)
(0.996311 -0.000625635 0)
(0.99445 -3.57975e-05 0)
(0.992798 0.00190289 0)
(0.991842 0.0021607 0)
(0.990542 0.00326448 0)
(1.00437 -0.00747368 0)
(0.989731 -0.0101484 0)
(0.982027 -0.0035018 0)
(0.99149 0.00540062 0)
(1.00152 -0.00282788 0)
(0.997691 -0.00842798 0)
(0.990524 -0.00768054 0)
(0.987844 -0.00160471 0)
(0.991886 0.00207469 0)
(0.995146 0.0047879 0)
(0.997452 0.00492562 0)
(0.999546 0.00240288 0)
(1.00022 0.000456052 0)
(0.999261 0.000165074 0)
(0.998655 -0.00110453 0)
(0.996567 -0.000614311 0)
(0.994854 0.000251651 0)
(0.993095 0.00168816 0)
(0.992022 0.00285587 0)
(0.991054 0.00383577 0)
(1.00421 -0.00719572 0)
(0.990073 -0.0100494 0)
(0.982567 -0.00337273 0)
(0.991642 0.0047645 0)
(1.00125 -0.00278776 0)
(0.997546 -0.00822816 0)
(0.990821 -0.00732098 0)
(0.98823 -0.00172228 0)
(0.992149 0.00208471 0)
(0.995293 0.00405598 0)
(0.99728 0.00496371 0)
(0.999282 0.00209439 0)
(1.00006 0.000510102 0)
(0.999177 -3.4377e-05 0)
(0.998576 -0.000700322 0)
(0.996692 -0.000631693 0)
(0.995086 0.000647485 0)
(0.993604 0.00178712 0)
(0.992591 0.00402857 0)
(0.991334 0.00475446 0)
(1.00405 -0.006974 0)
(0.990406 -0.00982783 0)
(0.983136 -0.00339715 0)
(0.991796 0.00441939 0)
(1.001 -0.00302492 0)
(0.99741 -0.0077486 0)
(0.99112 -0.00726977 0)
(0.988613 -0.00152684 0)
(0.992421 0.00164414 0)
(0.995449 0.00389653 0)
(0.997172 0.00450967 0)
(0.999 0.002468 0)
(0.99991 0.000423799 0)
(0.999092 0.000407088 0)
(0.998568 -0.000493278 0)
(0.996906 0.000120204 0)
(0.995459 0.000930531 0)
(0.994068 0.00258363 0)
(0.992944 0.00372631 0)
(0.991619 0.00442727 0)
(1.0039 -0.00662933 0)
(0.99075 -0.00979528 0)
(0.983705 -0.00322868 0)
(0.991953 0.0038146 0)
(1.00076 -0.00298532 0)
(0.997299 -0.00750709 0)
(0.991408 -0.00697809 0)
(0.988996 -0.00155705 0)
(0.992689 0.00147473 0)
(0.995613 0.00351047 0)
(0.997083 0.0043012 0)
(0.998739 0.00253193 0)
(0.999772 0.000573811 0)
(0.999038 0.000553679 0)
(0.998566 -2.05645e-05 0)
(0.997065 0.00044259 0)
(0.995781 0.00115987 0)
(0.99447 0.00242182 0)
(0.993255 0.00359276 0)
(0.991938 0.00437926 0)
(1.00373 -0.00638735 0)
(0.991106 -0.00962322 0)
(0.984271 -0.0032278 0)
(0.99212 0.0034054 0)
(1.00052 -0.00306131 0)
(0.997206 -0.00726991 0)
(0.991684 -0.00671976 0)
(0.989379 -0.00152559 0)
(0.992947 0.00128196 0)
(0.995787 0.00313511 0)
(0.997036 0.00407731 0)
(0.998489 0.00270662 0)
(0.999617 0.000638337 0)
(0.999006 0.000700861 0)
(0.998574 0.000266021 0)
(0.997224 0.000794029 0)
(0.996028 0.00136099 0)
(0.994847 0.00244418 0)
(0.993651 0.00367698 0)
(0.99225 0.00445306 0)
(1.00357 -0.00610102 0)
(0.991467 -0.00948963 0)
(0.984842 -0.00320131 0)
(0.992285 0.0030245 0)
(1.00028 -0.00318125 0)
(0.997135 -0.00699419 0)
(0.991962 -0.00645402 0)
(0.989753 -0.00151029 0)
(0.993198 0.00114635 0)
(0.995967 0.00277916 0)
(0.997024 0.00387433 0)
(0.998244 0.00281497 0)
(0.999464 0.000750015 0)
(0.998986 0.000832016 0)
(0.99861 0.00054811 0)
(0.99736 0.00110001 0)
(0.996268 0.00161215 0)
(0.99523 0.00254181 0)
(0.993987 0.00371746 0)
(0.992552 0.00445513 0)
(1.00341 -0.00579457 0)
(0.991836 -0.00938862 0)
(0.985407 -0.00315295 0)
(0.992448 0.0025596 0)
(1.00006 -0.00317522 0)
(0.997081 -0.00678589 0)
(0.992231 -0.00620312 0)
(0.990129 -0.00151392 0)
(0.993438 0.00109124 0)
(0.996152 0.00239665 0)
(0.997045 0.00368982 0)
(0.99802 0.00287937 0)
(0.999301 0.000947712 0)
(0.998985 0.000898932 0)
(0.998652 0.000829195 0)
(0.997515 0.00130418 0)
(0.996462 0.00196331 0)
(0.99556 0.00257929 0)
(0.994368 0.003734 0)
(0.992847 0.00443609 0)
(1.00325 -0.00553649 0)
(0.992208 -0.00922317 0)
(0.985975 -0.00318509 0)
(0.992613 0.00223508 0)
(0.999843 -0.00321312 0)
(0.997032 -0.00662204 0)
(0.992511 -0.0059678 0)
(0.990504 -0.0014538 0)
(0.993666 0.000985349 0)
(0.996333 0.00211189 0)
(0.997101 0.00340053 0)
(0.997817 0.00300079 0)
(0.999134 0.00108746 0)
(0.998985 0.00104191 0)
(0.998719 0.000966351 0)
(0.99768 0.00158173 0)
(0.996657 0.00219128 0)
(0.995857 0.00280841 0)
(0.994697 0.00370714 0)
(0.993139 0.00433508 0)
(1.00309 -0.00523725 0)
(0.992583 -0.00909616 0)
(0.98654 -0.00315856 0)
(0.992774 0.0018294 0)
(0.999635 -0.00320897 0)
(0.997 -0.00644093 0)
(0.992793 -0.00569713 0)
(0.990874 -0.00145254 0)
(0.99388 0.00094686 0)
(0.996507 0.00181898 0)
(0.997188 0.0031432 0)
(0.997643 0.00304538 0)
(0.998963 0.00130369 0)
(0.998981 0.00112189 0)
(0.9988 0.00114535 0)
(0.997868 0.00171779 0)
(0.99685 0.00248931 0)
(0.996114 0.00289036 0)
(0.994982 0.00371024 0)
(0.993424 0.00424832 0)
(1.00294 -0.00495876 0)
(0.99296 -0.0089472 0)
(0.987102 -0.0031883 0)
(0.992939 0.00145035 0)
(0.99944 -0.00314187 0)
(0.996971 -0.00628157 0)
(0.993075 -0.0055081 0)
(0.991246 -0.00142473 0)
(0.994083 0.000935631 0)
(0.996672 0.00159601 0)
(0.997302 0.00283415 0)
(0.997508 0.00308693 0)
(0.998786 0.0015132 0)
(0.998978 0.00122305 0)
(0.998887 0.00131445 0)
(0.998087 0.00182755 0)
(0.997037 0.00274061 0)
(0.996329 0.00303169 0)
(0.995263 0.0037672 0)
(0.993692 0.00418496 0)
(1.00279 -0.00468392 0)
(0.993332 -0.00878975 0)
(0.987665 -0.00320999 0)
(0.99311 0.00109968 0)
(0.999251 -0.003118 0)
(0.996943 -0.00610747 0)
(0.993363 -0.00530923 0)
(0.991621 -0.00137015 0)
(0.994277 0.000926177 0)
(0.996815 0.00141689 0)
(0.997442 0.00250572 0)
(0.997415 0.00310848 0)
(0.998611 0.00173114 0)
(0.998969 0.00135068 0)
(0.998979 0.00146936 0)
(0.998321 0.00189484 0)
(0.997254 0.0029064 0)
(0.996534 0.00318549 0)
(0.995481 0.00381664 0)
(0.993935 0.00410076 0)
(1.00264 -0.00440243 0)
(0.993704 -0.00863586 0)
(0.988224 -0.00323481 0)
(0.993283 0.000717994 0)
(0.999076 -0.00305318 0)
(0.996922 -0.00589849 0)
(0.99365 -0.0051269 0)
(0.991996 -0.00136226 0)
(0.994458 0.000907754 0)
(0.996941 0.00127426 0)
(0.997602 0.00220665 0)
(0.997372 0.00305555 0)
(0.998441 0.00195862 0)
(0.998954 0.00145701 0)
(0.999058 0.00165322 0)
(0.998568 0.0019309 0)
(0.997488 0.00304353 0)
(0.99672 0.00331772 0)
(0.99568 0.00390529 0)
(0.994151 0.0040775 0)
(1.0025 -0.0041369 0)
(0.994068 -0.00846334 0)
(0.988781 -0.00328286 0)
(0.993468 0.000368512 0)
(0.998913 -0.00299634 0)
(0.996895 -0.00568262 0)
(0.993931 -0.00497279 0)
(0.992373 -0.00134286 0)
(0.99464 0.000901853 0)
(0.997046 0.00121379 0)
(0.997769 0.00191482 0)
(0.997377 0.00294995 0)
(0.998284 0.00216548 0)
(0.998939 0.0015778 0)
(0.999137 0.00185984 0)
(0.998814 0.00198778 0)
(0.99776 0.00311817 0)
(0.996925 0.00343784 0)
(0.995844 0.00399479 0)
(0.994335 0.00408707 0)
(1.00236 -0.003867 0)
(0.994428 -0.00829463 0)
(0.989331 -0.0033138 0)
(0.993656 1.68024e-05 0)
(0.998767 -0.00296723 0)
(0.996874 -0.00543112 0)
(0.994211 -0.00479135 0)
(0.992752 -0.00134224 0)
(0.994817 0.000887459 0)
(0.997129 0.00116549 0)
(0.997934 0.0016585 0)
(0.997434 0.00278648 0)
(0.998148 0.00239347 0)
(0.998926 0.00170613 0)
(0.999201 0.00206055 0)
(0.999041 0.00203776 0)
(0.998041 0.00312825 0)
(0.997134 0.0034922 0)
(0.996008 0.00405636 0)
(0.994487 0.00413386 0)
(1.00222 -0.00361101 0)
(0.994779 -0.00810715 0)
(0.989877 -0.0033686 0)
(0.993854 -0.00031315 0)
(0.998638 -0.00294581 0)
(0.996852 -0.00516052 0)
(0.994476 -0.00462429 0)
(0.993128 -0.00136082 0)
(0.994998 0.000846677 0)
(0.997194 0.00114587 0)
(0.998089 0.0014528 0)
(0.997544 0.0025896 0)
(0.998042 0.0025932 0)
(0.998905 0.00182365 0)
(0.999261 0.00221959 0)
(0.999246 0.00211902 0)
(0.998343 0.00312913 0)
(0.997381 0.00356991 0)
(0.996185 0.00412398 0)
(0.994629 0.00424449 0)
(1.00209 -0.00335465 0)
(0.995124 -0.00791934 0)
(0.990415 -0.00341175 0)
(0.994053 -0.000634154 0)
(0.998527 -0.00295461 0)
(0.996836 -0.00488535 0)
(0.994736 -0.00442225 0)
(0.993505 -0.00136898 0)
(0.995183 0.000811536 0)
(0.997246 0.00114437 0)
(0.998227 0.00132634 0)
(0.997696 0.00234964 0)
(0.997965 0.00273461 0)
(0.998878 0.00194524 0)
(0.999315 0.00234857 0)
(0.999433 0.00223961 0)
(0.998649 0.00313244 0)
(0.997637 0.00362043 0)
(0.996383 0.00414614 0)
(0.994752 0.00433627 0)
(1.00196 -0.00311482 0)
(0.995458 -0.00771188 0)
(0.990945 -0.00348029 0)
(0.994259 -0.000931135 0)
(0.998437 -0.00297853 0)
(0.996826 -0.00458887 0)
(0.994978 -0.00419353 0)
(0.993872 -0.00139238 0)
(0.995372 0.000737736 0)
(0.997291 0.00113486 0)
(0.998339 0.00124038 0)
(0.997877 0.00208824 0)
(0.997935 0.00281974 0)
(0.998847 0.00209082 0)
(0.999377 0.00245126 0)
(0.999601 0.00239618 0)
(0.998948 0.00310179 0)
(0.997909 0.00366642 0)
(0.996599 0.00413534 0)
(0.994883 0.00442564 0)
(1.00184 -0.00287126 0)
(0.995783 -0.0075079 0)
(0.991464 -0.00352042 0)
(0.994465 -0.00123427 0)
(0.998368 -0.0030267 0)
(0.99683 -0.0043315 0)
(0.995209 -0.00393539 0)
(0.99423 -0.00139224 0)
(0.995568 0.00067 0)
(0.997336 0.00113197 0)
(0.998426 0.00121937 0)
(0.998082 0.00185316 0)
(0.997951 0.00285398 0)
(0.998815 0.00226103 0)
(0.999436 0.00254449 0)
(0.99974 0.00253715 0)
(0.999233 0.00307281 0)
(0.998189 0.00369444 0)
(0.996842 0.00410676 0)
(0.995029 0.00449689 0)
(1.00172 -0.00264805 0)
(0.996097 -0.00727507 0)
(0.991972 -0.00359503 0)
(0.994674 -0.00148152 0)
(0.99832 -0.00310523 0)
(0.996846 -0.00406938 0)
(0.995425 -0.00364349 0)
(0.994573 -0.00138918 0)
(0.995768 0.000589665 0)
(0.997387 0.00110631 0)
(0.998487 0.00122743 0)
(0.998291 0.00164447 0)
(0.998024 0.0028106 0)
(0.998789 0.00244383 0)
(0.999488 0.00259274 0)
(0.999861 0.00267418 0)
(0.999504 0.00304765 0)
(0.998475 0.00371436 0)
(0.997101 0.00407162 0)
(0.99519 0.00453183 0)
(1.0016 -0.00243294 0)
(0.996396 -0.00703232 0)
(0.992472 -0.00365656 0)
(0.994883 -0.00171184 0)
(0.998289 -0.00320343 0)
(0.996876 -0.00380122 0)
(0.99562 -0.00335959 0)
(0.994896 -0.00138379 0)
(0.995973 0.000505747 0)
(0.997451 0.00106925 0)
(0.998533 0.00127419 0)
(0.9985 0.00150759 0)
(0.998152 0.00271075 0)
(0.99877 0.00259873 0)
(0.999531 0.00263908 0)
(0.999964 0.00280892 0)
(0.999751 0.00304365 0)
(0.998759 0.00372015 0)
(0.997367 0.00403903 0)
(0.995365 0.00453661 0)
(1.00149 -0.00221589 0)
(0.996685 -0.00680684 0)
(0.992959 -0.00367484 0)
(0.99509 -0.00195485 0)