/*--------------------------------*- C++ -*----------------------------------*\
| =========                 |                                                 |
| \\      /  F ield         | OpenFOAM: The Open Source CFD Toolbox           |
|  \\    /   O peration     | Version:  v2012                                 |
|   \\  /    A nd           | Website:  www.openfoam.com                      |
|    \\/     M anipulation  |                                                 |
\*---------------------------------------------------------------------------*/
FoamFile
{
    version     2.0;
    format      ascii;
    class       volScalarField;
    location    "7.9";
    object      p;
}
// * * * * * * * * * * * * * * * * * * * * * * * * * * * * * * * * * * * * * //

dimensions      [0 2 -2 0 0 0 0];


internalField   nonuniform List<scalar> 
7000
(
3.26831e-10
0.0010773
0.00113191
0.000803924
0.00207179
0.00275978
0.00194869
0.00192585
-0.00249743
0.000519295
-0.0042147
-0.00221152
-0.00382438
-0.00241733
-0.00410789
-0.00268249
-0.00342688
-0.00220654
-0.00206905
-0.000568888
-4.95083e-07
0.00107807
0.0011322
0.000805914
0.00207248
0.00274048
0.00196394
0.00189107
-0.00247854
0.000501869
-0.00420036
-0.00220523
-0.00381646
-0.00241097
-0.00409847
-0.00267129
-0.0034113
-0.0022101
-0.00205434
-0.000634659
-1.09198e-06
0.00107918
0.00113281
0.000808531
0.0020696
0.00271478
0.00197296
0.00184977
-0.00246261
0.000478845
-0.00417004
-0.00220252
-0.0037968
-0.00241397
-0.00407105
-0.00268064
-0.00337326
-0.00223531
-0.00203547
-0.000745911
-1.65977e-06
0.00108023
0.00113369
0.000810275
0.00206738
0.00268388
0.00196948
0.0018065
-0.00244714
0.000453927
-0.00412472
-0.0022064
-0.00376691
-0.00242964
-0.00403014
-0.00271465
-0.00332205
-0.00227733
-0.00202407
-0.000877146
-2.23569e-06
0.00108118
0.00113495
0.00081167
0.00206751
0.00264734
0.00195765
0.00176502
-0.00242803
0.000427699
-0.0040666
-0.00221866
-0.00373076
-0.00245668
-0.00398469
-0.00276119
-0.00327564
-0.00232609
-0.00202028
-0.00100551
-2.83981e-06
0.00108212
0.00113674
0.000813198
0.00206938
0.0026058
0.00194105
0.00172703
-0.00240412
0.000399341
-0.00399964
-0.00223964
-0.00369161
-0.00249214
-0.0039389
-0.00281282
-0.00323194
-0.00237491
-0.00202318
-0.00112187
-3.47764e-06
0.0010831
0.00113917
0.000814901
0.00207258
0.00256009
0.00192216
0.00169203
-0.00237577
0.000367926
-0.00392711
-0.00226778
-0.00365039
-0.00253244
-0.00389331
-0.00286625
-0.0031931
-0.00242198
-0.00203358
-0.00122884
-4.15536e-06
0.00108416
0.00114224
0.000816861
0.00207695
0.0025109
0.00190285
0.00165883
-0.00234375
0.000332817
-0.00385037
-0.00230114
-0.00360678
-0.00257523
-0.00384789
-0.0029199
-0.00315908
-0.00246728
-0.00205303
-0.00133243
-4.87934e-06
0.00108532
0.00114597
0.000819223
0.00208212
0.00245875
0.00188417
0.00162613
-0.00230856
0.00029365
-0.00376952
-0.00233853
-0.00356034
-0.0026195
-0.00380258
-0.0029724
-0.00312996
-0.00251134
-0.00208215
-0.00143627
-5.65343e-06
0.00108661
0.00115033
0.000822031
0.00208753
0.00240402
0.00186653
0.00159284
-0.00227043
0.000250235
-0.00368431
-0.00237945
-0.00351097
-0.00266469
-0.00375768
-0.00302243
-0.00310628
-0.00255422
-0.00211985
-0.00154065
-6.47842e-06
0.00108801
0.00115523
0.00082521
0.00209256
0.00234706
0.00184987
0.00155804
-0.00222939
0.000202499
-0.0035947
-0.00242365
-0.00345894
-0.00271024
-0.00371392
-0.0030687
-0.00308803
-0.00259535
-0.00216398
-0.00164433
-7.35318e-06
0.00108952
0.00116055
0.000828633
0.00209669
0.00228815
0.00183396
0.00152091
-0.00218535
0.00015044
-0.00350091
-0.00247084
-0.00340492
-0.0027553
-0.00367219
-0.00310999
-0.00307541
-0.00263401
-0.00221231
-0.00174629
-8.27574e-06
0.0010911
0.00116616
0.000832177
0.00209959
0.00222755
0.0018185
0.00148077
-0.00213817
9.41103e-05
-0.00340333
-0.00252049
-0.00335001
-0.00279862
-0.00363349
-0.00314516
-0.00306802
-0.00266986
-0.00226328
-0.00184625
-9.24386e-06
0.00109275
0.00117197
0.000835763
0.00210121
0.0021655
0.00180325
0.00143706
-0.0020877
3.36488e-05
-0.00330248
-0.0025719
-0.00329556
-0.00283871
-0.00359893
-0.00317335
-0.00306485
-0.00270312
-0.00231583
-0.00194411
-1.02552e-05
0.00109445
0.00117795
0.000839351
0.00210177
0.00210225
0.00178811
0.0013894
-0.0020339
-3.07229e-05
-0.00319898
-0.00262411
-0.00324306
-0.0028741
-0.00356956
-0.00319429
-0.00306466
-0.00273411
-0.00236895
-0.00203949
-1.1306e-05
0.00109617
0.00118408
0.000842933
0.00210171
0.00203807
0.00177313
0.00133755
-0.0019768
-9.87278e-05
-0.00309361
-0.00267591
-0.00319407
-0.00290351
-0.00354614
-0.00320844
-0.0030663
-0.00276306
-0.00242156
-0.00213154
-1.23906e-05
0.0010979
0.00119037
0.0008465
0.00210148
0.00197325
0.00175853
0.00128139
-0.00191647
-0.000169958
-0.00298736
-0.00272586
-0.00315021
-0.00292599
-0.00352891
-0.0032167
-0.00306887
-0.00279054
-0.00247261
-0.00221896
-1.35007e-05
0.00109961
0.00119682
0.000850011
0.00210142
0.00190803
0.00174453
0.00122094
-0.00185316
-0.000243759
-0.00288154
-0.00277231
-0.00311312
-0.00294129
-0.0035176
-0.00322048
-0.00307178
-0.00281781
-0.0025215
-0.00229987
-1.46251e-05
0.00110129
0.00120345
0.000853391
0.00210166
0.00184259
0.00173131
0.00115642
-0.00178723
-0.00031925
-0.0027776
-0.00281341
-0.0030839
-0.00294971
-0.00351172
-0.00322164
-0.00307439
-0.00284646
-0.00256926
-0.00237271
-1.57489e-05
0.00110289
0.00121026
0.000856542
0.00210217
0.00177697
0.00171891
0.00108827
-0.00171921
-0.000395358
-0.00267727
-0.00284732
-0.00306307
-0.00295168
-0.00351055
-0.00322273
-0.00307584
-0.00287687
-0.00261777
-0.002438
-1.68538e-05
0.00110439
0.0012173
0.000859363
0.00210283
0.00171112
0.00170722
0.00101704
-0.00164969
-0.000470797
-0.00258241
-0.00287264
-0.00305095
-0.00294768
-0.0035126
-0.0032267
-0.00307664
-0.0029082
-0.00266748
-0.00249763
-1.79179e-05
0.00110573
0.00122465
0.000861766
0.00210349
0.00164495
0.00169601
0.000943421
-0.00157943
-0.000544094
-0.00249477
-0.00288829
-0.00304766
-0.00293903
-0.00351587
-0.00323509
-0.00307777
-0.00294079
-0.00271889
-0.00255297
-1.89157e-05
0.00110684
0.00123239
0.000863678
0.00210405
0.00157833
0.00168498
0.000868089
-0.00150941
-0.000613471
-0.00241584
-0.00289395
-0.00305271
-0.00292761
-0.00351877
-0.00324838
-0.00307924
-0.00297514
-0.00277351
-0.0026055
-1.98157e-05
0.00110768
0.0012406
0.000865037
0.00210451
0.00151122
0.00167377
0.000791831
-0.00144093
-0.000677232
-0.00234655
-0.00288995
-0.00306524
-0.00291515
-0.00351982
-0.00326692
-0.00308162
-0.00301111
-0.00283179
-0.00265651
-2.05812e-05
0.00110816
0.00124938
0.000865805
0.00210486
0.00144364
0.00166194
0.000715523
-0.00137518
-0.000734314
-0.00228769
-0.00287636
-0.00308436
-0.00290365
-0.00351726
-0.00329143
-0.00308599
-0.00304722
-0.00289356
-0.00270718
-2.11761e-05
0.0011082
0.00125878
0.000865969
0.00210514
0.00137564
0.00164896
0.000639922
-0.00131334
-0.000783375
-0.00224031
-0.00285388
-0.0031082
-0.00289549
-0.00350932
-0.00332361
-0.00309509
-0.00307871
-0.00295588
-0.00275983
-2.1555e-05
0.0011077
0.00126887
0.000865524
0.00210528
0.00130732
0.00163425
0.000566071
-0.00125698
-0.000823408
-0.0022041
-0.00282436
-0.0031344
-0.00289418
-0.00349431
-0.00336182
-0.00311464
-0.00310614
-0.00301155
-0.00281223
-2.16514e-05
0.00110656
0.00127971
0.000864472
0.00210523
0.00123884
0.0016171
0.000495065
-0.00120673
-0.000854713
-0.00217856
-0.00278892
-0.00316001
-0.00290257
-0.00347472
-0.00339976
-0.003143
-0.00313797
-0.00305688
-0.00286047
-2.14151e-05
0.00110468
0.0012913
0.000862823
0.00210489
0.00117048
0.00159674
0.000427638
-0.00116337
-0.000876103
-0.00216382
-0.0027501
-0.00318233
-0.00291965
-0.00345537
-0.00343528
-0.00316928
-0.00317213
-0.00313127
-0.00290637
-2.07924e-05
0.00110196
0.00130367
0.000860613
0.00210384
0.00110283
0.00157208
0.000365197
-0.0011285
-0.000887673
-0.00215745
-0.00271044
-0.00320149
-0.0029446
-0.00343604
-0.00347458
-0.00320623
-0.00319695
-0.0031739
-0.00295368
-1.96584e-05
0.00109824
0.00131686
0.000857929
0.00210171
0.00103645
0.00154241
0.000308305
-0.0011019
-0.000890929
-0.00215906
-0.00267103
-0.0032134
-0.00298013
-0.00341817
-0.00351589
-0.00325241
-0.00322
-0.00316017
-0.00299992
-1.80253e-05
0.00109348
0.0013307
0.000854921
0.00209817
0.000971938
0.00150714
0.000256826
-0.00108316
-0.000886037
-0.00216707
-0.00263849
-0.0032131
-0.00302476
-0.00340361
-0.00354916
-0.0032986
-0.00325094
-0.00325042
-0.00303805
-1.5802e-05
0.00108754
0.00134521
0.000851495
0.00209272
0.000910413
0.00146528
0.000211057
-0.00107227
-0.000875493
-0.00217294
-0.00261985
-0.00320373
-0.00307486
-0.00339246
-0.00357718
-0.0033714
-0.00330183
-0.00319382
-0.00305634
-1.26978e-05
0.00108016
0.00137734
0.000847734
0.002085
0.000852355
0.00141765
0.000170835
-0.00106866
-0.000860335
-0.00217733
-0.00260978
-0.00318942
-0.00312717
-0.00338833
-0.00359133
-0.00343528
-0.00339656
-0.00332012
-0.00305819
-8.97909e-06
0.00107158
0.00139224
0.000844709
0.00207366
0.000798534
0.00136161
0.00013879
-0.00107281
-0.000841563
-0.00218356
-0.00260411
-0.00316921
-0.00317929
-0.0034056
-0.0036277
-0.00348866
-0.00338195
-0.00334247
-0.00306796
-4.4243e-06
0.00106141
0.00140754
0.000842295
0.00205824
0.000749879
0.00129521
0.000112838
-0.00108259
-0.000822074
-0.00218324
-0.0026146
-0.00314399
-0.00323254
-0.00344126
-0.00366995
-0.0035466
-0.00324378
-0.00320222
-0.00307736
1.50936e-06
0.00104904
0.00142761
0.000839556
0.00203976
0.000706346
0.00126708
8.70159e-05
-0.00109244
-0.000806169
-0.00217429
-0.00263809
-0.00312625
-0.00327188
-0.00346969
-0.00369861
-0.00360065
-0.00351142
-0.00338883
-0.0030573
8.10796e-06
0.00103561
0.00144394
0.000839085
0.00201531
0.00067058
0.00118531
6.72967e-05
-0.00110569
-0.000792078
-0.00216435
-0.00266222
-0.00311379
-0.00332558
-0.0035138
-0.00372754
-0.00365078
-0.00355129
-0.00340809
-0.00304733
1.58457e-05
0.00102054
0.00145912
0.000841132
0.00198457
0.000640636
0.00109107
5.28206e-05
-0.00111921
-0.000782993
-0.00214921
-0.00269748
-0.00310016
-0.00339302
-0.0035748
-0.00376427
-0.00370682
-0.00340301
-0.0031981
-0.0030473
2.55169e-05
0.00100277
0.00147879
0.00084314
0.00195111
0.00061146
0.00101159
2.96751e-05
-0.00112359
-0.000783401
-0.00212955
-0.00274485
-0.00309815
-0.00341147
-0.00362294
-0.00380058
-0.00375282
-0.00365866
-0.00345872
-0.0030161
3.5854e-05
0.000984439
0.00149262
0.000849844
0.00190991
0.000592166
0.000919305
9.79777e-06
-0.00113
-0.000782975
-0.00210888
-0.00279354
-0.00311301
-0.00345681
-0.00368481
-0.00384016
-0.00379118
-0.00370849
-0.00348878
-0.00300301
4.75371e-05
0.000964921
0.00150232
0.000861502
0.00186172
0.000578934
0.000816912
-5.87627e-06
-0.0011369
-0.000785664
-0.0020828
-0.00285194
-0.00314368
-0.00350817
-0.00375565
-0.0038906
-0.00384691
-0.00353556
-0.00321583
-0.00300644
6.18035e-05
0.000942546
0.00151663
0.000872593
0.00181366
0.00055691
0.000730917
-3.61454e-05
-0.00113633
-0.000794076
-0.00205462
-0.00290974
-0.00317921
-0.00354484
-0.00380133
-0.00393775
-0.00389223
-0.00382141
-0.00355129
-0.00296836
7.63995e-05
0.000921003
0.00152069
0.000890836
0.00175727
0.000548658
0.000635262
-6.0679e-05
-0.00114225
-0.000805844
-0.00202174
-0.00296618
-0.00323971
-0.00359535
-0.00385439
-0.00398988
-0.00394497
-0.00389635
-0.00359209
-0.00294284
9.27661e-05
0.000898802
0.00151895
0.000914346
0.00169561
0.000545112
0.000534509
-8.15539e-05
-0.0011512
-0.000823364
-0.00198922
-0.00301926
-0.00330509
-0.00365571
-0.00392752
-0.00407206
-0.00415041
-0.00372715
-0.00327125
-0.00294259
0.000112104
0.000874166
0.00152099
0.000935762
0.00164021
0.000516097
0.000458825
-0.000123766
-0.00115082
-0.000851477
-0.00195935
-0.00306719
-0.00334972
-0.00365463
-0.0039876
-0.00417831
-0.00411181
-0.00402756
-0.00368239
-0.00289495
0.00013131
0.000851712
0.00150931
0.000963423
0.00158208
0.000495654
0.000380202
-0.000165692
-0.00115329
-0.000891448
-0.00193043
-0.00309663
-0.00339736
-0.00367185
-0.00405624
-0.00430618
-0.0043247
-0.00422873
-0.00374336
-0.00279286
0.000153277
0.000828812
0.00149376
0.00099363
0.0015229
0.000478378
0.000296429
-0.000203488
-0.00116343
-0.000936143
-0.00190422
-0.00311551
-0.00345855
-0.00371087
-0.00411966
-0.00442155
-0.0044788
-0.00432869
-0.00378248
-0.00274291
0.000177126
0.000805443
0.00147491
0.00102317
0.00146895
0.000453239
0.000215261
-0.000246295
-0.00117856
-0.00098639
-0.00188177
-0.00312598
-0.00352754
-0.00375782
-0.00417022
-0.00452422
-0.00459076
-0.0044045
-0.00384306
-0.00271416
0.000201666
0.000783906
0.00144686
0.00105278
0.00141867
0.000428988
0.000135779
-0.000296532
-0.00119478
-0.00104093
-0.00186486
-0.00312818
-0.00360034
-0.00381691
-0.00421778
-0.00460888
-0.00468747
-0.00449088
-0.00388853
-0.00267967
0.000228629
0.000763069
0.00141461
0.00107972
0.00137204
0.000404103
5.6905e-05
-0.00035022
-0.00121333
-0.00110059
-0.00185585
-0.00312629
-0.00367
-0.0038824
-0.00425887
-0.00467993
-0.00477072
-0.00455729
-0.00392004
-0.00263283
0.0002568
0.000743188
0.00137785
0.00110255
0.00132955
0.00037897
-2.01e-05
-0.000408243
-0.0012365
-0.00116495
-0.00185302
-0.00311565
-0.00373047
-0.00395868
-0.00430561
-0.0047424
-0.004849
-0.00461384
-0.00392204
-0.00259162
0.000286528
0.000724691
0.00133707
0.00112017
0.00129031
0.000354176
-9.58018e-05
-0.000470337
-0.00126116
-0.00123034
-0.00185835
-0.00310226
-0.00378744
-0.00404564
-0.00435163
-0.00477851
-0.00491048
-0.00466464
-0.00394883
-0.00256095
0.000317651
0.000707808
0.00129237
0.00113166
0.00125255
0.000329842
-0.000168289
-0.000532984
-0.00128712
-0.00130018
-0.00187655
-0.00308729
-0.00383176
-0.00413044
-0.00439771
-0.00481135
-0.00498064
-0.00472391
-0.00395004
-0.00251207
0.000350165
0.00069254
0.00124494
0.0011364
0.00121623
0.000307019
-0.000238364
-0.000598231
-0.00131745
-0.00137101
-0.00190086
-0.0030694
-0.00386164
-0.00421592
-0.00445919
-0.00484862
-0.0050171
-0.00474401
-0.00395399
-0.00247115
0.000383771
0.000679378
0.00119528
0.00113342
0.00117963
0.000286734
-0.000305373
-0.000665028
-0.00135032
-0.00144013
-0.00193241
-0.00305769
-0.0038825
-0.00429704
-0.00452821
-0.00487167
-0.00503971
-0.00477899
-0.003976
-0.00244198
0.000418354
0.000668678
0.0011435
0.00112406
0.00114136
0.00026776
-0.000367317
-0.000731249
-0.00138598
-0.00150981
-0.00197167
-0.00305345
-0.00389364
-0.0043656
-0.00459944
-0.00489887
-0.00506521
-0.0048139
-0.00399105
-0.00238944
0.000452897
0.000661207
0.00108713
0.00110772
0.0011015
0.000240287
-0.000425639
-0.000796281
-0.0014222
-0.00157919
-0.00201551
-0.00305504
-0.00389737
-0.00442153
-0.00467793
-0.00493224
-0.00509236
-0.00482988
-0.00396206
-0.00232813
0.000487813
0.000656649
0.00100398
0.00108128
0.00105843
0.000211115
-0.000477144
-0.000860757
-0.00145618
-0.00164458
-0.00205962
-0.00306283
-0.0039011
-0.0044654
-0.00475703
-0.00497051
-0.00509896
-0.00481479
-0.00394003
-0.00228764
0.00052382
0.000654618
0.000953485
0.00104664
0.00101476
0.000215064
-0.000552326
-0.000926044
-0.00148668
-0.00170512
-0.00210324
-0.00307664
-0.0039086
-0.0044956
-0.00482698
-0.00501451
-0.00510687
-0.00480851
-0.00392705
-0.0022456
0.000558225
0.000657494
0.000902101
0.00100356
0.000964954
0.000103046
-0.000620605
-0.000990376
-0.00151273
-0.00176177
-0.00214666
-0.00309314
-0.00392108
-0.00451533
-0.00488481
-0.00506357
-0.0051251
-0.00481211
-0.00390826
-0.00218184
0.000591759
0.000664398
0.000852079
0.000952011
0.000908739
7.11998e-05
-0.000681935
-0.00105328
-0.00153796
-0.0018169
-0.00219089
-0.00310936
-0.00393849
-0.00452992
-0.00493267
-0.00511249
-0.00515086
-0.0048117
-0.00386831
-0.00211311
0.000624609
0.000673765
0.000803691
0.000892272
0.000847885
4.57946e-05
-0.000737093
-0.00111857
-0.00156665
-0.0018721
-0.00223684
-0.00312288
-0.00395905
-0.0045444
-0.00497466
-0.00515496
-0.00517121
-0.00480508
-0.00383294
-0.00205248
0.000655623
0.000685397
0.000757174
0.000824667
0.000784498
2.25691e-05
-0.000787432
-0.00118825
-0.00160006
-0.0019261
-0.00228502
-0.00313315
-0.00398007
-0.0045602
-0.00496756
-0.00518488
-0.00518753
-0.00480411
-0.00380728
-0.0019933
0.000684821
0.000698388
0.000712742
0.000752561
0.000717983
-8.06158e-08
-0.000833229
-0.00126069
-0.00163765
-0.00197878
-0.00233694
-0.00314034
-0.00399716
-0.00458125
-0.00499274
-0.00521063
-0.0052029
-0.00480529
-0.00378161
-0.00193207
0.000711817
0.000712111
0.000671985
0.000676838
0.000646099
-2.38802e-05
-0.000872751
-0.00133347
-0.00167993
-0.00202884
-0.00239178
-0.00314744
-0.00400881
-0.00460758
-0.00501613
-0.00523297
-0.00521243
-0.00479979
-0.00375461
-0.00187429
0.000736406
0.000726029
0.000635395
0.000598753
0.000568666
-5.03103e-05
-0.000905912
-0.00140462
-0.00172725
-0.00207607
-0.00245002
-0.00315886
-0.00401319
-0.00461712
-0.00503745
-0.00525104
-0.00521711
-0.0047915
-0.00372909
-0.00181996
0.000758555
0.000739481
0.000603082
0.000519996
0.00048575
-8.09845e-05
-0.000933058
-0.00147236
-0.00178059
-0.00212205
-0.00250967
-0.00317553
-0.00401173
-0.00463733
-0.00506006
-0.00527151
-0.00522386
-0.00478202
-0.0037014
-0.00176654
0.000778224
0.000751869
0.000575038
0.000442101
0.000397718
-0.00011736
-0.000955078
-0.001535
-0.00183986
-0.00216793
-0.0025681
-0.00319915
-0.00400776
-0.00464914
-0.00508068
-0.00529399
-0.00523314
-0.00477144
-0.00367225
-0.00171498
0.000795407
0.00076275
0.000550983
0.000366318
0.000305357
-0.000160738
-0.000973418
-0.00159044
-0.00190376
-0.00221512
-0.00262398
-0.00323025
-0.00400326
-0.00465227
-0.00509558
-0.00531595
-0.00524633
-0.00476448
-0.00364501
-0.00166435
0.000810186
0.000771708
0.00053038
0.000293721
0.000209796
-0.000211618
-0.000989976
-0.00163789
-0.00197026
-0.00226534
-0.00267714
-0.00326501
-0.00400394
-0.00465091
-0.00510416
-0.00533511
-0.00526264
-0.00476221
-0.00361966
-0.00161355
0.00082266
0.000778439
0.000512533
0.000225083
0.000112557
-0.000270071
-0.00100705
-0.00167734
-0.00203667
-0.00231986
-0.00272836
-0.00330468
-0.00401171
-0.00464899
-0.00510712
-0.00534809
-0.00527782
-0.00476368
-0.00359812
-0.00156643
0.000832946
0.000782727
0.0004966
0.000161062
1.52041e-05
-0.000335862
-0.00102811
-0.00170936
-0.00210068
-0.00237937
-0.00277987
-0.00334564
-0.00402569
-0.00464862
-0.00510567
-0.00535391
-0.0052898
-0.00476872
-0.00358451
-0.00152726
0.000841194
0.000784421
0.00048179
0.000101948
-8.10137e-05
-0.000408376
-0.00105499
-0.00173524
-0.00216034
-0.00244357
-0.00283125
-0.00338623
-0.00404418
-0.00465241
-0.00510395
-0.00535533
-0.00529864
-0.00477689
-0.00357888
-0.00149564
0.000847517
0.000783464
0.000467383
4.77188e-05
-0.000174816
-0.000486599
-0.00108799
-0.00175704
-0.0022139
-0.00251067
-0.0028851
-0.00342653
-0.00406594
-0.00466162
-0.00510561
-0.0053555
-0.00530429
-0.00478454
-0.00357668
-0.00146978
0.000852036
0.000779871
0.000452654
-1.86789e-06
-0.000265064
-0.000568954
-0.00112836
-0.00177716
-0.00226004
-0.00257875
-0.0029428
-0.0034683
-0.00409041
-0.00467597
-0.0051123
-0.00535679
-0.00530672
-0.00478841
-0.0035747
-0.00144905
0.000854816
0.00077375
0.000437136
-4.72514e-05
-0.000351154
-0.000654009
-0.00117621
-0.00179813
-0.00229867
-0.00264553
-0.00300449
-0.00351233
-0.00411675
-0.00469412
-0.00512484
-0.00536152
-0.00530793
-0.00478893
-0.00357204
-0.00143312
0.000855899
0.000765284
0.000420369
-8.88809e-05
-0.000432563
-0.000740224
-0.0012307
-0.00182268
-0.00233149
-0.00270957
-0.00307011
-0.0035599
-0.00414484
-0.00471429
-0.00514325
-0.00537229
-0.00531163
-0.00478836
-0.00356806
-0.00142023
0.000855292
0.000754711
0.000402048
-0.00012738
-0.000509019
-0.00082607
-0.00129055
-0.00185315
-0.00236061
-0.00276891
-0.00313865
-0.00361263
-0.00417651
-0.00473577
-0.00516644
-0.00539071
-0.00532168
-0.00479066
-0.00356462
-0.00140941
0.000852985
0.000742243
0.000382069
-0.000163454
-0.000580318
-0.000910604
-0.00135469
-0.00189059
-0.00238872
-0.0028225
-0.00320843
-0.00367046
-0.00421377
-0.00475943
-0.0051924
-0.00541638
-0.00534095
-0.00480059
-0.00356613
-0.00140242
0.000848999
0.00072822
0.000360313
-0.000197899
-0.000646538
-0.000993152
-0.00142185
-0.00193489
-0.00241882
-0.00287067
-0.00327733
-0.00373283
-0.00425809
-0.00478678
-0.00521957
-0.00544626
-0.00536807
-0.00481944
-0.00357567
-0.00140356
0.000843224
0.000712805
0.000337132
-0.000231294
-0.000707818
-0.00107288
-0.00149045
-0.00198516
-0.00245447
-0.00291556
-0.00334444
-0.0037998
-0.00431157
-0.00482196
-0.00524985
-0.00547904
-0.00539958
-0.00484457
-0.00359175
-0.00141209
0.000835738
0.000696095
0.000312719
-0.000264123
-0.000764743
-0.00114925
-0.00155929
-0.00203921
-0.00249678
-0.00295996
-0.00340907
-0.00386918
-0.00437259
-0.00486813
-0.00528822
-0.00551912
-0.00543943
-0.00487958
-0.00361765
-0.00142843
0.000826464
0.000678671
0.000287008
-0.000296423
-0.000817871
-0.00122212
-0.00162864
-0.00209673
-0.00254603
-0.00300698
-0.00347155
-0.00393901
-0.00443701
-0.00492207
-0.00533448
-0.00556692
-0.00548937
-0.0049276
-0.00365816
-0.00145884
0.000815316
0.000659235
0.000261269
-0.00032843
-0.000867543
-0.00129046
-0.00169753
-0.00215715
-0.0026019
-0.00305984
-0.00353475
-0.00401091
-0.00450689
-0.00498527
-0.00538936
-0.00562105
-0.00554573
-0.00498503
-0.00371148
-0.00150419
0.00080219
0.000641724
0.000235585
-0.000359529
-0.000914659
-0.00135509
-0.00176594
-0.00222078
-0.00266328
-0.00311943
-0.00360051
-0.00408501
-0.00458173
-0.00505832
-0.00545683
-0.00568679
-0.00561248
-0.00505284
-0.0037768
-0.0015623
0.000787178
0.000616549
0.000209958
-0.000388991
-0.000957547
-0.00141438
-0.00183206
-0.00228646
-0.00272839
-0.00318556
-0.00367185
-0.00416304
-0.00466101
-0.00513878
-0.00553657
-0.00576719
-0.00569537
-0.00513775
-0.00386076
-0.00164094
0.000769783
0.000603643
0.000184908
-0.000417732
-0.000997011
-0.00146948
-0.00189596
-0.00235438
-0.00279655
-0.00325464
-0.00374611
-0.0042437
-0.00474333
-0.00522368
-0.00562412
-0.005859
-0.0057921
-0.00523829
-0.00396265
-0.00174095
0.000750695
0.000569649
0.000152758
-0.000449891
-0.00104061
-0.00152693
-0.00196462
-0.00243189
-0.00287735
-0.00333244
-0.00382493
-0.00432967
-0.00483353
-0.00531811
-0.00572412
-0.00596582
-0.00590577
-0.00535686
-0.00408506
-0.00186257
0.00073727
0.000571965
0.000151288
-0.000452037
-0.00105546
-0.00157056
-0.00202949
-0.00251297
-0.00296609
-0.0034182
-0.00390679
-0.00441863
-0.00493068
-0.00541962
-0.00583306
-0.00608502
-0.0060365
-0.00549853
-0.00423564
-0.00202093
0.000683462
0.000507218
9.20058e-05
-0.000485663
-0.00107088
-0.00159394
-0.00207735
-0.00258462
-0.00304988
-0.00349802
-0.00397952
-0.00449267
-0.005018
-0.00551779
-0.00594422
-0.00621108
-0.00617886
-0.00565728
-0.00440569
-0.00219618
0.00070562
0.000550157
0.000134204
-0.000491934
-0.00114685
-0.00171328
-0.00220172
-0.00270698
-0.00317049
-0.00360185
-0.00407212
-0.00458736
-0.00511968
-0.00563014
-0.00607361
-0.00635787
-0.0063432
-0.00583785
-0.00459734
-0.00238942
0.000576464
0.000432247
0.000122236
-0.000379807
-0.000978309
-0.00165161
-0.00227833
-0.00281173
-0.0032728
-0.00369926
-0.00416097
-0.0046854
-0.00523426
-0.0057739
-0.0062458
-0.00656345
-0.00658574
-0.00611405
-0.00490665
-0.00272997
0.000694163
0.000529534
8.61669e-05
-0.000567989
-0.00124189
-0.00185304
-0.00236682
-0.00284118
-0.00328197
-0.00369133
-0.00414032
-0.00465997
-0.00521209
-0.00575985
-0.00624907
-0.00660929
-0.00670722
-0.00633928
-0.00525393
-0.00321295
0.000576408
0.000481553
3.20898e-05
-0.000506979
-0.00112417
-0.00183685
-0.00246285
-0.00296493
-0.00345732
-0.00389467
-0.00437214
-0.00489555
-0.00543664
-0.00591076
-0.00627434
-0.00646336
-0.00640439
-0.00593539
-0.00481929
-0.00279339
0.000744433
0.000473294
-2.75408e-06
-0.000654821
-0.0013097
-0.00189351
-0.00236253
-0.00276602
-0.00320822
-0.00367419
-0.0041869
-0.004766
-0.00543011
-0.00616248
-0.00691272
-0.00757033
-0.0079647
-0.00786916
-0.00701357
-0.00516143
0.000907984
0.000346444
-0.000192258
-0.000846661
-0.00144713
-0.00213431
-0.0027235
-0.00311475
-0.00352261
-0.00407266
-0.00461243
-0.005057
-0.00525309
-0.00511846
-0.0045996
-0.00377902
-0.00284881
-0.00211013
-0.00192891
-0.0026352
0.000897447
0.000390062
-0.000164529
-0.000738222
-0.00124333
-0.00173001
-0.00214239
-0.00258239
-0.00308188
-0.00369052
-0.00439514
-0.00523442
-0.00619047
-0.0072075
-0.00819075
-0.00906388
-0.0096834
-0.00983524
-0.00924026
-0.00764487
0.00103545
0.000333003
-0.00026313
-0.000879463
-0.00136531
-0.0019488
-0.00257551
-0.00326488
-0.00386112
-0.00427072
-0.00469122
-0.00521139
-0.00565233
-0.00587379
-0.00577733
-0.0053562
-0.0047145
-0.00414154
-0.00402934
-0.00474579
0.00103026
0.0003129
-0.000263485
-0.000737593
-0.00104865
-0.0014072
-0.00173856
-0.00215156
-0.00269898
-0.00352558
-0.00461696
-0.00600413
-0.00762896
-0.00934268
-0.0109172
-0.0121637
-0.0129321
-0.0130499
-0.0122993
-0.010485
0.00104655
-0.0073241
-0.0100552
-0.00841925
-0.00640831
-0.00466997
-0.00297429
-0.00152155
-0.000405715
0.000597074
0.00171556
0.0028912
0.00384148
0.00457741
0.00544999
0.00659328
0.00778348
0.00887931
0.00992685
0.0110844
0.0123342
0.0135682
0.0148229
0.0161595
0.0175421
0.0189508
0.0204225
0.02195
0.0235581
0.025246
0.0270149
0.0287642
0.0305571
0.0324473
0.0344049
0.0364163
0.0384721
0.0406493
0.0428449
0.0451688
0.0475076
0.0499796
0.0525274
0.0551555
0.0579475
0.060664
0.0636198
0.0665297
0.0691381
0.0722117
0.000923028
-0.00725345
-0.010008
-0.00840178
-0.00639967
-0.00466454
-0.00297027
-0.00151812
-0.00040266
0.000599726
0.00171782
0.00289317
0.00384324
0.00457888
0.00545117
0.00659428
0.00778436
0.00888009
0.00992754
0.011085
0.0123347
0.0135687
0.0148234
0.0161599
0.0175425
0.0189511
0.0204228
0.0219503
0.0235583
0.0252462
0.0270151
0.0287644
0.0305573
0.0324475
0.0344051
0.0364165
0.0384722
0.0406494
0.042845
0.045169
0.0475077
0.0499797
0.0525275
0.0551556
0.0579476
0.0606641
0.0636199
0.0665298
0.0691381
0.0722117
0.000729344
-0.00716159
-0.00993474
-0.00837728
-0.00638908
-0.00465837
-0.00296611
-0.0015149
-0.000399939
0.00060208
0.00171988
0.00289502
0.00384489
0.0045802
0.0054522
0.00659519
0.00778518
0.00888081
0.00992815
0.0110855
0.0123352
0.0135692
0.0148238
0.0161602
0.0175428
0.0189514
0.0204231
0.0219506
0.0235586
0.0252464
0.0270153
0.0287646
0.0305575
0.0324477
0.0344052
0.0364166
0.0384724
0.0406496
0.0428451
0.0451691
0.0475079
0.0499798
0.0525276
0.0551556
0.0579477
0.0606641
0.06362
0.0665298
0.0691382
0.0722117
0.000538369
-0.0070451
-0.00982558
-0.00833754
-0.00637282
-0.00464942
-0.0029607
-0.00151136
-0.000397234
0.000604436
0.00172201
0.00289698
0.00384664
0.00458159
0.00545328
0.00659616
0.00778607
0.00888156
0.00992877
0.011086
0.0123357
0.0135696
0.0148242
0.0161606
0.0175431
0.0189517
0.0204234
0.0219509
0.0235588
0.0252466
0.0270156
0.0287648
0.0305576
0.0324478
0.0344054
0.0364168
0.0384725
0.0406497
0.0428452
0.0451692
0.047508
0.0499799
0.0525277
0.0551557
0.0579478
0.0606642
0.06362
0.0665299
0.0691383
0.0722117
0.000363316
-0.0069065
-0.00968559
-0.0082814
-0.00634909
-0.00463622
-0.00295301
-0.00150697
-0.000394305
0.000606968
0.00172437
0.00289919
0.00384866
0.00458323
0.00545458
0.00659734
0.00778713
0.00888243
0.00992947
0.0110866
0.0123363
0.0135701
0.0148246
0.016161
0.0175435
0.0189521
0.0204237
0.0219511
0.023559
0.0252469
0.0270158
0.0287651
0.0305578
0.032448
0.0344055
0.0364169
0.0384726
0.0406498
0.0428454
0.0451693
0.0475081
0.04998
0.0525278
0.0551558
0.0579479
0.0606643
0.0636201
0.06653
0.0691384
0.0722118
0.000196815
-0.00675604
-0.00952888
-0.00821413
-0.0063192
-0.00461887
-0.00294268
-0.00150136
-0.000390945
0.00060975
0.00172697
0.00290162
0.00385098
0.00458523
0.00545623
0.00659884
0.00778842
0.00888346
0.00993029
0.0110873
0.0123369
0.0135707
0.0148251
0.0161615
0.0175439
0.0189524
0.020424
0.0219514
0.0235593
0.0252471
0.027016
0.0287653
0.030558
0.0324482
0.0344057
0.0364171
0.0384728
0.04065
0.0428455
0.0451694
0.0475082
0.0499802
0.0525279
0.0551559
0.057948
0.0606644
0.0636202
0.0665301
0.0691385
0.0722118
3.10079e-05
-0.00660207
-0.00936435
-0.00814063
-0.00628555
-0.00459855
-0.00293005
-0.00149437
-0.000386909
0.000612912
0.0017298
0.0029042
0.00385354
0.00458764
0.00545835
0.00660076
0.00779004
0.00888474
0.0099313
0.0110881
0.0123376
0.0135713
0.0148257
0.016162
0.0175444
0.0189528
0.0204243
0.0219517
0.0235596
0.0252474
0.0270163
0.0287655
0.0305582
0.0324484
0.0344059
0.0364173
0.0384729
0.0406501
0.0428456
0.0451696
0.0475083
0.0499803
0.052528
0.055156
0.0579481
0.0606645
0.0636203
0.0665302
0.0691387
0.0722119
-0.000137374
-0.00644757
-0.00919437
-0.008063
-0.00624976
-0.00457645
-0.00291578
-0.00148613
-0.000382056
0.000616589
0.00173288
0.00290684
0.00385623
0.00459041
0.00546098
0.00660318
0.00779203
0.0088863
0.00993256
0.0110892
0.0123385
0.0135721
0.0148264
0.0161626
0.017545
0.0189533
0.0204248
0.0219521
0.0235599
0.0252477
0.0270166
0.0287658
0.0305584
0.0324486
0.0344061
0.0364175
0.0384731
0.0406503
0.0428458
0.0451697
0.0475084
0.0499804
0.0525281
0.0551561
0.0579482
0.0606646
0.0636204
0.0665304
0.069139
0.072212
-0.000308258
-0.00629228
-0.00901832
-0.00798167
-0.00621263
-0.00455331
-0.00290044
-0.00147693
-0.000376431
0.000620819
0.00173622
0.00290948
0.00385893
0.00459341
0.00546408
0.00660613
0.00779443
0.00888817
0.00993411
0.0110904
0.0123395
0.013573
0.0148272
0.0161634
0.0175456
0.0189539
0.0204252
0.0219525
0.0235602
0.025248
0.0270169
0.028766
0.0305587
0.0324488
0.0344063
0.0364177
0.0384733
0.0406504
0.0428459
0.0451698
0.0475086
0.0499805
0.0525282
0.0551562
0.0579483
0.0606647
0.0636205
0.0665306
0.0691394
0.0722121
-0.000479888
-0.00613544
-0.00883542
-0.00789655
-0.00617447
-0.00452948
-0.00288436
-0.00146705
-0.000370206
0.000625524
0.0017398
0.00291206
0.00386152
0.00459648
0.00546752
0.00660957
0.00779725
0.00889036
0.00993596
0.0110919
0.0123407
0.013574
0.0148282
0.0161643
0.0175465
0.0189547
0.0204258
0.0219529
0.0235606
0.0252483
0.0270172
0.0287663
0.0305589
0.032449
0.0344066
0.0364179
0.0384735
0.0406506
0.0428461
0.04517
0.0475087
0.0499806
0.0525284
0.0551564
0.0579484
0.0606649
0.0636207
0.0665308
0.0691398
0.0722124
-0.000650293
-0.00597705
-0.00864561
-0.00780755
-0.00613541
-0.00450509
-0.00286768
-0.00145667
-0.000363561
0.000630571
0.00174354
0.00291457
0.00386392
0.00459945
0.00547112
0.00661342
0.00780045
0.00889282
0.00993807