/*--------------------------------*- C++ -*----------------------------------*\
| =========                 |                                                 |
| \\      /  F ield         | OpenFOAM: The Open Source CFD Toolbox           |
|  \\    /   O peration     | Version:  v2012                                 |
|   \\  /    A nd           | Website:  www.openfoam.com                      |
|    \\/     M anipulation  |                                                 |
\*---------------------------------------------------------------------------*/
FoamFile
{
    version     2.0;
    format      ascii;
    class       surfaceScalarField;
    location    "7.9";
    object      phi;
}
// * * * * * * * * * * * * * * * * * * * * * * * * * * * * * * * * * * * * * //

dimensions      [0 3 -1 0 0 0 0];
oriented        oriented;


internalField   nonuniform List<scalar> 
13830
(
9.34032e-07
-4.67115e-07
9.42586e-07
-3.38433e-07
9.44382e-07
-7.76515e-08
9.51382e-07
9.37938e-07
9.35044e-07
1.31474e-06
8.75133e-07
-8.02135e-07
9.46776e-07
4.88501e-07
8.40655e-07
-1.0869e-06
9.23116e-07
-8.06665e-07
8.66782e-07
-8.37829e-07
9.0091e-07
-7.14833e-07
9.11735e-07
-3.03069e-07
9.1958e-07
-4.56484e-07
9.37867e-07
-1.10576e-07
9.40696e-07
-2.52628e-07
9.61437e-07
5.08793e-08
9.5959e-07
-3.25966e-08
9.75868e-07
1.5154e-07
9.73422e-07
9.91689e-08
1.79368e-07
9.72739e-07
9.70069e-07
-4.64652e-07
9.78259e-07
-3.46622e-07
9.80506e-07
-7.98989e-08
9.87218e-07
9.31227e-07
9.71815e-07
1.33014e-06
9.18154e-07
-7.48474e-07
9.7631e-07
4.30345e-07
8.84416e-07
-9.95004e-07
9.57719e-07
-8.79968e-07
9.07306e-07
-7.87415e-07
9.38636e-07
-7.46163e-07
9.53382e-07
-3.17816e-07
9.59771e-07
-4.62873e-07
9.79422e-07
-1.30227e-07
9.79665e-07
-2.5287e-07
1.00382e-06
2.67195e-08
9.95227e-07
-2.3999e-08
1.0188e-06
1.27968e-07
1.00308e-06
1.14885e-07
1.58291e-07
1.02416e-06
1.00725e-06
-4.62452e-07
1.01559e-06
-3.54955e-07
1.0179e-06
-8.2214e-08
1.0235e-06
9.25626e-07
1.01094e-06
1.3427e-06
9.66937e-07
-7.04471e-07
1.01041e-06
3.86874e-07
9.39511e-07
-9.24107e-07
9.94868e-07
-9.35325e-07
9.60694e-07
-7.53242e-07
9.77741e-07
-7.6321e-07
1.00325e-06
-3.43328e-07
9.98695e-07
-4.58315e-07
1.02637e-06
-1.57903e-07
1.01533e-06
-2.41832e-07
1.04491e-06
-2.85409e-09
1.02998e-06
-9.06733e-09
1.05227e-06
1.05676e-07
1.0405e-06
1.26654e-07
1.47693e-07
1.0511e-06
1.04557e-06
-4.6025e-07
1.05403e-06
-3.63411e-07
1.05634e-06
-8.45211e-08
1.06038e-06
9.21584e-07
1.0518e-06
1.35128e-06
1.01888e-06
-6.71552e-07
1.04715e-06
3.58609e-07
9.98505e-07
-8.75464e-07
1.03057e-06
-9.67394e-07
1.01569e-06
-7.38357e-07
1.01669e-06
-7.64213e-07
1.04973e-06
-3.76364e-07
1.03761e-06
-4.46194e-07
1.06578e-06
-1.86076e-07
1.05225e-06
-2.28301e-07
1.07608e-06
-2.66831e-08
1.06669e-06
3.20858e-10
1.08019e-06
9.21777e-08
1.07694e-06
1.299e-07
1.43536e-07
1.0811e-06
1.08507e-06
-4.57768e-07
1.09323e-06
-3.71573e-07
1.09566e-06
-8.69503e-08
1.09803e-06
9.19217e-07
1.09416e-06
1.35515e-06
1.07183e-06
-6.49221e-07
1.08741e-06
3.43022e-07
1.05748e-06
-8.45529e-07
1.06562e-06
-9.75539e-07
1.06534e-06
-7.38071e-07
1.05587e-06
-7.54745e-07
1.08958e-06
-4.10078e-07
1.07778e-06
-4.34392e-07
1.10106e-06
-2.09353e-07
1.09254e-06
-2.19777e-07
1.10837e-06
-4.25122e-08
1.10584e-06
2.8467e-09
1.11314e-06
8.48741e-08
1.11384e-06
1.29208e-07
1.41831e-07
1.11554e-06
1.12593e-06
-4.54854e-07
1.13305e-06
-3.7869e-07
1.13574e-06
-8.96491e-08
1.13682e-06
9.18142e-07
1.13785e-06
1.35412e-06
1.1245e-06
-6.35873e-07
1.13156e-06
3.35967e-07
1.11392e-06
-8.27892e-07
1.10247e-06
-9.64094e-07
1.10905e-06
-7.44642e-07
1.09687e-06
-7.4257e-07
1.12674e-06
-4.3995e-07
1.11987e-06
-4.2752e-07
1.13834e-06
-2.27827e-07
1.13588e-06
-2.17312e-07
1.14741e-06
-5.40459e-08
1.1485e-06
1.76402e-09
1.15342e-06
7.99521e-08
1.1548e-06
1.27824e-07
1.41058e-07
1.15557e-06
1.16833e-06
-4.5148e-07
1.17361e-06
-3.8397e-07
1.17653e-06
-9.25752e-08
1.17711e-06
9.17561e-07
1.18276e-06
1.34847e-06
1.17643e-06
-6.29537e-07
1.17915e-06
3.33249e-07
1.1677e-06
-8.16443e-07
1.14301e-06
-9.39408e-07
1.15016e-06
-7.51792e-07
1.13978e-06
-7.32191e-07
1.16509e-06
-4.65254e-07
1.16278e-06
-4.25215e-07
1.17903e-06
-2.44075e-07
1.18043e-06
-2.1871e-07
1.19154e-06
-6.51551e-08
1.19432e-06
-1.01843e-09
1.19924e-06
7.50279e-08
1.20075e-06
1.26317e-07
1.4047e-07
1.20134e-06
1.21236e-06
-4.47662e-07
1.21526e-06
-3.86862e-07
1.21819e-06
-9.5505e-08
1.21921e-06
9.16534e-07
1.2288e-06
1.33889e-06
1.2277e-06
-6.28442e-07
1.22914e-06
3.31811e-07
1.2198e-06
-8.07102e-07
1.18749e-06
-9.07093e-07
1.19197e-06
-7.56277e-07
1.18357e-06
-7.23792e-07
1.20569e-06
-4.87366e-07
1.20555e-06
-4.25084e-07
1.22159e-06
-2.6011e-07
1.22493e-06
-2.22054e-07
1.2373e-06
-7.75217e-08
1.2416e-06
-5.32011e-09
1.24764e-06
6.89936e-08
1.24995e-06
1.24002e-07
1.39371e-07
1.25105e-06
1.25809e-06
-4.43394e-07
1.25842e-06
-3.87194e-07
1.26114e-06
-9.8223e-08
1.26343e-06
9.14238e-07
1.27587e-06
1.32645e-06
1.27864e-06
-6.31211e-07
1.28049e-06
3.29956e-07
1.27132e-06
-7.97933e-07
1.23532e-06
-8.71094e-07
1.23632e-06
-7.57274e-07
1.22791e-06
-7.1538e-07
1.24819e-06
-5.07646e-07
1.24832e-06
-4.25218e-07
1.26477e-06
-2.76559e-07
1.26924e-06
-2.26518e-07
1.28284e-06
-9.11282e-08
1.28889e-06
-1.13638e-08
1.29628e-06
6.15968e-08
1.30007e-06
1.20218e-07
1.37194e-07
1.30224e-06
1.30554e-06
-4.38655e-07
1.30349e-06
-3.85145e-07
1.30596e-06
-1.00691e-07
1.31009e-06
9.10108e-07
1.32397e-06
1.31257e-06
1.32952e-06
-6.36768e-07
1.33244e-06
3.27046e-07
1.32298e-06
-7.88476e-07
1.28599e-06
-8.34102e-07
1.28393e-06
-7.55218e-07
1.27355e-06
-7.05003e-07
1.29235e-06
-5.26444e-07
1.29176e-06
-4.24632e-07
1.30837e-06
-2.93168e-07
1.31375e-06
-2.31895e-07
1.328e-06
-1.0538e-07
1.33581e-06
-1.91688e-08
1.34435e-06
5.3051e-08
1.34978e-06
1.14793e-07
1.33711e-07
1.35326e-06
1.35482e-06
-4.33457e-07
1.35081e-06
-3.8113e-07
1.35316e-06
-1.03046e-07
1.35943e-06
9.03844e-07
1.37322e-06
1.29878e-06
1.38065e-06
-6.44199e-07
1.38459e-06
3.23101e-07
1.37517e-06
-7.79053e-07
1.3392e-06
-7.98129e-07
1.33497e-06
-7.50992e-07
1.32168e-06
-6.91716e-07
1.33847e-06
-5.43231e-07
1.33663e-06
-4.22793e-07
1.35273e-06
-3.09262e-07
1.3589e-06
-2.38073e-07
1.37325e-06
-1.1973e-07
1.3827e-06
-2.86189e-08
1.3921e-06
4.3651e-08
1.39903e-06
1.07869e-07
1.28976e-07
1.40376e-06
1.40608e-06
-4.27886e-07
1.40061e-06
-3.7566e-07
1.403e-06
-1.05432e-07
1.41146e-06
8.9538e-07
1.42387e-06
1.28637e-06
1.43235e-06
-6.52679e-07
1.43694e-06
3.18516e-07
1.42818e-06
-7.70295e-07
1.39476e-06
-7.64712e-07
1.38934e-06
-7.45575e-07
1.37321e-06
-6.75586e-07
1.38718e-06
-5.57199e-07
1.38369e-06
-4.19304e-07
1.39829e-06
-3.23863e-07
1.40494e-06
-2.44723e-07
1.41896e-06
-1.33748e-07
1.42993e-06
-3.95882e-08
1.44005e-06
3.35279e-08
1.44834e-06
9.95826e-08
1.23084e-07
1.45423e-06
1.45946e-06
-4.22101e-07
1.45304e-06
-3.69234e-07
1.45543e-06
-1.0783e-07
1.46597e-06
8.84844e-07
1.47632e-06
1.27602e-06
1.48507e-06
-6.61437e-07
1.48977e-06
3.13815e-07
1.48235e-06
-7.62868e-07
1.45243e-06
-7.34791e-07
1.44673e-06
-7.3988e-07
1.4285e-06
-6.57359e-07
1.43909e-06
-5.67783e-07
1.43375e-06
-4.13964e-07
1.44567e-06
-3.35783e-07
1.45213e-06
-2.51187e-07
1.46531e-06
-1.4693e-07
1.47757e-06
-5.1845e-08
1.48845e-06
2.26505e-08
1.4981e-06
8.99327e-08
1.15991e-07
1.50519e-06
1.51506e-06
-4.1629e-07
1.50809e-06
-3.62264e-07
1.51027e-06
-1.10008e-07
1.5226e-06
8.72512e-07
1.531e-06
1.26762e-06
1.53928e-06
-6.69709e-07
1.54367e-06
3.09421e-07
1.53809e-06
-7.57287e-07
1.51186e-06
-7.08559e-07
1.50661e-06
-7.3463e-07
1.48733e-06
-6.38083e-07
1.49447e-06
-5.74919e-07
1.48748e-06
-4.06975e-07
1.49557e-06
-3.43878e-07
1.50098e-06
-2.56596e-07
1.51259e-06
-1.5854e-07
1.52559e-06
-6.4847e-08
1.53722e-06
1.10277e-08
1.54824e-06
7.89128e-08
1.07531e-07
1.5567e-06
1.57293e-06
-4.10612e-07
1.56571e-06
-3.55038e-07
1.56733e-06
-1.11633e-07
1.58113e-06
8.58718e-07
1.58834e-06
1.26041e-06
1.59532e-06
-6.76685e-07
1.5993e-06
3.05444e-07
1.59576e-06
-7.53752e-07
1.57271e-06
-6.85513e-07
1.56837e-06
-7.30281e-07
1.54905e-06
-6.18763e-07
1.55313e-06
-5.79006e-07
1.54519e-06
-3.99034e-07
1.54873e-06
-3.47417e-07
1.55228e-06
-2.60146e-07
1.56142e-06
-1.6768e-07
1.5742e-06
-7.76276e-08
1.58628e-06
-1.04704e-09
1.59842e-06
6.67714e-08
9.76294e-08
1.60832e-06
1.6331e-06
-4.05165e-07
1.62577e-06
-3.47711e-07
1.62659e-06
-1.1245e-07
1.64157e-06
8.43736e-07
1.6486e-06
1.25338e-06
1.65343e-06
-6.81518e-07
1.65727e-06
3.01602e-07
1.65557e-06
-7.52049e-07
1.6348e-06
-6.64748e-07
1.63151e-06
-7.26991e-07
1.61288e-06
-6.00127e-07
1.61451e-06
-5.8064e-07
1.60664e-06
-3.91167e-07
1.60557e-06
-3.46343e-07
1.60684e-06
-2.61417e-07
1.61272e-06
-1.7356e-07
1.62402e-06
-8.89284e-08
1.63587e-06
-1.28922e-08
1.64844e-06
5.42005e-08
8.6572e-08
1.6595e-06
1.69556e-06
-3.99977e-07
1.68818e-06
-3.40331e-07
1.68814e-06
-1.12411e-07
1.7042e-06
8.27674e-07
1.71183e-06
1.24575e-06
1.71375e-06
-6.83436e-07
1.71803e-06
2.9732e-07
1.71754e-06
-7.51557e-07
1.69816e-06
-6.45372e-07
1.69582e-06
-7.24649e-07
1.67826e-06
-5.82571e-07
1.67792e-06
-5.80295e-07
1.67113e-06
-3.84379e-07
1.66608e-06
-3.41296e-07
1.66519e-06
-2.60522e-07
1.66745e-06
-1.75823e-07
1.67609e-06
-9.75709e-08
1.68675e-06
-2.35505e-08
1.69868e-06
4.22695e-08
7.51303e-08
1.71012e-06
1.76036e-06
-3.95023e-07
1.75291e-06
-3.32881e-07
1.75217e-06
-1.11664e-07
1.76941e-06
8.10429e-07
1.77794e-06
1.23722e-06
1.77643e-06
-6.81925e-07
1.78178e-06
2.91972e-07
1.78163e-06
-7.51408e-07
1.76308e-06
-6.26817e-07
1.76134e-06
-7.22915e-07
1.74506e-06
-5.66287e-07
1.74289e-06
-5.78125e-07
1.73781e-06
-3.79302e-07
1.72989e-06
-3.33377e-07
1.72739e-06
-2.58022e-07
1.72627e-06
-1.74706e-07
1.73156e-06
-1.02853e-07
1.7401e-06
-3.20999e-08
1.75026e-06
3.21097e-08
6.44047e-08
1.76099e-06
1.82756e-06
-3.90249e-07
1.82e-06
-3.2532e-07
1.81878e-06
-1.10444e-07
1.83747e-06
7.91737e-07
1.84678e-06
1.22792e-06
1.84171e-06
-6.76849e-07
1.84857e-06
2.85111e-07
1.84788e-06
-7.50723e-07
1.82999e-06
-6.08924e-07
1.82836e-06
-7.21285e-07
1.81354e-06
-5.51462e-07
1.80937e-06
-5.73955e-07
1.80617e-06
-3.7611e-07
1.79654e-06
-3.23738e-07
1.79316e-06
-2.54643e-07
1.78943e-06
-1.70981e-07
1.79132e-06
-1.0474e-07
1.79721e-06
-3.79896e-08
1.8048e-06
2.45167e-08
5.54452e-08
1.81376e-06
1.89725e-06
-3.85601e-07
1.88954e-06
-3.17614e-07
1.88803e-06
-1.08927e-07
1.90848e-06
7.71283e-07
1.91823e-06
1.21816e-06
1.90983e-06
-6.68447e-07
1.91837e-06
2.76573e-07
1.91645e-06
-7.48802e-07
1.89936e-06
-5.91838e-07
1.89725e-06
-7.19178e-07
1.88419e-06
-5.38396e-07
1.8777e-06
-5.67468e-07
1.87618e-06
-3.74587e-07
1.86574e-06
-3.133e-07
1.86206e-06
-2.50967e-07
1.85677e-06
-1.65691e-07
1.85581e-06
-1.03776e-07
1.85903e-06
-4.12079e-08
1.86385e-06
1.96955e-08
4.88668e-08
1.87043e-06
1.96954e-06
-3.81033e-07
1.96167e-06
-3.09749e-07
1.95989e-06
-1.07142e-07
1.98235e-06
7.48823e-07
1.99227e-06
1.20824e-06
1.98102e-06
-6.57196e-07
1.99115e-06
2.66444e-07
1.98753e-06
-7.45187e-07
1.97154e-06
-5.75847e-07
1.96837e-06
-7.16009e-07
1.95745e-06
-5.27476e-07
1.94839e-06
-5.58412e-07
1.94814e-06
-3.74332e-07
1.93748e-06
-3.02644e-07
1.9338e-06
-2.47286e-07
1.92793e-06
-1.59824e-07
1.92494e-06
-1.00782e-07
1.92593e-06
-4.21972e-08
1.92834e-06
1.72814e-08
4.46879e-08
1.93252e-06
2.04453e-06
-3.76519e-07
2.03653e-06
-3.01748e-07
2.03435e-06
-1.04956e-07
2.0589e-06
7.24271e-07
2.06894e-06
1.1982e-06
2.05539e-06
-6.4364e-07
2.06689e-06
2.54939e-07
2.06133e-06
-7.39622e-07
2.04675e-06
-5.61265e-07
2.04199e-06
-7.11256e-07
2.03355e-06
-5.19034e-07
2.02188e-06
-5.4674e-07
2.02249e-06
-3.74941e-07
2.01194e-06
-2.92095e-07
2.00823e-06
-2.43579e-07
2.00253e-06
-1.54119e-07
1.99828e-06
-9.65353e-08
1.99769e-06
-4.16087e-08
1.99838e-06
1.65935e-08
4.24587e-08
2.00061e-06
2.12236e-06
-3.7204e-07
2.11428e-06
-2.93673e-07
2.11145e-06
-1.02121e-07
2.13799e-06
6.97727e-07
2.14837e-06
1.18782e-06
2.133e-06
-6.2827e-07
2.14564e-06
2.42294e-07
2.13797e-06
-7.31949e-07
2.12509e-06
-5.48382e-07
2.11833e-06
-7.04499e-07
2.11254e-06
-5.13247e-07
2.09846e-06
-5.3266e-07
2.09958e-06
-3.76062e-07
2.08932e-06
-2.81835e-07
2.08539e-06
-2.39646e-07
2.08026e-06
-1.48992e-07
2.07533e-06
-9.16048e-08
2.07376e-06
-4.0037e-08
2.07343e-06
1.69235e-08
4.15401e-08
2.07435e-06
2.20312e-06
-3.67578e-07
2.19508e-06
-2.85633e-07
2.1913e-06
-9.83381e-08
2.21956e-06
6.69469e-07
2.23066e-06
1.17673e-06
2.21386e-06
-6.11474e-07
2.22745e-06
2.28709e-07
2.21754e-06
-7.22046e-07
2.20661e-06
-5.37451e-07
2.19756e-06
-6.95446e-07
2.19438e-06
-5.10071e-07
2.17831e-06
-5.16583e-07
2.17963e-06
-3.77388e-07
2.1698e-06
-2.72005e-07
2.16536e-06
-2.35209e-07
2.16098e-06
-1.44611e-07
2.15571e-06
-8.6334e-08
2.15353e-06
-3.78563e-08
2.15275e-06
1.77059e-08
4.13454e-08
2.15294e-06
2.28692e-06
-3.63104e-07
2.27908e-06
-2.77793e-07
2.27407e-06
-9.33322e-08
2.30363e-06
6.39918e-07
2.31591e-06
1.16444e-06
2.298e-06
-5.93566e-07
2.31238e-06
2.14336e-07
2.30014e-06
-7.09803e-07
2.29135e-06
-5.28666e-07
2.27987e-06
-6.8397e-07
2.27902e-06
-5.09219e-07
2.2615e-06
-4.99061e-07
2.26273e-06
-3.78617e-07
2.25347e-06
-2.62743e-07
2.24829e-06
-2.30032e-07
2.24461e-06
-1.40933e-07
2.23924e-06
-8.09639e-08
2.23655e-06
-3.51662e-08
2.23573e-06
1.85276e-08
4.14613e-08
2.23561e-06
2.37385e-06
-3.58572e-07
2.36642e-06
-2.70359e-07
2.35999e-06
-8.69011e-08
2.39031e-06
6.09597e-07
2.40423e-06
1.15052e-06
2.38547e-06
-5.7481e-07
2.40054e-06
1.99269e-07
2.38587e-06
-6.95129e-07
2.37935e-06
-5.22146e-07
2.36546e-06
-6.70086e-07
2.36647e-06
-5.10227e-07
2.3481e-06
-4.80692e-07
2.34891e-06
-3.79421e-07
2.34038e-06
-2.54215e-07
2.33431e-06
-2.23959e-07
2.33114e-06
-1.3777e-07
2.32572e-06
-7.55393e-08
2.32244e-06
-3.18918e-08
2.32203e-06
1.89421e-08
4.16532e-08
2.32184e-06
2.46402e-06
-3.53911e-07
2.45721e-06
-2.63553e-07
2.44927e-06
-7.89586e-08
2.47978e-06
5.79083e-07
2.49569e-06
1.13461e-06
2.47633e-06
-5.55443e-07
2.49205e-06
1.83545e-07
2.4749e-06
-6.77977e-07
2.47063e-06
-5.17876e-07
2.45448e-06
-6.53937e-07
2.45681e-06
-5.1256e-07
2.43816e-06
-4.62038e-07
2.43822e-06
-3.79479e-07
2.43057e-06
-2.46566e-07
2.42354e-06
-2.16929e-07
2.42071e-06
-1.34948e-07
2.41463e-06
-6.9456e-08
2.41096e-06
-2.82193e-08
2.41153e-06
1.83671e-08
4.18284e-08
2.41136e-06
2.55752e-06
-3.49036e-07
2.55155e-06
-2.57579e-07
2.54215e-06
-6.95555e-08
2.57228e-06
5.4895e-07
2.5904e-06
1.11649e-06
2.57062e-06
-5.35664e-07
2.58704e-06
1.67129e-07
2.56743e-06
-6.58364e-07
2.56526e-06
-5.15714e-07
2.54705e-06
-6.35724e-07
2.55016e-06
-5.15668e-07
2.53172e-06
-4.43593e-07
2.53073e-06
-3.78499e-07
2.52404e-06
-2.39873e-07
2.51607e-06
-2.08953e-07
2.51345e-06
-1.32335e-07
2.51195e-06
-6.79547e-08
2.50994e-06
-2.62048e-08
2.50428e-06
2.40286e-08
4.2002e-08
2.5041e-06
2.65449e-06
-3.43848e-07
2.6495e-06
-2.52588e-07
2.63882e-06
-5.8877e-08
2.66806e-06
5.19706e-07
2.68849e-06
1.09606e-06
2.66843e-06
-5.15612e-07
2.68564e-06
1.49927e-07
2.66366e-06
-6.3639e-07
2.66336e-06
-5.1541e-07
2.64333e-06
-6.15697e-07
2.64667e-06
-5.19008e-07
2.62885e-06
-4.25774e-07
2.62653e-06
-3.7618e-07
2.62088e-06
-2.34221e-07
2.61246e-06
-2.00531e-07
2.60788e-06
-1.27756e-07
2.6022e-06
-6.22719e-08
2.59844e-06
-2.24537e-08
2.60027e-06
2.22055e-08
4.2054e-08
2.60022e-06
2.75506e-06
-3.38254e-07
2.75112e-06
-2.48649e-07
2.73946e-06
-4.72154e-08
2.76743e-06
4.91739e-07
2.7901e-06
1.07339e-06
2.76984e-06
-4.95351e-07
2.78793e-06
1.31832e-07
2.76384e-06
-6.12295e-07
2.76499e-06
-5.16563e-07
2.74349e-06
-5.94202e-07
2.74646e-06
-5.21971e-07
2.72981e-06
-4.09125e-07
2.72561e-06
-3.71977e-07
2.72136e-06
-2.29978e-07
2.71241e-06
-1.91578e-07
2.70644e-06
-1.21782e-07
2.70029e-06
-5.61221e-08
2.69629e-06
-1.84576e-08
2.69989e-06
1.86098e-08
4.22334e-08
2.69971e-06
2.85938e-06
-3.32179e-07
2.85648e-06
-2.45742e-07
2.84419e-06
-3.49311e-08
2.87065e-06
4.65283e-07
2.89544e-06
1.0486e-06
2.87493e-06
-4.74837e-07
2.89403e-06
1.12725e-07
2.86812e-06
-5.86378e-07
2.8703e-06
-5.18744e-07
2.84773e-06
-5.71638e-07
2.84968e-06
-5.23921e-07
2.83479e-06
-3.94232e-07
2.82806e-06
-3.65249e-07
2.82552e-06
-2.27431e-07
2.81729e-06
-1.83351e-07
2.81755e-06
-1.2204e-07
2.81698e-06
-5.55535e-08
2.81447e-06
-1.59455e-08
2.80345e-06
2.96272e-08
4.29378e-08
2.80275e-06
2.96764e-06
-3.25571e-07
2.96567e-06
-2.43773e-07
2.95313e-06
-2.23935e-08
2.97799e-06
4.40423e-07
3.00474e-06
1.02185e-06
2.98383e-06
-4.5392e-07
3.00401e-06
9.25381e-08
2.97662e-06
-5.5899e-07
2.97942e-06
-5.21544e-07
2.95617e-06
-5.4838e-07
2.95668e-06
-5.24434e-07
2.94383e-06
-3.81388e-07
2.93448e-06
-3.55898e-07
2.9333e-06
-2.26248e-07
2.9206e-06
-1.70652e-07
2.91481e-06
-1.16254e-07
2.9077e-06
-4.84418e-08
2.90339e-06
-1.16329e-08
2.91039e-06
2.26216e-08
4.35156e-08
2.90982e-06
3.07999e-06
-3.18406e-07
3.07882e-06
-2.42602e-07
3.06637e-06
-9.9391e-09
3.08966e-06
4.17133e-07
3.11824e-06
9.93267e-07
3.09671e-06
-4.32388e-07
3.11796e-06
7.12879e-08
3.08946e-06
-5.30494e-07
3.09253e-06
-5.24612e-07
3.06892e-06
-5.24772e-07
3.06777e-06
-5.2328e-07
3.0567e-06
-3.70321e-07
3.0457e-06
-3.44893e-07
3.0453e-06
-2.25847e-07
3.03841e-06
-1.63765e-07
3.03992e-06
-1.17759e-07
3.03932e-06
-4.78462e-08
3.03684e-06
-9.15738e-09
3.02177e-06
3.76919e-08
4.44328e-08
3.02086e-06
3.19665e-06
-3.10694e-07
3.1961e-06
-2.42053e-07
3.18402e-06
2.14603e-09
3.2058e-06
3.95348e-07
3.23617e-06
9.62896e-07
3.21378e-06
-4.09994e-07
3.23603e-06
4.90309e-08
3.20675e-06
-5.01207e-07
3.20975e-06
-5.27619e-07
3.18612e-06
-5.01136e-07
3.1834e-06
-5.20565e-07
3.17276e-06
-3.59679e-07
3.16294e-06
-3.35077e-07
3.1604e-06
-2.23305e-07
3.1542e-06
-1.5756e-07
3.13944e-06
-1.03005e-07
3.13286e-06
-4.12619e-08
3.13035e-06
-6.6505e-09
3.13637e-06
3.16774e-08
4.41906e-08
3.13661e-06
3.31779e-06
-3.02469e-07
3.31772e-06
-2.41982e-07
3.30615e-06
1.37094e-08
3.32657e-06
3.74928e-07
3.35866e-06
9.3081e-07
3.33536e-06
-3.86693e-07
3.35824e-06
2.61478e-08
3.32875e-06
-4.71715e-07
3.33107e-06
-5.29945e-07
3.30842e-06
-4.78485e-07
3.30305e-06
-5.15188e-07
3.29434e-06
-3.50975e-07
3.28331e-06
-3.24044e-07
3.27427e-06
-2.14263e-07
3.26394e-06
-1.47232e-07
3.2574e-06
-9.64655e-08
3.25166e-06
-3.55176e-08
3.24893e-06
-3.92914e-09
3.25634e-06
2.42705e-08
4.38714e-08
3.25666e-06
3.4436e-06
-2.93791e-07
3.44387e-06
-2.42249e-07
3.43295e-06
2.46312e-08
3.45203e-06
3.55852e-07
3.48589e-06
8.96947e-07
3.46162e-06
-3.62422e-07
3.48479e-06
2.98028e-09
3.45563e-06
-4.42557e-07
3.45659e-06
-5.30911e-07
3.43624e-06
-4.58129e-07
3.42658e-06
-5.05531e-07
3.42135e-06
-3.45744e-07
3.40446e-06
-3.07153e-07
3.41045e-06
-2.20258e-07
3.40544e-06
-1.42222e-07
3.40554e-06
-9.65575e-08
3.40562e-06
-3.55991e-08
3.40274e-06
-1.05352e-09
3.38238e-06
4.46306e-08
4.51642e-08
3.38109e-06
3.57429e-06
-2.84734e-07
3.57476e-06
-2.42721e-07
3.56464e-06
3.47512e-08
3.58214e-06
3.38347e-07
3.61813e-06
8.6096e-07
3.59257e-06
-3.36858e-07
3.6161e-06
-2.05518e-08
3.58712e-06
-4.1358e-07
3.5872e-06
-5.30987e-07
3.56744e-06
-4.38365e-07
3.55768e-06
-4.95778e-07
3.54954e-06
-3.37606e-07
3.53717e-06
-2.94783e-07
3.52719e-06
-2.1027e-07
3.51766e-06
-1.32697e-07
3.50881e-06
-8.77037e-08
3.50353e-06
-3.03198e-08
3.50228e-06
1.97424e-10
3.51059e-06
3.63208e-08
4.45124e-08
3.51124e-06
3.71e-06
-2.75347e-07
3.71064e-06
-2.43363e-07
3.70132e-06
4.40688e-08
3.7172e-06
3.2247e-07
3.75515e-06
8.23006e-07
3.72877e-06
-3.10476e-07
3.75189e-06
-4.36689e-08
3.72411e-06
-3.85801e-07
3.72211e-06
-5.28984e-07
3.70479e-06
-4.21041e-07
3.69262e-06
-4.8361e-07
3.68572e-06
-3.30709e-07
3.67572e-06
-2.84784e-07
3.661e-06
-1.95547e-07
3.65151e-06
-1.23204e-07
3.64266e-06
-7.88569e-08
3.6368e-06
-2.44612e-08
3.63528e-06
1.71237e-09
3.64549e-06
2.61172e-08
4.39747e-08
3.64603e-06
3.85094e-06
-2.657e-07
3.85169e-06
-2.44115e-07
3.84328e-06
5.2483e-08
3.85732e-06
3.0843e-07
3.89709e-06
7.83235e-07
3.87037e-06
-2.83757e-07
3.89238e-06
-6.56766e-08
3.86692e-06
-3.60339e-07
3.86118e-06
-5.23245e-07
3.84878e-06
-4.08644e-07
3.82853e-06
-4.6336e-07
3.82677e-06
-3.28951e-07
3.80722e-06
-2.65228e-07
3.81862e-06
-2.06951e-07
3.81614e-06
-1.20724e-07
3.81645e-06
-7.91675e-08
3.81625e-06
-2.4256e-08
3.81191e-06
6.0512e-09
3.78797e-06
5.00508e-08
4.65616e-08
3.78539e-06
3.99732e-06
-2.55869e-07
3.99806e-06
-2.44852e-07
3.99092e-06
5.96201e-08
4.00243e-06
2.96923e-07
4.04451e-06
7.41159e-07
4.01703e-06
-2.5628e-07
4.03873e-06
-8.73798e-08
4.01353e-06
-3.35134e-07
4.00832e-06
-5.18041e-07
3.99281e-06
-3.93131e-07
3.98049e-06
-4.51041e-07
3.97648e-06
-3.2494e-07
3.96657e-06
-2.55322e-07
3.94446e-06
-1.84833e-07
3.93492e-06
-1.11189e-07
3.92603e-06
-7.02748e-08
3.92055e-06
-1.87753e-08
3.92027e-06
6.32706e-09
3.93074e-06
3.95836e-08
4.56816e-08
3.93162e-06
4.14928e-06
-2.45868e-07
4.15003e-06
-2.45603e-07
4.14416e-06
6.54934e-08
4.15352e-06
2.8756e-07
4.19684e-06
6.97845e-07
4.16971e-06
-2.2915e-07
4.18989e-06
-1.07565e-07
4.16668e-06
-3.11927e-07
4.15973e-06
-5.11086e-07
4.14445e-06
-3.77847e-07
4.1324e-06
-4.38994e-07
4.11517e-06
-3.07715e-07
4.10197e-06
-2.42116e-07
4.09279e-06
-1.75655e-07
4.08535e-06
-1.03745e-07
4.07638e-06
-6.13085e-08
4.07076e-06
-1.31528e-08
4.06973e-06
7.35695e-09
4.08199e-06
2.73193e-08
4.49638e-08
4.08271e-06
4.30706e-06
-2.35743e-07
4.30779e-06
-2.46329e-07
4.30324e-06
7.00471e-08
4.31074e-06
2.80058e-07
4.35435e-06
6.54227e-07
4.32872e-06
-2.03516e-07
4.34569e-06
-1.24534e-07
4.327e-06
-2.93236e-07
4.31466e-06
-4.98743e-07
4.3049e-06
-3.68096e-07
4.28082e-06
-4.14912e-07
4.28982e-06
-3.16711e-07
4.28023e-06
-2.3253e-07
4.27843e-06
-1.73848e-07
4.27559e-06
-1.00912e-07
4.27775e-06
-6.34693e-08
4.27782e-06
-1.32172e-08
4.27073e-06
1.44404e-08
4.24292e-06
5.51292e-08
4.94422e-08
4.23845e-06
4.47092e-06
-2.25579e-07
4.47139e-06
-2.468e-07
4.46862e-06
7.28145e-08
4.47369e-06
2.74988e-07
4.51831e-06
6.09612e-07
4.49283e-06
-1.7804e-07
4.50952e-06
-1.41219e-07
4.48945e-06
-2.73165e-07
4.48047e-06
-4.89767e-07
4.46456e-06
-3.52182e-07
4.45425e-06
-4.04605e-07
4.43502e-06
-2.97477e-07
4.42315e-06
-2.20667e-07
4.40982e-06
-1.6051e-07
4.40372e-06
-9.48201e-08
4.39482e-06
-5.45608e-08
4.3902e-06
-8.59981e-09
4.39001e-06
1.46235e-08
4.40179e-06
4.33512e-08
4.87028e-08
4.40253e-06
4.64097e-06
-2.15341e-07
4.64131e-06
-2.47138e-07
4.63982e-06
7.4306e-08
4.64368e-06
2.71125e-07
4.68724e-06
5.66049e-07
4.6644e-06
-1.55194e-07
4.67718e-06
-1.54002e-07
4.66105e-06
-2.57035e-07
4.64883e-06
-4.77545e-07
4.63258e-06
-3.35935e-07
4.61325e-06
-3.85275e-07
4.60299e-06
-2.87217e-07
4.59463e-06
-2.12304e-07
4.5776e-06
-1.43479e-07
4.57234e-06
-8.95669e-08
4.56397e-06
-4.61869e-08
4.55895e-06
-3.57662e-09
4.55816e-06
1.5408e-08
4.57146e-06
3.00491e-08
4.84865e-08
4.57168e-06
4.81752e-06
-2.05074e-07
4.81767e-06
-2.47284e-07
4.81732e-06
7.46524e-08
4.82063e-06
2.67817e-07
4.86153e-06
5.2515e-07
4.84424e-06
-1.37902e-07
4.84853e-06
-1.58295e-07
4.84239e-06
-2.50898e-07
4.81853e-06
-4.53682e-07
4.81862e-06
-3.36023e-07
4.78586e-06
-3.52524e-07
4.78653e-06
-2.8788e-07
4.77576e-06
-2.01538e-07
4.7898e-06
-1.57518e-07
4.79134e-06
-9.11055e-08
4.79599e-06
-5.08421e-08
4.79514e-06
-2.7249e-09
4.78505e-06
2.5498e-08
4.75352e-06
6.15834e-08
5.65419e-08
4.74546e-06
5.00089e-06
-1.94897e-07
5.00049e-06
-2.46878e-07
5.00186e-06
7.32778e-08
5.00359e-06
2.66087e-07
5.04448e-06
4.84258e-07
5.02664e-06
-1.20054e-07
5.03344e-06
-1.65097e-07
5.02204e-06
-2.39502e-07
5.00327e-06
-4.34913e-07
4.99187e-06
-3.24617e-07
4.9699e-06
-3.30561e-07
4.95965e-06
-2.77623e-07
4.94969e-06
-1.91581e-07
4.93661e-06
-1.4444e-07
4.92887e-06
-8.33637e-08
4.92436e-06
-4.63265e-08
4.9169e-06
4.73307e-09
4.91628e-06
2.61138e-08
4.93014e-06
4.77282e-08
5.71525e-08
4.92953e-06
5.19116e-06
-1.84742e-07
5.19044e-06
-2.46162e-07
5.19284e-06
7.08825e-08
5.1944e-06
2.64525e-07
5.23322e-06
4.45435e-07
5.21685e-06
-1.03685e-07
5.22451e-06
-1.72753e-07
5.20919e-06
-2.24183e-07
5.19596e-06
-4.21687e-07
5.17905e-06
-3.07705e-07
5.16126e-06
-3.12774e-07
5.14613e-06
-2.6249e-07
5.13894e-06
-1.84395e-07
5.12597e-06
-1.31471e-07
5.11949e-06
-7.68799e-08
5.11337e-06
-4.02092e-08
5.11286e-06
5.24089e-09
5.11376e-06
2.5219e-08
5.11741e-06
4.40738e-08
5.51286e-08
5.11944e-06
5.38873e-06
-1.74696e-07
5.38756e-06
-2.44986e-07
5.39089e-06
6.75455e-08
5.39297e-06
2.6245e-07
5.42801e-06
4.10391e-07
5.41567e-06
-9.13414e-08
5.41931e-06
-1.76394e-07
5.40719e-06
-2.12064e-07
5.38868e-06
-4.03179e-07
5.3761e-06
-2.95125e-07
5.35628e-06
-2.92946e-07
5.34253e-06
-2.48748e-07
5.33398e-06
-1.75845e-07
5.32354e-06
-1.21023e-07
5.31631e-06
-6.96561e-08
5.31177e-06
-3.56644e-08
5.31221e-06
4.80204e-09
5.31344e-06
2.39867e-08
5.3137e-06
4.38161e-08
5.26154e-08
5.31621e-06
5.59388e-06
-1.64835e-07
5.59206e-06
-2.43169e-07
5.59645e-06
6.31593e-08
5.59909e-06
2.59804e-07
5.63098e-06
3.78505e-07
5.62059e-06
-8.09518e-08
5.62243e-06
-1.7824e-07
5.61158e-06
-2.01207e-07
5.59137e-06
-3.82976e-07
5.58e-06
-2.83752e-07
5.55984e-06
-2.72784e-07
5.54638e-06
-2.35288e-07
5.53707e-06
-1.66538e-07
5.52861e-06
-1.12558e-07
5.52111e-06
-6.21566e-08
5.51735e-06
-3.19079e-08
5.51616e-06
5.99432e-09
5.51515e-06
2.49932e-08
5.51778e-06
4.11908e-08
4.98714e-08
5.52052e-06
5.8068e-06
-1.55158e-07
5.8045e-06
-2.4087e-07
5.8095e-06
5.81626e-08
5.81394e-06
2.55369e-07
5.84166e-06
3.50782e-07
5.83325e-06
-7.25391e-08
5.83274e-06
-1.77733e-07
5.82349e-06
-1.91963e-07
5.80215e-06
-3.6163e-07
5.7913e-06
-2.72906e-07
5.77155e-06
-2.53033e-07
5.75816e-06
-2.219e-07
5.74858e-06
-1.56954e-07
5.74125e-06
-1.05231e-07
5.7338e-06
-5.47049e-08
5.73029e-06
-2.84018e-08
5.72955e-06
6.73963e-09
5.73045e-06
2.40959e-08
5.73018e-06
4.14595e-08
4.73455e-08
5.7327e-06
6.02789e-06
-1.45744e-07
6.02498e-06
-2.37965e-07
6.03059e-06
5.25533e-08
6.03715e-06
2.48807e-07
6.06098e-06
3.26957e-07
6.05345e-06
-6.50083e-08
6.05107e-06
-1.75353e-07
6.043e-06
-1.83894e-07
6.02126e-06
-3.39891e-07
6.01064e-06
-2.62288e-07
5.99175e-06
-2.34145e-07
5.97816e-06
-2.08311e-07
5.96826e-06
-1.47051e-07
5.96172e-06
-9.86894e-08
5.95479e-06
-4.77774e-08
5.95105e-06
-2.46666e-08
5.94929e-06
8.50494e-09
5.9474e-06
2.59865e-08
5.95083e-06
3.80325e-08
4.52399e-08
5.95293e-06
6.2574e-06
-1.3664e-07
6.25386e-06
-2.34424e-07
6.26001e-06
4.63985e-08
6.26817e-06
2.40652e-07
6.28909e-06
3.06029e-07
6.2817e-06
-5.76126e-08
6.278e-06
-1.71655e-07
6.27049e-06
-1.76388e-07
6.24908e-06
-3.18479e-07
6.23834e-06
-2.51547e-07
6.22044e-06
-2.16242e-07
6.20651e-06
-1.94384e-07
6.19657e-06
-1.37107e-07
6.1906e-06
-9.27188e-08
6.18425e-06
-4.14268e-08
6.18046e-06
-2.088e-08
6.18003e-06
8.93306e-09
6.18171e-06
2.43072e-08
6.18002e-06
3.97219e-08
4.37253e-08
6.18154e-06
6.49567e-06
-1.27907e-07
6.49141e-06
-2.30157e-07
6.49811e-06
3.96962e-08
6.50732e-06
2.3144e-07
6.52627e-06
2.8708e-07
6.51865e-06
-4.9992e-08
6.51408e-06
-1.67092e-07
6.50661e-06
-1.68917e-07
6.48575e-06
-2.97617e-07
6.47451e-06
-2.40302e-07
6.45794e-06
-1.9968e-07
6.44394e-06
-1.80381e-07
6.43393e-06
-1.27092e-07
6.42807e-06
-8.68626e-08
6.42246e-06
-3.58126e-08
6.41827e-06
-1.66892e-08
6.41647e-06
1.07303e-08
6.41441e-06
2.63682e-08
6.41808e-06
3.60481e-08
4.25148e-08
6.41929e-06
6.74303e-06
-1.19599e-07
6.73793e-06
-2.25055e-07
6.74524e-06
3.23823e-08
6.75521e-06
2.21468e-07
6.77269e-06
2.69604e-07
6.76502e-06
-4.23202e-08
6.75946e-06
-1.61531e-07
6.75177e-06
-1.61232e-07
6.73158e-06
-2.77423e-07
6.71991e-06
-2.28632e-07
6.70455e-06
-1.84324e-07
6.69058e-06
-1.66411e-07
6.68026e-06
-1.16773e-07
6.67441e-06
-8.10058e-08
6.66973e-06
-3.11407e-08
6.66554e-06
-1.24922e-08
6.66516e-06
1.11105e-08
6.66651e-06
2.50159e-08
6.66519e-06
3.73625e-08
4.17559e-08
6.66595e-06
6.99983e-06
-1.1178e-07
6.9937e-06
-2.18929e-07
7.00179e-06
2.42957e-08
7.01227e-06
2.10992e-07
7.02869e-06
2.53176e-07
7.02109e-06
-3.47186e-08
7.01455e-06
-1.54992e-07
7.00657e-06
-1.53251e-07
6.98684e-06
-2.57692e-07
6.97461e-06
-2.16402e-07
6.96034e-06
-1.70052e-07
6.94681e-06
-1.52879e-07
6.93637e-06
-1.06333e-07
6.93042e-06
-7.50526e-08
6.92658e-06
-2.73001e-08
6.92235e-06
-8.26485e-09
6.92041e-06
1.30478e-08
6.91853e-06
2.6893e-08
6.92134e-06
3.4554e-08
4.08318e-08
6.92227e-06
7.2664e-06
-1.04494e-07
7.25905e-06
-2.11576e-07
7.26813e-06
1.52206e-08
7.279e-06
2.00116e-07
7.2967e-06
2.35479e-07
7.28729e-06
-2.53086e-08
7.27959e-06
-1.47297e-07
7.27121e-06
-1.44866e-07
7.25183e-06
-2.38312e-07
7.23937e-06
-2.03943e-07
7.22594e-06
-1.56622e-07
7.21291e-06
-1.39852e-07
7.20244e-06
-9.58585e-08
7.19608e-06
-6.86901e-08
7.19281e-06
-2.40349e-08
7.18867e-06
-4.11942e-09
7.18798e-06
1.37301e-08
7.18886e-06
2.60132e-08
7.18778e-06
3.56396e-08
3.98036e-08
7.18881e-06
7.54312e-06
-9.7778e-08
7.53459e-06
-2.03048e-07
7.54438e-06
5.42349e-09
7.55602e-06
1.88484e-07
7.57544e-06
2.1605e-07
7.56274e-06
-1.26087e-08
7.55508e-06
-1.3963e-07
7.54626e-06
-1.36049e-07
7.52698e-06
-2.19034e-07
7.51431e-06
-1.91267e-07
7.50142e-06
-1.43734e-07
7.48921e-06
-1.27644e-07
7.47894e-06
-8.55904e-08
7.47204e-06
-6.17881e-08
7.46927e-06
-2.12605e-08
7.46553e-06
-3.82331e-10
7.4638e-06
1.54578e-08
7.46194e-06
2.78721e-08
7.46416e-06
3.3419e-08
3.86544e-08
7.46531e-06
7.83029e-06
-9.1609e-08
7.82128e-06
-1.94044e-07
7.83053e-06
-3.82791e-09
7.84369e-06
1.75326e-07
7.85303e-06
2.06709e-07
7.84679e-06
-6.36684e-09
7.84168e-06
-1.34518e-07
7.83177e-06
-1.26142e-07
7.81262e-06
-1.99884e-07
7.79998e-06
-1.78625e-07
7.78752e-06
-1.31272e-07
7.77592e-06
-1.16048e-07
7.7661e-06
-7.5772e-08
7.75866e-06
-5.43479e-08
7.75612e-06
-1.87209e-08
7.75289e-06
2.84787e-09
7.75197e-06
1.63768e-08
7.7525e-06
2.73469e-08
7.75136e-06
3.45565e-08
3.78406e-08
7.75218e-06
8.12835e-06
-8.60005e-08
8.1186e-06
-1.84287e-07
8.12724e-06
-1.24772e-08
8.14353e-06
1.59042e-07
8.1608e-06
1.89437e-07
8.16244e-06
-8.00869e-09
8.14228e-06
-1.14357e-07
8.12805e-06
-1.11906e-07
8.10938e-06
-1.81214e-07
8.09675e-06
-1.66004e-07
8.08465e-06
-1.19169e-07
8.07353e-06
-1.04929e-07
8.06454e-06
-6.67763e-08
8.05669e-06
-4.64987e-08
8.05398e-06
-1.60164e-08
8.05117e-06
5.66114e-09
8.04921e-06
1.83392e-08
8.04764e-06
2.89122e-08
8.04939e-06
3.28134e-08
3.71316e-08
8.05009e-06
8.43781e-06
-8.1046e-08
8.42629e-06
-1.72768e-07
8.43684e-06
-2.30299e-08
8.45133e-06
1.44548e-07
8.46556e-06
1.75216e-07
8.45311e-06
4.43508e-09
8.44542e-06
-1.06665e-07
8.43602e-06
-1.02503e-07
8.41763e-06
-1.62824e-07