/*--------------------------------*- C++ -*----------------------------------*\
| =========                 |                                                 |
| \\      /  F ield         | OpenFOAM: The Open Source CFD Toolbox           |
|  \\    /   O peration     | Version:  v2012                                 |
|   \\  /    A nd           | Website:  www.openfoam.com                      |
|    \\/     M anipulation  |                                                 |
\*---------------------------------------------------------------------------*/
FoamFile
{
    version     2.0;
    format      ascii;
    class       volVectorField;
    location    "7.9";
    object      U;
}
// * * * * * * * * * * * * * * * * * * * * * * * * * * * * * * * * * * * * * //

dimensions      [0 1 -1 0 0 0 0];


internalField   nonuniform List<vector> 
7000
(
(0.971638 -0.00374828 0)
(1.02005 -0.00300297 0)
(0.992886 -0.000773868 0)
(1.02098 0.0108519 0)
(1.01137 0.0169656 0)
(0.984992 -0.0123717 0)
(0.88952 0.00894557 0)
(1.11984 -0.0217493 0)
(0.6953 -0.0156495 0)
(1.24983 -0.0208706 0)
(0.627824 -0.0186057 0)
(1.26708 -0.00888118 0)
(0.703748 -0.0155424 0)
(1.2378 -0.00369564 0)
(0.779957 -0.0110432 0)
(1.21524 0.00332469 0)
(0.84514 -0.00202027 0)
(1.19432 0.0105255 0)
(0.890802 0.0065397 0)
(1.17431 0.0150104 0)
(0.974459 -0.00372187 0)
(1.01831 -0.00307799 0)
(0.994654 -0.000799075 0)
(1.01993 0.0107435 0)
(1.01133 0.0170759 0)
(0.987983 -0.0113209 0)
(0.905537 0.00758154 0)
(1.09293 -0.0192424 0)
(0.742043 -0.0177914 0)
(1.20735 -0.0192394 0)
(0.680916 -0.0195826 0)
(1.22432 -0.00934454 0)
(0.758211 -0.0157718 0)
(1.19486 -0.00455099 0)
(0.835331 -0.0111619 0)
(1.16482 0.00212577 0)
(0.910401 -0.00169204 0)
(1.12641 0.00893725 0)
(0.975241 0.00774589 0)
(1.08268 0.0131729 0)
(0.979298 -0.0037009 0)
(1.01473 -0.00316189 0)
(0.998155 -0.000827991 0)
(1.01715 0.0106452 0)
(1.01158 0.0173246 0)
(0.991842 -0.0105826 0)
(0.928248 0.00663749 0)
(1.06726 -0.0178337 0)
(0.804846 -0.0193159 0)
(1.15351 -0.0181997 0)
(0.763535 -0.0203823 0)
(1.15804 -0.00993792 0)
(0.842077 -0.0157835 0)
(1.12553 -0.00554348 0)
(0.914749 -0.010743 0)
(1.09176 0.000503187 0)
(0.980655 -0.000827456 0)
(1.05843 0.00709161 0)
(1.02587 0.00873086 0)
(1.03645 0.0119156 0)
(0.98536 -0.00368425 0)
(1.00954 -0.00324025 0)
(1.00252 -0.000851378 0)
(1.01291 0.0106005 0)
(1.0118 0.0174929 0)
(0.996034 -0.0100303 0)
(0.952076 0.00605744 0)
(1.04321 -0.0167159 0)
(0.86802 -0.0202063 0)
(1.09414 -0.0176395 0)
(0.849052 -0.0205741 0)
(1.08597 -0.0108499 0)
(0.920681 -0.0154166 0)
(1.05792 -0.0067153 0)
(0.975337 -0.0101218 0)
(1.03514 -0.000922624 0)
(1.01565 -9.18268e-05 0)
(1.02294 0.00592865 0)
(1.03592 0.00913934 0)
(1.02183 0.0114551 0)
(0.991804 -0.00366608 0)
(1.00354 -0.00331642 0)
(1.00639 -0.000872121 0)
(1.00812 0.0105716 0)
(1.01154 0.0175687 0)
(1.00038 -0.00963288 0)
(0.97308 0.00572165 0)
(1.02546 -0.016009 0)
(0.9202 -0.0205895 0)
(1.0411 -0.0175176 0)
(0.91489 -0.0203756 0)
(1.02897 -0.0119462 0)
(0.970903 -0.0149733 0)
(1.01492 -0.00775618 0)
(1.00445 -0.00965564 0)
(1.00982 -0.00182848 0)
(1.02346 0.000163994 0)
(1.0134 0.00541431 0)
(1.03073 0.00918132 0)
(1.01929 0.0113557 0)
(0.997847 -0.00364441 0)
(0.997674 -0.00338684 0)
(1.00873 -0.000897045 0)
(1.00351 0.0105503 0)
(1.0108 0.0175843 0)
(1.00455 -0.00937779 0)
(0.989538 0.00555983 0)
(1.01559 -0.0155853 0)
(0.956115 -0.0205046 0)
(1.00346 -0.0176373 0)
(0.953375 -0.020044 0)
(0.996666 -0.0129589 0)
(0.992296 -0.0146691 0)
(0.99797 -0.00853006 0)
(1.01201 -0.00945591 0)
(1.00604 -0.00241924 0)
(1.02203 0.000159158 0)
(1.01548 0.00515538 0)
(1.02589 0.0091065 0)
(1.02115 0.0113236 0)
(1.00294 -0.00361904 0)
(0.992654 -0.00344401 0)
(1.00919 -0.000926417 0)
(0.999356 0.0105419 0)
(1.00989 0.0175422 0)
(1.00803 -0.00924 0)
(1.00145 0.00550332 0)
(1.01242 -0.0153275 0)
(0.977419 -0.0200854 0)
(0.982619 -0.017822 0)
(0.970014 -0.0197464 0)
(0.984154 -0.0137855 0)
(0.99613 -0.014539 0)
(0.995175 -0.00915138 0)
(1.01057 -0.00946287 0)
(1.00935 -0.00293133 0)
(1.02033 5.52312e-05 0)
(1.02022 0.00489145 0)
(1.02529 0.00900494 0)
(1.02491 0.0112788 0)
(1.00685 -0.00359023 0)
(0.988756 -0.00348107 0)
(1.0081 -0.000956481 0)
(0.995654 0.0105375 0)
(1.00917 0.0174426 0)
(1.01034 -0.00919073 0)
(1.0098 0.00548648 0)
(1.01303 -0.0151369 0)
(0.988975 -0.0194593 0)
(0.974155 -0.0179616 0)
(0.974475 -0.0195159 0)
(0.981116 -0.014473 0)
(0.993152 -0.0145196 0)
(0.995575 -0.00974523 0)
(1.00704 -0.00958292 0)
(1.01168 -0.00350484 0)
(1.01945 -0.000138223 0)
(1.02364 0.00453526 0)
(1.02702 0.00885477 0)
(1.02885 0.0112006 0)
(1.00961 -0.00355797 0)
(0.985916 -0.00349461 0)
(1.00612 -0.000984973 0)
(0.992482 0.0105226 0)
(1.0089 0.017296 0)
(1.01112 -0.00920711 0)
(1.01571 0.00546893 0)
(1.01467 -0.0149611 0)
(0.995389 -0.0187225 0)
(0.972617 -0.0180195 0)
(0.9744 -0.0193079 0)
(0.980308 -0.0150958 0)
(0.98903 -0.0145314 0)
(0.994542 -0.0103644 0)
(1.00349 -0.00976053 0)
(1.01115 -0.00415583 0)
(1.0182 -0.000437256 0)
(1.02458 0.0040919 0)
(1.02842 0.00862186 0)
(1.03149 0.0110619 0)
(1.01138 -0.00352202 0)
(0.983967 -0.00348523 0)
(1.00391 -0.00101056 0)
(0.990057 0.010488 0)
(1.00917 0.0171196 0)
(1.01031 -0.00927196 0)
(1.01995 0.00543312 0)
(1.01557 -0.0147819 0)
(0.999604 -0.017941 0)
(0.974266 -0.0179988 0)
(0.973903 -0.019064 0)
(0.979278 -0.0156859 0)
(0.985444 -0.0145266 0)
(0.991739 -0.0110097 0)
(1.00001 -0.00997616 0)
(1.00849 -0.00485037 0)
(1.0159 -0.000835473 0)
(1.02331 0.00358772 0)
(1.02819 0.00829046 0)
(1.03212 0.0108359 0)
(1.01234 -0.00348224 0)
(0.982804 -0.0034562 0)
(1.00187 -0.00103428 0)
(0.988579 0.0104289 0)
(1.00991 0.0169335 0)
(1.00816 -0.00937103 0)
(1.0229 0.00537582 0)
(1.01498 -0.0146015 0)
(1.00303 -0.0171625 0)
(0.977202 -0.0179179 0)
(0.974571 -0.0187465 0)
(0.978208 -0.0162319 0)
(0.98256 -0.0144871 0)
(0.988107 -0.0116555 0)
(0.996324 -0.0102254 0)
(1.00469 -0.005556 0)
(1.0126 -0.0013205 0)
(1.02056 0.00303894 0)
(1.02632 0.00785674 0)
(1.03096 0.0105098 0)
(1.01261 -0.00343899 0)
(0.982404 -0.00341208 0)
(1.00019 -0.00105873 0)
(0.988043 0.0103431 0)
(1.01094 0.0167574 0)
(1.0052 -0.00949151 0)
(1.02472 0.00530243 0)
(1.01289 -0.0144305 0)
(1.00618 -0.0164252 0)
(0.980532 -0.0177989 0)
(0.976736 -0.018345 0)
(0.977809 -0.0167068 0)
(0.980466 -0.0143981 0)
(0.984527 -0.0122618 0)
(0.992332 -0.0105067 0)
(1.00023 -0.00625347 0)
(1.00847 -0.00189184 0)
(1.01683 0.00244448 0)
(1.02328 0.00732226 0)
(1.02855 0.0100854 0)
(1.0123 -0.00339333 0)
(0.982754 -0.00335757 0)
(0.998836 -0.00108413 0)
(0.988202 0.0102314 0)
(1.01196 0.0166054 0)
(1.00217 -0.00962163 0)
(1.02543 0.00522234 0)
(1.00986 -0.0142815 0)
(1.00909 -0.0157562 0)
(0.983751 -0.0176637 0)
(0.980146 -0.0178733 0)
(0.978437 -0.0170854 0)
(0.979423 -0.0142451 0)
(0.981628 -0.0127837 0)
(0.988209 -0.0108036 0)
(0.995349 -0.00692219 0)
(1.00361 -0.00254802 0)
(1.0123 0.00179525 0)
(1.01934 0.00668945 0)
(1.02529 0.00956699 0)
(1.0115 -0.00334676 0)
(0.983779 -0.00329665 0)
(0.997712 -0.00110893 0)
(0.988716 0.0100971 0)
(1.01268 0.016482 0)
(0.999787 -0.00975004 0)
(1.02499 0.00514545 0)
(1.00673 -0.0141651 0)
(1.01152 -0.0151677 0)
(0.986547 -0.017531 0)
(0.984211 -0.0173597 0)
(0.979982 -0.0173551 0)
(0.979603 -0.0140269 0)
(0.979838 -0.0131753 0)
(0.984365 -0.0110788 0)
(0.990354 -0.00753086 0)
(0.998117 -0.00326798 0)
(1.00695 0.00108572 0)
(1.01456 0.00595712 0)
(1.02117 0.00894663 0)
(1.01035 -0.00330076 0)
(0.985314 -0.00323232 0)
(0.996691 -0.00112979 0)
(0.989337 0.00994485 0)
(1.01294 0.0163819 0)
(0.998576 -0.00986472 0)
(1.02335 0.00507746 0)
(1.00439 -0.0140861 0)
(1.01312 -0.0146562 0)
(0.988809 -0.0174128 0)
(0.988176 -0.0168343 0)
(0.982045 -0.0175211 0)
(0.980847 -0.0137614 0)
(0.979332 -0.0133981 0)
(0.981275 -0.0112882 0)
(0.985723 -0.00804219 0)
(0.992304 -0.0040019 0)
(1.00085 0.000326831 0)
(1.00885 0.00512985 0)
(1.01595 0.00820919 0)
(1.00897 -0.00325638 0)
(0.987136 -0.0031666 0)
(0.995687 -0.00114289 0)
(0.989994 0.0097784 0)
(1.01277 0.0162926 0)
(0.998632 -0.00995287 0)
(1.02062 0.00501633 0)
(1.0034 -0.0140424 0)
(1.01354 -0.0142045 0)
(0.99063 -0.0173164 0)
(0.991355 -0.0163222 0)
(0.984164 -0.0175982 0)
(0.982658 -0.013482 0)
(0.979946 -0.013435 0)
(0.979267 -0.0114016 0)
(0.981972 -0.0084129 0)
(0.986698 -0.00468654 0)
(0.994345 -0.000446611 0)
(1.00234 0.0042387 0)
(1.00945 0.00735783 0)
(1.00754 -0.00321409 0)
(0.989016 -0.00310028 0)
(0.994674 -0.00114662 0)
(0.990735 0.00959981 0)
(1.01239 0.0162006 0)
(0.999653 -0.0100022 0)
(1.01714 0.00495354 0)
(1.00381 -0.0140263 0)
(1.01267 -0.0137873 0)
(0.992197 -0.0172473 0)
(0.993351 -0.0158361 0)
(0.986008 -0.0176072 0)
(0.98441 -0.013225 0)
(0.981216 -0.0132918 0)
(0.978385 -0.0114083 0)
(0.979414 -0.00860668 0)
(0.9819 -0.00525302 0)
(0.988016 -0.00117329 0)
(0.995446 0.00335356 0)
(1.00188 0.00643594 0)
(1.0062 -0.00317383 0)
(0.990762 -0.00303339 0)
(0.993687 -0.00114208 0)
(0.99161 0.00940916 0)
(1.01208 0.0160977 0)
(1.00111 -0.0100039 0)
(1.01346 0.00487779 0)
(1.00521 -0.0140236 0)
(1.01076 -0.0133877 0)
(0.99364 -0.0171989 0)
(0.994167 -0.0153831 0)
(0.987454 -0.0175618 0)
(0.985634 -0.0130227 0)
(0.982591 -0.0130108 0)
(0.978402 -0.0113257 0)
(0.978043 -0.00862392 0)
(0.978368 -0.00564158 0)
(0.982529 -0.00178528 0)
(0.988833 0.00257253 0)
(0.993954 0.00553083 0)
(1.00507 -0.00313521 0)
(0.992249 -0.00296568 0)
(0.992789 -0.0011316 0)
(0.992581 0.00920385 0)
(1.01204 0.0159828 0)
(1.00251 -0.00995431 0)
(1.01014 0.0047795 0)
(1.00696 -0.0140179 0)
(1.00835 -0.0130005 0)
(0.994957 -0.0171597 0)
(0.994137 -0.0149676 0)
(0.98855 -0.0174601 0)
(0.986185 -0.0128919 0)
(0.983666 -0.0126541 0)
(0.978962 -0.0111876 0)
(0.977592 -0.00849412 0)
(0.976266 -0.00583455 0)
(0.978394 -0.0022518 0)
(0.983236 0.0019609 0)
(0.986659 0.00474171 0)
(1.0042 -0.00309775 0)
(0.993431 -0.00289679 0)
(0.992039 -0.00111751 0)
(0.993524 0.00897992 0)
(1.01235 0.015859 0)
(1.00355 -0.00985418 0)
(1.00759 0.00465284 0)
(1.00852 -0.0139955 0)
(1.006 -0.0126253 0)
(0.99606 -0.0171214 0)
(0.993714 -0.0145935 0)
(0.989422 -0.0172913 0)
(0.986213 -0.0128256 0)
(0.984309 -0.0122566 0)
(0.979746 -0.0110357 0)
(0.977704 -0.00826167 0)
(0.975451 -0.00583389 0)
(0.975796 -0.00254649 0)
(0.979177 0.00152764 0)
(0.980885 0.0041259 0)
(1.0036 -0.00306102 0)
(0.994323 -0.0028265 0)
(0.991469 -0.00110097 0)
(0.994294 0.00873377 0)
(1.01292 0.0157309 0)
(1.00419 -0.00970846 0)
(1.00592 0.00449696 0)
(1.0096 -0.0139456 0)
(1.00408 -0.0122711 0)
(0.996876 -0.0170682 0)
(0.993267 -0.0142702 0)
(0.99018 -0.0170475 0)
(0.986002 -0.0128079 0)
(0.984609 -0.0118423 0)
(0.980555 -0.010885 0)
(0.978085 -0.00798712 0)
(0.975581 -0.00568968 0)
(0.974575 -0.00266093 0)
(0.976786 0.00127423 0)
(0.977057 0.00369692 0)
(1.00322 -0.00302476 0)
(0.994981 -0.0027548 0)
(0.991079 -0.00108131 0)
(0.994784 0.00846344 0)
(1.01358 0.0156011 0)
(1.00455 -0.0095256 0)
(1.00501 0.00431648 0)
(1.0102 -0.0138624 0)
(1.0027 -0.0119451 0)
(0.997416 -0.0169835 0)
(0.992971 -0.0140095 0)
(0.990875 -0.016726 0)
(0.985804 -0.0128302 0)
(0.984738 -0.011426 0)
(0.981311 -0.0107247 0)
(0.978553 -0.00770661 0)
(0.976268 -0.00547327 0)
(0.974355 -0.00265904 0)
(0.975817 0.00117632 0)
(0.975054 0.00345398 0)
(1.00299 -0.00298888 0)
(0.995475 -0.00268198 0)
(0.990857 -0.00105655 0)
(0.994959 0.00816936 0)
(1.01415 0.0154694 0)
(1.0048 -0.0093141 0)
(1.00459 0.00411629 0)
(1.01042 -0.0137438 0)
(1.00176 -0.0116503 0)
(0.997755 -0.0168507 0)
(0.992838 -0.0138282 0)
(0.991497 -0.0163278 0)
(0.985768 -0.0128678 0)
(0.984831 -0.0110266 0)
(0.982006 -0.0105535 0)
(0.979029 -0.00744006 0)
(0.977184 -0.00521433 0)
(0.974721 -0.0025881 0)
(0.975822 0.00116292 0)
(0.974397 0.00334211 0)
(1.00286 -0.00295314 0)
(0.995868 -0.00260913 0)
(0.990788 -0.00102317 0)
(0.994851 0.00785281 0)
(1.01449 0.0153327 0)
(1.00509 -0.00907971 0)
(1.00444 0.00389965 0)
(1.01044 -0.0135855 0)
(1.00112 -0.0113991 0)
(0.99798 -0.0166551 0)
(0.992809 -0.0137213 0)
(0.992007 -0.0158678 0)
(0.985937 -0.0129108 0)
(0.984937 -0.0106425 0)
(0.98265 -0.0103654 0)
(0.979486 -0.00721157 0)
(0.97812 -0.00494368 0)
(0.975347 -0.00246832 0)
(0.976344 0.00120509 0)
(0.974542 0.00330668 0)
(1.00276 -0.00291739 0)
(0.996204 -0.00253739 0)
(0.99086 -0.000978338 0)
(0.994536 0.00751825 0)
(1.01452 0.0151835 0)
(1.00548 -0.00882612 0)
(1.0044 0.00366705 0)
(1.01033 -0.0133802 0)
(1.00064 -0.0111955 0)
(0.998149 -0.0164068 0)
(0.992827 -0.0136691 0)
(0.992363 -0.015353 0)
(0.986292 -0.0129646 0)
(0.985052 -0.0102674 0)
(0.983245 -0.0101576 0)
(0.979919 -0.00701491 0)
(0.97896 -0.0046472 0)
(0.976044 -0.00231912 0)
(0.977046 0.00125033 0)
(0.975061 0.00331924 0)
(1.00265 -0.00288172 0)
(0.996505 -0.00246748 0)
(0.991064 -0.000921042 0)
(0.994108 0.00717372 0)
(1.01422 0.0150137 0)
(1.006 -0.0085573 0)
(1.00437 0.00342045 0)
(1.01018 -0.0131308 0)
(1.00027 -0.0110321 0)
(0.998277 -0.016099 0)
(0.992871 -0.0136897 0)
(0.99254 -0.014789 0)
(0.986775 -0.0130052 0)
(0.985157 -0.00992512 0)
(0.983779 -0.00991005 0)
(0.980329 -0.00686171 0)
(0.979657 -0.00431297 0)
(0.976712 -0.00211919 0)
(0.977729 0.00127492 0)
(0.975709 0.00330818 0)
(1.00251 -0.00284543 0)
(0.996773 -0.00240243 0)
(0.991384 -0.000847826 0)
(0.99366 0.00682238 0)
(1.01359 0.0148226 0)
(1.0066 -0.00827991 0)
(1.00433 0.0031652 0)
(1.01 -0.0128342 0)
(1.00001 -0.0109359 0)
(0.998345 -0.0157124 0)
(0.992941 -0.0137598 0)
(0.992545 -0.0142256 0)
(0.987314 -0.0130267 0)
(0.985237 -0.009623 0)
(0.984228 -0.00958537 0)
(0.980715 -0.00675864 0)
(0.980203 -0.00401969 0)
(0.977314 -0.00186285 0)
(0.97829 0.00137421 0)
(0.976356 0.00332507 0)
(1.00234 -0.00280669 0)
(0.996998 -0.00234685 0)
(0.991794 -0.000755648 0)
(0.993279 0.00646815 0)
(1.01268 0.014606 0)
(1.00726 -0.00800026 0)
(1.00428 0.00290179 0)
(1.00979 -0.0124873 0)
(0.999868 -0.0108739 0)
(0.998334 -0.0153204 0)
(0.993041 -0.0138129 0)
(0.992403 -0.013672 0)
(0.987838 -0.0130119 0)
(0.985292 -0.00939253 0)
(0.98457 -0.0092357 0)
(0.981065 -0.00658251 0)
(0.980609 -0.00382002 0)
(0.97786 -0.00173929 0)
(0.978709 0.00147646 0)
(0.976939 0.00335991 0)
(1.00216 -0.00276741 0)
(0.997168 -0.00229577 0)
(0.992256 -0.000654695 0)
(0.993028 0.00612791 0)
(1.01157 0.0143557 0)
(1.0079 -0.00771232 0)
(1.00421 0.00263308 0)
(1.00956 -0.012098 0)
(0.999864 -0.0108268 0)
(0.998229 -0.0148662 0)
(0.993177 -0.013915 0)
(0.992151 -0.0131236 0)
(0.98828 -0.0129198 0)
(0.985332 -0.0091752 0)
(0.984801 -0.00889384 0)
(0.981378 -0.00637872 0)
(0.980861 -0.00358925 0)
(0.978334 -0.00157072 0)
(0.979015 0.00153896 0)
(0.977451 0.00336601 0)
(1.00199 -0.00272553 0)
(0.997275 -0.00225365 0)
(0.992723 -0.000543374 0)
(0.992946 0.00580006 0)
(1.01035 0.0140752 0)
(1.00848 -0.00740658 0)
(1.00414 0.00232472 0)
(1.00931 -0.0116222 0)
(0.999997 -0.0109066 0)
(0.998032 -0.0142975 0)
(0.993338 -0.0140317 0)
(0.991845 -0.0125974 0)
(0.988611 -0.0128462 0)
(0.985361 -0.00892117 0)
(0.984913 -0.00857421 0)
(0.981663 -0.00616483 0)
(0.981026 -0.00327229 0)
(0.978735 -0.00115974 0)
(0.979207 0.00152047 0)
(0.977887 0.0033417 0)
(1.00184 -0.00267405 0)
(0.997326 -0.0022338 0)
(0.993152 -0.000408441 0)
(0.99304 0.00547413 0)
(1.00911 0.0137769 0)
(1.00897 -0.00711864 0)
(1.00408 0.00203829 0)
(1.00903 -0.0111751 0)
(1.00024 -0.0109032 0)
(0.997773 -0.0138236 0)
(0.993519 -0.0140747 0)
(0.991519 -0.0120747 0)
(0.988821 -0.0126771 0)
(0.985394 -0.00881994 0)
(0.984934 -0.00814329 0)
(0.981936 -0.0059775 0)
(0.981146 -0.00309883 0)
(0.979072 -0.00112359 0)
(0.979311 0.00164352 0)
(0.978277 0.00337225 0)
(1.00171 -0.0026318 0)
(0.997329 -0.00219485 0)
(0.993512 -0.000301517 0)
(0.99329 0.00520838 0)
(1.00794 0.0134173 0)
(1.00935 -0.00679229 0)
(1.00402 0.00168309 0)
(1.00873 -0.0106438 0)
(1.00056 -0.0109876 0)
(0.997476 -0.0132554 0)
(0.993711 -0.0141415 0)
(0.991229 -0.0116615 0)
(0.988908 -0.0123462 0)
(0.985454 -0.00875706 0)
(0.984889 -0.00772183 0)
(0.982159 -0.00583593 0)
(0.981194 -0.00285744 0)
(0.979402 -0.000796055 0)
(0.979454 0.00184507 0)
(0.978612 0.00343783 0)
(1.00161 -0.00257242 0)
(0.9973 -0.00218882 0)
(0.993794 -0.000165636 0)
(0.993651 0.00490699 0)
(1.00691 0.0130922 0)
(1.00961 -0.00651492 0)
(1.00397 0.00134247 0)
(1.0084 -0.0101472 0)
(1.00091 -0.0110499 0)
(0.997187 -0.0127089 0)
(0.993893 -0.0140957 0)
(0.991002 -0.0114573 0)
(0.988929 -0.0118841 0)
(0.985528 -0.00878823 0)
(0.98482 -0.00720328 0)
(0.982409 -0.00577994 0)
(0.981339 -0.00271452 0)
(0.979709 -0.00063658 0)
(0.979536 0.00210919 0)
(0.978942 0.00353608 0)
(1.00154 -0.0025024 0)
(0.997262 -0.0022026 0)
(0.993998 -2.01386e-05 0)
(0.994073 0.0046282 0)
(1.00605 0.0127164 0)
(1.00977 -0.0061968 0)
(1.00392 0.00104577 0)
(1.00805 -0.00966538 0)
(1.00125 -0.0109933 0)
(0.996918 -0.0122491 0)
(0.994065 -0.0139309 0)
(0.990862 -0.011127 0)
(0.988913 -0.0115601 0)
(0.985654 -0.008685 0)
(0.984763 -0.00690448 0)
(0.982606 -0.00548559 0)
(0.981465 -0.00246795 0)
(0.980099 -0.000669045 0)
(0.979764 0.00234603 0)
(0.979245 0.00364888 0)
(1.00148 -0.00246375 0)
(0.997238 -0.00215283 0)
(0.994135 4.12643e-05 0)
(0.994508 0.00447629 0)
(1.00536 0.0122091 0)
(1.00982 -0.00574007 0)
(1.0039 0.000563065 0)
(1.00768 -0.00891116 0)
(1.00155 -0.0113077 0)
(0.9967 -0.011465 0)
(0.99424 -0.014021 0)
(0.990785 -0.0105925 0)
(0.988911 -0.0114021 0)
(0.985801 -0.00840466 0)
(0.984768 -0.00675642 0)
(0.982879 -0.00480324 0)
(0.981644 -0.0020713 0)
(0.980437 -0.000104124 0)
(0.979995 0.00198594 0)
(0.979601 0.00338468 0)
(1.00142 -0.00237609 0)
(0.997246 -0.00218907 0)
(0.994223 0.000213687 0)
(0.99492 0.00416922 0)
(1.00483 0.0118804 0)
(1.00979 -0.00552352 0)
(1.00387 0.000238556 0)
(1.00731 -0.00852109 0)
(1.00178 -0.0112023 0)
(0.996527 -0.0110908 0)
(0.994394 -0.013763 0)
(0.99082 -0.0105683 0)
(0.988916 -0.0107131 0)
(0.986013 -0.00840488 0)
(0.984874 -0.00630063 0)
(0.98319 -0.00476321 0)
(0.981919 -0.00200798 0)
(0.98078 -0.00019963 0)
(0.980224 0.00235931 0)
(0.98003 0.00354767 0)
(1.00138 -0.00229621 0)
(0.99728 -0.00220968 0)
(0.994295 0.00034152 0)
(0.995279 0.00393042 0)
(1.00442 0.0114589 0)
(1.0097 -0.00518376 0)
(1.00384 -7.55607e-05 0)
(1.00697 -0.00809428 0)
(1.00194 -0.0110138 0)
(0.996418 -0.0108317 0)
(0.99452 -0.0132111 0)
(0.990943 -0.0105734 0)
(0.988984 -0.0101418 0)
(0.986248 -0.00826032 0)
(0.985001 -0.00590742 0)
(0.983495 -0.00469101 0)
(0.982215 -0.00180784 0)
(0.981289 -0.000243603 0)
(0.980657 0.00279915 0)
(0.980393 0.00378223 0)
(1.00133 -0.00226008 0)
(0.997339 -0.00214833 0)
(0.994371 0.000340958 0)
(0.995574 0.00387289 0)
(1.00411 0.0108038 0)
(1.00954 -0.00456284 0)
(1.00381 -0.000697289 0)
(1.00661 -0.00720866 0)
(1.00205 -0.0113889 0)
(0.99635 -0.00997196 0)
(0.994646 -0.0133346 0)
(0.9911 -0.00990163 0)
(0.989115 -0.0101393 0)
(0.986551 -0.00782056 0)
(0.985237 -0.00557417 0)
(0.983851 -0.00383766 0)
(0.982592 -0.0014727 0)
(0.981752 0.000393293 0)
(0.981064 0.00214873 0)
(0.980828 0.00333819 0)
(1.00126 -0.00215045 0)
(0.997434 -0.00221409 0)
(0.994446 0.000518128 0)
(0.995821 0.00359213 0)
(1.00386 0.0104378 0)
(1.00934 -0.00439432 0)
(1.00378 -0.000890144 0)
(1.00628 -0.006957 0)
(1.00209 -0.0111158 0)
(0.996311 -0.009857 0)
(0.994765 -0.012711 0)
(0.991336 -0.0100077 0)
(0.989257 -0.00933237 0)
(0.986918 -0.00775499 0)
(0.985574 -0.00534442 0)
(0.984264 -0.00393527 0)
(0.983028 -0.00138292 0)
(0.98215 0.000196075 0)
(0.981389 0.00259433 0)
(0.981342 0.00360298 0)
(1.00121 -0.00206523 0)
(0.997538 -0.00223067 0)
(0.994544 0.00062243 0)
(0.996023 0.00339873 0)
(1.00363 0.00997236 0)
(1.00911 -0.00405957 0)
(1.00372 -0.0011354 0)
(1.00598 -0.00668662 0)
(1.00208 -0.0106697 0)
(0.996337 -0.00982075 0)
(0.99484 -0.0120315 0)
(0.991617 -0.010077 0)
(0.989484 -0.00864352 0)
(0.987245 -0.00765785 0)
(0.985888 -0.00501587 0)
(0.984685 -0.0039239 0)
(0.98348 -0.00117907 0)
(0.982798 4.89001e-05 0)
(0.982003 0.00311765 0)
(0.981737 0.00394133 0)
(1.00115 -0.00203271 0)
(0.997639 -0.00216154 0)
(0.994668 0.000560566 0)
(0.996186 0.00345858 0)
(1.00344 0.00916977 0)
(1.00883 -0.0033031 0)
(1.00367 -0.00183912 0)
(1.00568 -0.00574732 0)
(1.00206 -0.0111051 0)
(0.996342 -0.00889414 0)
(0.994948 -0.0121473 0)
(0.991909 -0.0094388 0)
(0.989721 -0.00873089 0)
(0.987632 -0.00685774 0)
(0.986303 -0.00469449 0)
(0.985128 -0.00288968 0)
(0.983947 -0.000822022 0)
(0.983322 0.000830334 0)
(0.982513 0.00222125 0)
(0.982221 0.00333612 0)
(1.00109 -0.00191177 0)
(0.997763 -0.00223546 0)
(0.994794 0.000715969 0)
(0.996344 0.00323531 0)
(1.00324 0.00879398 0)
(1.00854 -0.00322728 0)
(1.00362 -0.00189554 0)
(1.00537 -0.00566879 0)
(1.00201 -0.0106234 0)
(0.9964 -0.00886882 0)
(0.995014 -0.0114756 0)
(0.992227 -0.00944519 0)
(0.99004 -0.00808094 0)
(0.988072 -0.00675135 0)
(0.986772 -0.00451549 0)
(0.985649 -0.00309893 0)
(0.984492 -0.000759794 0)
(0.983736 0.000628383 0)
(0.982866 0.00278372 0)
(0.982782 0.00372313 0)
(1.00103 -0.00181663 0)
(0.997879 -0.00226106 0)
(0.994935 0.000797272 0)
(0.996498 0.00308998 0)
(1.00305 0.00830656 0)
(1.00823 -0.00293481 0)
(1.00353 -0.00203514 0)
(1.00512 -0.00551001 0)
(1.00194 -0.010104 0)
(0.996449 -0.00881859 0)
(0.9951 -0.0107633 0)
(0.99258 -0.00949466 0)
(0.990325 -0.00751973 0)
(0.988451 -0.0065787 0)
(0.987179 -0.00413422 0)
(0.986136 -0.00317843 0)
(0.985007 -0.000591434 0)
(0.984478 0.000503258 0)
(0.983602 0.00349044 0)
(0.983184 0.00427792 0)
(1.00097 -0.00180762 0)
(0.997977 -0.00215 0)
(0.995103 0.000630843 0)
(0.996631 0.00329471 0)
(1.00289 0.00739473 0)
(1.00791 -0.00210774 0)
(1.00347 -0.00274955 0)
(1.00482 -0.00458073 0)
(1.00189 -0.0105719 0)
(0.996525 -0.00782061 0)
(0.995155 -0.0107969 0)
(0.992891 -0.0087321 0)
(0.990719 -0.00772753 0)
(0.98889 -0.00566783 0)
(0.987629 -0.00398461 0)
(0.986634 -0.00208065 0)
(0.985563 -0.000285246 0)
(0.985071 0.00141312 0)
(0.984186 0.00244753 0)
(0.98369 0.00354558 0)
(1.0009 -0.00164545 0)
(0.998096 -0.00227778 0)
(0.995257 0.000819607 0)
(0.996789 0.00302487 0)
(1.00271 0.0071386 0)
(1.00759 -0.00223381 0)
(1.00341 -0.00254111 0)
(1.00455 -0.00477425 0)
(1.00183 -0.00977735 0)
(0.996597 -0.00797772 0)
(0.995245 -0.00997231 0)
(0.99323 -0.00865877 0)
(0.991082 -0.00705588 0)
(0.989371 -0.00577843 0)
(0.988183 -0.00398637 0)
(0.987241 -0.00240092 0)
(0.986168 -0.000214441 0)
(0.985495 0.00120499 0)
(0.984529 0.00302687 0)
(0.984267 0.00405552 0)
(1.00083 -0.00159128 0)
(0.998214 -0.0022391 0)
(0.995414 0.000786916 0)
(0.996961 0.00302297 0)
(1.00252 0.00660836 0)
(1.00729 -0.0020144 0)
(1.00331 -0.00247538 0)
(1.00432 -0.00481966 0)
(1.00174 -0.00908847 0)
(0.996706 -0.0081103 0)
(0.995299 -0.00892261 0)
(0.993575 -0.00875457 0)
(0.991447 -0.00645985 0)
(0.989732 -0.00594106 0)
(0.988602 -0.00382489 0)
(0.98781 -0.00265163 0)
(0.986778 4.34173e-05 0)
(0.986319 0.00123299 0)
(0.98539 0.00403977 0)
(0.98469 0.00491384 0)
(1.00078 -0.00155277 0)
(0.998294 -0.00216256 0)
(0.995603 0.000636549 0)
(0.997102 0.00317134 0)
(1.00237 0.00587054 0)
(1.00697 -0.00143657 0)
(1.00324 -0.00295322 0)
(1.00407 -0.00415589 0)
(1.00167 -0.00914415 0)
(0.996828 -0.00743817 0)
(0.995384 -0.00868831 0)
(0.993857 -0.00810231 0)
(0.991804 -0.00652681 0)
(0.990159 -0.00532013 0)
(0.989149 -0.00351914 0)
(0.988464 -0.00201367 0)
(0.987464 0.000223174 0)
(0.987005 0.00175485 0)
(0.986016 0.00348614 0)
(0.985129 0.00449033 0)
(1.00073 -0.00138048 0)
(0.99839 -0.00229401 0)
(0.995782 0.000788075 0)
(0.997259 0.00294922 0)
(1.0022 0.00561268 0)
(1.00665 -0.0015104 0)
(1.00319 -0.00284663 0)
(1.00383 -0.00406715 0)
(1.00161 -0.00872178 0)
(0.996947 -0.00712982 0)
(0.995462 -0.00815203 0)
(0.994158 -0.00772217 0)
(0.992216 -0.00617441 0)
(0.990615 -0.00482888 0)
(0.989628 -0.00318815 0)
(0.989051 -0.00189713 0)
(0.988126 0.000249843 0)
(0.987643 0.00162971 0)
(0.986635 0.00317075 0)
(0.985628 0.00423033 0)
(1.00068 -0.00139252 0)
(0.998488 -0.00215295 0)
(0.99596 0.000626653 0)
(0.99742 0.00304881 0)
(1.00204 0.00507482 0)
(1.00636 -0.0012432 0)
(1.00312 -0.00293654 0)
(1.0036 -0.00387061 0)
(1.00155 -0.00826935 0)
(0.997098 -0.00687635 0)
(0.995563 -0.00754929 0)
(0.994441 -0.0073264 0)
(0.992607 -0.00589597 0)
(0.991059 -0.00452332 0)
(0.99011 -0.00288792 0)
(0.98967 -0.00165428 0)
(0.988779 0.000356564 0)
(0.988267 0.00160912 0)
(0.98726 0.00307749 0)
(0.986134 0.00408146 0)
(1.00063 -0.00125668 0)
(0.998583 -0.00220249 0)
(0.996145 0.000614392 0)
(0.997577 0.00297314 0)
(1.00187 0.00471857 0)
(1.00605 -0.00113019 0)
(1.00307 -0.00297595 0)
(1.0034 -0.00366132 0)
(1.00149 -0.00782433 0)
(0.997256 -0.00662456 0)
(0.995663 -0.00705684 0)
(0.99471 -0.00695011 0)
(0.993024 -0.00553694 0)
(0.991551 -0.00415852 0)
(0.990602 -0.00250932 0)
(0.99024 -0.0014663 0)
(0.989403 0.000376183 0)
(0.988879 0.00158578 0)
(0.98787 0.00298148 0)
(0.986646 0.0039121 0)
(1.00058 -0.00120422 0)
(0.99868 -0.00215683 0)
(0.996331 0.000552239 0)
(0.997735 0.00290799 0)
(1.00172 0.00439277 0)
(1.00576 -0.0010064 0)
(1.00301 -0.00291691 0)
(1.00321 -0.00352807 0)
(1.00144 -0.00741222 0)
(0.997425 -0.00636481 0)
(0.995784 -0.00650133 0)
(0.994991 -0.00648154 0)
(0.993438 -0.00518673 0)
(0.992027 -0.00395026 0)
(0.991064 -0.00226185 0)
(0.990795 -0.00133466 0)
(0.990032 0.000485972 0)
(0.9895 0.00163877 0)
(0.988476 0.00289315 0)
(0.987128 0.00369115 0)
(1.00054 -0.00112586 0)
(0.998774 -0.00212944 0)
(0.996522 0.000498311 0)
(0.997891 0.0028231 0)
(1.00157 0.00411175 0)
(1.00547 -0.000914036 0)
(1.00295 -0.00289939 0)
(1.00303 -0.00338085 0)
(1.00138 -0.00691515 0)
(0.997614 -0.00607669 0)
(0.995917 -0.00602235 0)
(0.995239 -0.00611806 0)
(0.993825 -0.00490376 0)
(0.992528 -0.003717 0)
(0.991566 -0.00190751 0)
(0.991363 -0.0010754 0)
(0.990671 0.000543391 0)
(0.990075 0.00157318 0)
(0.989009 0.002691 0)
(0.987605 0.00348071 0)
(1.00049 -0.00105135 0)
(0.998871 -0.00209608 0)
(0.996713 0.000429121 0)
(0.998047 0.00271224 0)
(1.00143 0.00384981 0)
(1.00518 -0.000796974 0)
(1.0029 -0.00279858 0)
(1.00288 -0.0032279 0)
(1.00133 -0.00648953 0)
(0.997788 -0.00587997 0)
(0.996049 -0.0055816 0)
(0.995499 -0.00566138 0)
(0.99424 -0.00449728 0)
(0.993057 -0.00342064 0)
(0.992064 -0.00163928 0)
(0.991859 -0.000931402 0)
(0.991231 0.000493646 0)
(0.990635 0.00155542 0)
(0.989597 0.0026681 0)
(0.988129 0.00346105 0)
(1.00045 -0.00098793 0)
(0.998963 -0.0020506 0)
(0.996908 0.000355651 0)
(0.998201 0.00260492 0)
(1.0013 0.00360845 0)
(1.00491 -0.000662216 0)
(1.00285 -0.00271417 0)
(1.00273 -0.00309769 0)
(1.00127 -0.00607199 0)
(0.997991 -0.00558875 0)
(0.996231 -0.0051187 0)
(0.995753 -0.00521929 0)
(0.994616 -0.00417963 0)
(0.993555 -0.00326306 0)
(0.992553 -0.00147729 0)
(0.99236 -0.000748396 0)
(0.991862 0.000650739 0)
(0.991262 0.00171093 0)
(0.990171 0.00266205 0)
(0.988606 0.00338276 0)
(1.00041 -0.000918335 0)
(0.999059 -0.00201114 0)
(0.997104 0.00029191 0)
(0.998356 0.00247863 0)
(1.00117 0.00339339 0)
(1.00464 -0.000573253 0)
(1.00279 -0.00262086 0)
(1.0026 -0.00293477 0)
(1.00123 -0.00561681 0)
(0.998183 -0.00528099 0)
(0.996393 -0.00474451 0)
(0.995994 -0.0048262 0)
(0.994992 -0.00383274 0)
(0.994081 -0.00303057 0)
(0.993095 -0.0012548 0)
(0.992889 -0.000470361 0)
(0.992452 0.000722454 0)
(0.991788 0.00160888 0)
(0.99069 0.00246577 0)
(0.989093 0.00324798 0)
(1.00038 -0.000862448 0)
(0.99915 -0.00193904 0)
(0.997305 0.000193408 0)
(0.998513 0.00234141 0)
(1.00106 0.00317799 0)
(1.00438 -0.000410305 0)
(1.00274 -0.00250603 0)
(1.00249 -0.00279291 0)
(1.00118 -0.00523052 0)
(0.998387 -0.00501244 0)
(0.996601 -0.00439268 0)
(0.996255 -0.0044118 0)
(0.995353 -0.00343937 0)
(0.994577 -0.0027702 0)
(0.993633 -0.00110416 0)
(0.993364 -0.000302852 0)
(0.992975 0.000702095 0)
(0.992338 0.00159037 0)
(0.991291 0.00247868 0)
(0.989624 0.00324979 0)
(1.00034 -0.000795866 0)
(0.999242 -0.00188627 0)
(0.997503 0.000119708 0)
(0.998671 0.00223105 0)
(1.00096 0.0029108 0)
(1.00412 -0.00028356 0)
(1.00267 -0.00237349 0)
(1.00239 -0.00264213 0)
(1.00116 -0.00483231 0)
(0.998585 -0.00470213 0)
(0.996796 -0.00402612 0)
(0.996514 -0.00402248 0)
(0.99571 -0.00307711 0)
(0.995066 -0.00252319 0)
(0.994181 -0.000983174 0)
(0.993859 -0.000100694 0)
(0.993533 0.000840226 0)
(0.992916 0.00176189 0)
(0.991854 0.00253069 0)
(0.990099 0.00317267 0)
(1.00031 -0.000770327 0)
(0.999331 -0.00175641 0)
(0.997704 -2.41202e-05 0)
(0.998816 0.00212682 0)
(1.00087 0.00272156 0)
(1.0039 -0.000120557 0)
(1.00261 -0.00223143 0)
(1.0023 -0.00244405 0)
(1.00111 -0.00444286 0)
(0.998787 -0.00442199 0)
(0.997023 -0.00369768 0)
(0.996781 -0.00368175 0)
(0.996048 -0.00275127 0)
(0.995518 -0.00226192 0)
(0.99474 -0.000876511 0)
(0.994365 9.1515e-05 0)
(0.99408 0.000934465 0)
(0.993458 0.0017984 0)
(0.992363 0.00240082 0)
(0.990573 0.0030087 0)
(1.00027 -0.000695791 0)
(0.999412 -0.00172664 0)
(0.997898 -6.37585e-05 0)
(0.998986 0.00189914 0)
(1.00079 0.00258832 0)
(1.00366 -0.000106849 0)
(1.00255 -0.00205118 0)
(1.00224 -0.00222557 0)
(1.0011 -0.00400399 0)
(0.998992 -0.00408505 0)
(0.997248 -0.00336573 0)
(0.99706 -0.00335207 0)
(0.996414 -0.00242799 0)
(0.995976 -0.0019455 0)
(0.995312 -0.000755462 0)
(0.994886 0.000240919 0)
(0.99461 0.00100136 0)
(0.993958 0.00176869 0)
(0.992854 0.00232836 0)
(0.991067 0.00296057 0)
(1.00024 -0.000661497 0)
(0.999496 -0.00161969 0)
(0.998098 -0.000172835 0)
(0.999141 0.00172495 0)
(1.00072 0.00236171 0)
(1.00345 -3.73206e-05 0)
(1.00251 -0.00186986 0)
(1.00218 -0.00198462 0)
(1.00106 -0.00358846 0)
(0.999181 -0.00377442 0)
(0.997481 -0.00302858 0)
(0.997333 -0.00300011 0)
(0.996762 -0.00211371 0)
(0.99638 -0.00161406 0)
(0.995844 -0.000628645 0)
(0.995393 0.00036208 0)
(0.995101 0.0010748 0)
(0.994457 0.00180603 0)
(0.993381 0.00240212 0)
(0.991574 0.00297263 0)
(1.00021 -0.000638076 0)
(0.999567 -0.00147517 0)
(0.99828 -0.000310775 0)
(0.999309 0.00159427 0)
(1.00067 0.00219118 0)
(1.00325 0.000141663 0)
(1.00246 -0.0016975 0)
(1.00213 -0.00180313 0)
(1.00103 -0.00320114 0)
(0.999359 -0.00347454 0)
(0.997704 -0.00272506 0)
(0.997597 -0.00269573 0)
(0.997124 -0.00187395 0)
(0.996784 -0.00132125 0)
(0.996367 -0.000503271 0)
(0.995916 0.000448953 0)
(0.995622 0.00114676 0)