/*--------------------------------*- C++ -*----------------------------------*\
| =========                 |                                                 |
| \\      /  F ield         | OpenFOAM: The Open Source CFD Toolbox           |
|  \\    /   O peration     | Version:  v2012                                 |
|   \\  /    A nd           | Website:  www.openfoam.com                      |
|    \\/     M anipulation  |                                                 |
\*---------------------------------------------------------------------------*/
FoamFile
{
    version     2.0;
    format      ascii;
    class       surfaceScalarField;
    location    "2.4";
    object      phi;
}
// * * * * * * * * * * * * * * * * * * * * * * * * * * * * * * * * * * * * * //

dimensions      [0 3 -1 0 0 0 0];
oriented        oriented;


internalField   nonuniform List<scalar> 
13830
(
9.09678e-07
-1.19392e-06
9.47539e-07
2.1329e-07
9.61103e-07
-1.22073e-06
9.86695e-07
1.09441e-06
9.93726e-07
1.65015e-06
9.93924e-07
1.83487e-06
9.73835e-07
6.46094e-07
9.44434e-07
-1.05637e-06
9.5215e-07
-1.38078e-06
8.76419e-07
-1.98335e-06
9.23823e-07
-1.83496e-06
9.00456e-07
-1.30786e-06
9.27817e-07
-9.2164e-07
9.33201e-07
-5.98094e-07
9.47793e-07
-3.67078e-07
9.55541e-07
-2.0352e-07
9.62495e-07
-8.56577e-08
9.68086e-07
-7.42155e-09
9.69233e-07
3.30995e-08
6.11361e-08
9.62178e-07
9.4747e-07
-1.16886e-06
9.85241e-07
1.75518e-07
1.00192e-06
-1.23741e-06
1.02462e-06
1.07171e-06
1.03178e-06
1.64299e-06
1.0328e-06
1.83385e-06
1.0111e-06
6.67795e-07
9.90084e-07
-1.03536e-06
9.80015e-07
-1.37071e-06
9.32762e-07
-1.93609e-06
9.60891e-07
-1.86309e-06
9.42838e-07
-1.2898e-06
9.64328e-07
-9.4313e-07
9.72661e-07
-6.06427e-07
9.82224e-07
-3.76641e-07
9.96189e-07
-2.17485e-07
9.94393e-07
-8.38609e-08
1.0099e-06
-2.29329e-08
9.97997e-07
4.50069e-08
4.77763e-08
1.01136e-06
9.86098e-07
-1.14551e-06
1.02526e-06
1.36356e-07
1.04467e-06
-1.25682e-06
1.06605e-06
1.05033e-06
1.07138e-06
1.63766e-06
1.07208e-06
1.83314e-06
1.05289e-06
6.86989e-07
1.03174e-06
-1.01421e-06
1.01529e-06
-1.35426e-06
9.84846e-07
-1.90565e-06
9.89255e-07
-1.8675e-06
9.89383e-07
-1.28993e-06
9.98306e-07
-9.52053e-07
1.01625e-06
-6.24369e-07
1.01775e-06
-3.7814e-07
1.0372e-06
-2.36938e-07
1.03143e-06
-7.80885e-08
1.04696e-06
-3.84669e-08
1.03851e-06
5.34606e-08
4.11361e-08
1.04515e-06
1.02517e-06
-1.1229e-06
1.06472e-06
9.68074e-08
1.08842e-06
-1.28052e-06
1.10959e-06
1.02915e-06
1.11396e-06
1.6333e-06
1.11346e-06
1.83363e-06
1.09573e-06
7.04721e-07
1.07463e-06
-9.93107e-07
1.05333e-06
-1.33296e-06
1.03046e-06
-1.88278e-06
1.0192e-06
-1.85624e-06
1.03125e-06
-1.30198e-06
1.03248e-06
-9.53281e-07
1.05625e-06
-6.48137e-07
1.05732e-06
-3.79212e-07
1.07646e-06
-2.56074e-07
1.07466e-06
-7.62964e-08
1.08608e-06
-4.98811e-08
1.08371e-06
5.58256e-08
3.84959e-08
1.08635e-06
1.06485e-06
-1.1002e-06
1.10273e-06
5.89245e-08
1.13162e-06
-1.3094e-06
1.15436e-06
1.00641e-06
1.15896e-06
1.6287e-06
1.15711e-06
1.83548e-06
1.14033e-06
7.21492e-07
1.11813e-06
-9.70905e-07
1.09482e-06
-1.30965e-06
1.07439e-06
-1.86235e-06
1.0546e-06
-1.83645e-06
1.07104e-06
-1.31843e-06
1.06983e-06
-9.52072e-07
1.09503e-06
-6.73335e-07
1.09922e-06
-3.83405e-07
1.11739e-06
-2.74242e-07
1.12007e-06
-7.89819e-08
1.12967e-06
-5.94808e-08
1.1309e-06
5.45954e-08
3.67234e-08
1.13268e-06
1.10608e-06
-1.07744e-06
1.13979e-06
2.52202e-08
1.17326e-06
-1.34288e-06
1.19966e-06
9.80016e-07
1.20522e-06
1.62314e-06
1.20269e-06
1.83801e-06
1.18604e-06
7.38148e-07
1.16336e-06
-9.48231e-07
1.13825e-06
-1.28453e-06
1.11725e-06
-1.84135e-06
1.09409e-06
-1.81329e-06
1.11077e-06
-1.3351e-06
1.10996e-06
-9.51266e-07
1.1347e-06
-6.98069e-07
1.14157e-06
-3.90277e-07
1.15973e-06
-2.92401e-07
1.16536e-06
-8.46168e-08
1.17522e-06
-6.93413e-08
1.17865e-06
5.11707e-08
3.42603e-08
1.18111e-06
1.14997e-06
-1.05571e-06
1.17729e-06
-2.09589e-09
1.21303e-06
-1.37862e-06
1.24498e-06
9.48068e-07
1.25188e-06
1.61625e-06
1.24943e-06
1.84046e-06
1.23266e-06
7.54918e-07
1.21028e-06
-9.25857e-07
1.18346e-06
-1.2577e-06
1.16148e-06
-1.81937e-06
1.13665e-06
-1.78846e-06
1.15185e-06
-1.3503e-06
1.15202e-06
-9.51436e-07
1.17601e-06
-7.22058e-07
1.18432e-06
-3.98589e-07
1.20293e-06
-3.11013e-07
1.21045e-06
-9.21386e-08
1.2212e-06
-8.00853e-08
1.2264e-06
4.59655e-08
3.06487e-08
1.23002e-06
1.19699e-06
-1.03652e-06
1.21655e-06
-2.16527e-08
1.25113e-06
-1.41321e-06
1.28957e-06
9.09627e-07
1.29824e-06
1.60758e-06
1.29664e-06
1.84205e-06
1.27996e-06
7.716e-07
1.25877e-06
-9.04671e-07
1.23029e-06
-1.22922e-06
1.20751e-06
-1.7966e-06
1.18129e-06
-1.76224e-06
1.19458e-06
-1.3636e-06
1.19555e-06
-9.52405e-07
1.21905e-06
-7.45556e-07
1.22818e-06
-4.07721e-07
1.24719e-06
-3.30025e-07
1.25619e-06
-1.01134e-07
1.26759e-06
-9.14848e-08
1.27446e-06
3.90957e-08
2.59957e-08
1.27911e-06
1.24678e-06
-1.02095e-06
1.25827e-06
-3.31446e-08
1.28809e-06
-1.44303e-06
1.33229e-06
8.65427e-07
1.34337e-06
1.59651e-06
1.34374e-06
1.84168e-06
1.32776e-06
7.87579e-07
1.30852e-06
-8.85426e-07
1.27882e-06
-1.19952e-06
1.2557e-06
-1.77348e-06
1.22789e-06
-1.73443e-06
1.239e-06
-1.37471e-06
1.24034e-06
-9.53749e-07
1.26348e-06
-7.6869e-07
1.27338e-06
-4.1762e-07
1.29261e-06
-3.49255e-07
1.3031e-06
-1.11624e-07
1.31474e-06
-1.03133e-07
1.32321e-06
3.06314e-08
2.05577e-08
1.32865e-06
1.29846e-06
-1.00913e-06
1.30264e-06
-3.73181e-08
1.32469e-06
-1.46508e-06
1.37202e-06
8.18095e-07
1.3862e-06
1.58233e-06
1.39026e-06
1.83762e-06
1.37601e-06
8.01834e-07
1.35927e-06
-8.68687e-07
1.32902e-06
-1.16927e-06
1.30606e-06
-1.75052e-06
1.27649e-06
-1.70487e-06
1.28509e-06
-1.3833e-06
1.28621e-06
-9.54877e-07
1.30873e-06
-7.91207e-07
1.31949e-06
-4.28381e-07
1.33873e-06
-3.68492e-07
1.35095e-06
-1.23849e-07
1.36256e-06
-1.14742e-07
1.37256e-06
2.0631e-08
1.45346e-08
1.37859e-06
1.35124e-06
-1.00036e-06
1.34967e-06
-3.57442e-08
1.36194e-06
-1.47735e-06
1.40851e-06
7.71525e-07
1.42635e-06
1.56449e-06
1.43616e-06
1.82781e-06
1.42484e-06
8.13153e-07
1.41088e-06
-8.54725e-07
1.38081e-06
-1.13921e-06
1.35857e-06
-1.72827e-06
1.32723e-06
-1.67354e-06
1.33296e-06
-1.38902e-06
1.33311e-06
-9.55032e-07
1.35433e-06
-8.12428e-07
1.36587e-06
-4.3992e-07
1.38478e-06
-3.87403e-07
1.39895e-06
-1.38014e-07
1.4104e-06
-1.2619e-07
1.42184e-06
9.1867e-09
8.0293e-09
1.42835e-06
1.40479e-06
-9.93496e-07
1.39944e-06
-3.0396e-08
1.40117e-06
-1.47907e-06
1.44316e-06
7.29541e-07
1.46484e-06
1.54281e-06
1.48207e-06
1.81057e-06
1.47467e-06
8.20557e-07
1.46335e-06
-8.43404e-07
1.43413e-06
-1.10999e-06
1.4131e-06
-1.70725e-06
1.38018e-06
-1.64062e-06
1.38282e-06
-1.39166e-06
1.38121e-06
-9.53422e-07
1.40012e-06
-8.31337e-07
1.41205e-06
-4.51849e-07
1.43006e-06
-4.05411e-07
1.44611e-06
-1.54073e-07
1.45733e-06
-1.37406e-07
1.47005e-06
-3.53199e-09
1.09117e-09
1.47699e-06
1.45927e-06
-9.87519e-07
1.45203e-06
-2.31545e-08
1.44385e-06
-1.47089e-06
1.47889e-06
6.94496e-07
1.50406e-06
1.51764e-06
1.5292e-06
1.78543e-06
1.52604e-06
8.23715e-07
1.5168e-06
-8.34167e-07
1.48895e-06
-1.08213e-06
1.46948e-06
-1.68778e-06
1.43533e-06
-1.60646e-06
1.43489e-06
-1.39122e-06
1.43088e-06
-9.49415e-07
1.44633e-06
-8.46785e-07
1.45799e-06
-4.63502e-07
1.47424e-06
-4.21664e-07
1.49175e-06
-1.71589e-07
1.50258e-06
-1.48235e-07
1.51625e-06
-1.72028e-08
-6.21081e-09
1.52356e-06
1.51511e-06
-9.81753e-07
1.50739e-06
-1.54334e-08
1.49124e-06
-1.45475e-06
1.51916e-06
6.66581e-07
1.54688e-06
1.48992e-06
1.57882e-06
1.75348e-06
1.57949e-06
8.2305e-07
1.57149e-06
-8.26168e-07
1.54537e-06
-1.05601e-06
1.52747e-06
-1.66989e-06
1.49257e-06
-1.57156e-06
1.4893e-06
-1.38795e-06
1.48263e-06
-9.42738e-07
1.4936e-06
-8.57756e-07
1.5042e-06
-4.741e-07
1.51767e-06
-4.35134e-07
1.53577e-06
-1.89691e-07
1.54587e-06
-1.58342e-07
1.55997e-06
-3.12955e-08
-1.37097e-08
1.56747e-06
1.57276e-06
-9.75904e-07
1.56538e-06
-8.04675e-09
1.544e-06
-1.43337e-06
1.56641e-06
6.44172e-07
1.59533e-06
1.461e-06
1.63183e-06
1.71698e-06
1.63539e-06
8.19485e-07
1.62775e-06
-8.18522e-07
1.60355e-06
-1.03181e-06
1.58689e-06
-1.65323e-06
1.55179e-06
-1.53645e-06
1.54606e-06
-1.38223e-06
1.5369e-06
-9.33574e-07
1.54275e-06
-8.63606e-07
1.55161e-06
-4.82961e-07
1.56134e-06
-4.44867e-07
1.57882e-06
-2.07172e-07
1.5877e-06
-1.67216e-07
1.60148e-06
-4.508e-08
-2.10938e-08
1.60887e-06
1.63256e-06
-9.69924e-07
1.62582e-06
-1.30793e-09
1.60193e-06
-1.40947e-06
1.6212e-06
6.24895e-07
1.64989e-06
1.43232e-06
1.68842e-06
1.67845e-06
1.69391e-06
8.1399e-07
1.68594e-06
-8.10555e-07
1.66372e-06
-1.00959e-06
1.64768e-06
-1.63719e-06
1.61291e-06
-1.50169e-06
1.6051e-06
-1.37441e-06
1.59405e-06
-9.22525e-07
1.59462e-06
-8.64181e-07
1.60134e-06
-4.8968e-07
1.6067e-06
-4.50229e-07
1.62232e-06
-2.22784e-07
1.62938e-06
-1.74284e-07
1.64203e-06
-5.77259e-08
-2.79335e-08
1.64887e-06
1.69466e-06
-9.63838e-07
1.68861e-06
4.74947e-09
1.66415e-06
-1.38501e-06
1.68232e-06
6.06725e-07
1.70961e-06
1.40503e-06
1.74828e-06
1.63978e-06
1.75506e-06
8.0721e-07
1.74644e-06
-8.01936e-07
1.72608e-06
-9.89223e-07
1.70992e-06
-1.62103e-06
1.67597e-06
-1.46773e-06
1.66631e-06
-1.36475e-06
1.65424e-06
-9.10461e-07
1.64988e-06
-8.59817e-07
1.65443e-06
-4.9423e-07
1.65527e-06
-4.51072e-07
1.66805e-06
-2.35562e-07
1.67286e-06
-1.79099e-07
1.68363e-06
-6.84942e-08
-3.37781e-08
1.68948e-06
1.75912e-06
-9.57636e-07
1.75371e-06
1.01595e-08
1.72957e-06
-1.36088e-06
1.74773e-06
5.88566e-07
1.77298e-06
1.37978e-06
1.81098e-06
1.60178e-06
1.81885e-06
7.99338e-07
1.80956e-06
-7.92643e-07
1.79082e-06
-9.7048e-07
1.77387e-06
-1.60409e-06
1.7411e-06
-1.43496e-06
1.72965e-06
-1.35331e-06
1.71748e-06
-8.98288e-07
1.70888e-06
-8.51219e-07
1.71158e-06
-4.96933e-07
1.70828e-06
-4.47769e-07
1.71777e-06
-2.45054e-07
1.72018e-06
-1.81502e-07
1.7286e-06
-7.692e-08
-3.82948e-08
1.73312e-06
1.82594e-06
-9.51241e-07
1.8212e-06
1.49002e-08
1.79734e-06
-1.33703e-06
1.81572e-06
5.70187e-07
1.83883e-06
1.35667e-06
1.87625e-06
1.56436e-06
1.88533e-06
7.90252e-07
1.87552e-06
-7.82833e-07
1.85808e-06
-9.53041e-07
1.83983e-06
-1.58583e-06
1.80851e-06
-1.40364e-06
1.79519e-06
-1.33998e-06
1.78366e-06
-8.8676e-07
1.77171e-06
-8.39272e-07
1.77308e-06
-4.98304e-07
1.76644e-06
-4.41127e-07
1.77272e-06
-2.51335e-07
1.77291e-06
-1.81695e-07
1.77891e-06
-8.29138e-08
-4.13628e-08
1.78198e-06
1.89518e-06
-9.44524e-07
1.89121e-06
1.88682e-08
1.86704e-06
-1.31285e-06
1.88543e-06
5.51799e-07
1.90671e-06
1.33539e-06
1.9441e-06
1.52697e-06
1.95461e-06
7.7974e-07
1.94446e-06
-7.72684e-07
1.928e-06
-9.36583e-07
1.9081e-06
-1.56593e-06
1.87843e-06
-1.37398e-06
1.86303e-06
-1.32458e-06
1.85267e-06
-8.76398e-07
1.83826e-06
-8.24861e-07
1.83882e-06
-4.98863e-07
1.82986e-06
-4.32167e-07
1.83339e-06
-2.54865e-07
1.83185e-06
-1.80158e-07
1.83568e-06
-8.67427e-08
-4.30897e-08
1.83741e-06
1.96693e-06
-9.37346e-07
1.96388e-06
2.19092e-08
1.9387e-06
-1.28767e-06
1.95687e-06
5.33629e-07
1.97683e-06
1.31543e-06
2.01477e-06
1.48904e-06
2.02682e-06
7.67686e-07
2.01643e-06
-7.62293e-07
2.00069e-06
-9.20849e-07
1.97893e-06
-1.54416e-06
1.95104e-06
-1.34609e-06
1.93339e-06
-1.30693e-06
1.92447e-06
-8.67472e-07
1.90835e-06
-8.08743e-07
1.90847e-06
-4.98985e-07
1.89821e-06
-4.2191e-07
1.89962e-06
-2.56267e-07
1.89695e-06
-1.77487e-07
1.8991e-06
-8.88927e-08
-4.37594e-08
1.89977e-06
2.04128e-06
-9.29581e-07
2.03934e-06
2.38553e-08
2.0126e-06
-1.26094e-06
2.03051e-06
5.15719e-07
2.04969e-06
1.29625e-06
2.08852e-06
1.45021e-06
2.10207e-06
7.54137e-07
2.09142e-06
-7.51647e-07
2.07627e-06
-9.05695e-07
2.05252e-06
-1.52042e-06
2.02649e-06
-1.32006e-06
2.00651e-06
-1.28695e-06
1.99903e-06
-8.59999e-07
1.98181e-06
-7.91517e-07
1.98165e-06
-4.98829e-07
1.97096e-06
-4.11221e-07
1.97082e-06
-2.56127e-07
1.96757e-06
-1.74234e-07
1.96859e-06
-8.99112e-08
-4.37245e-08
1.96855e-06
2.11838e-06
-9.21123e-07
2.11769e-06
2.45454e-08
2.08909e-06
-1.23233e-06
2.10686e-06
4.9795e-07
2.12575e-06
1.27736e-06
2.16554e-06
1.41043e-06
2.18041e-06
7.3926e-07
2.16942e-06
-7.4065e-07
2.15483e-06
-8.91105e-07
2.12901e-06
-1.4946e-06
2.10487e-06
-1.29592e-06
2.08258e-06
-1.26466e-06
2.0764e-06
-8.53821e-07
2.05852e-06
-7.73634e-07
2.05806e-06
-4.98372e-07
2.04755e-06
-4.00715e-07
2.04634e-06
-2.5491e-07
2.0429e-06
-1.70801e-07
2.04326e-06
-9.02722e-08
-4.33134e-08
2.04285e-06
2.19834e-06
-9.11884e-07
2.19906e-06
2.38297e-08
2.16848e-06
-1.20176e-06
2.18628e-06
4.80158e-07
2.20523e-06
1.25841e-06
2.24591e-06
1.36974e-06
2.26191e-06
7.23266e-07
2.25042e-06
-7.29158e-07
2.2365e-06
-8.77185e-07
2.20852e-06
-1.46663e-06
2.18623e-06
-1.27362e-06
2.16177e-06
-1.24019e-06
2.15662e-06
-8.48666e-07
2.13842e-06
-7.55441e-07
2.13752e-06
-4.97468e-07
2.12757e-06
-3.90763e-07
2.1256e-06
-2.52938e-07
2.12221e-06
-1.6741e-07
2.12226e-06
-9.0329e-08
-4.27752e-08
2.12172e-06
2.28129e-06
-9.01782e-07
2.28355e-06
2.15725e-08
2.25104e-06
-1.16925e-06
2.26894e-06
4.62254e-07
2.28818e-06
1.23917e-06
2.32967e-06
1.32825e-06
2.3466e-06
7.06331e-07
2.33445e-06
-7.17011e-07
2.32141e-06
-8.64139e-07
2.29117e-06
-1.4364e-06
2.27063e-06
-1.25308e-06
2.24424e-06
-1.2138e-06
2.23977e-06
-8.442e-07
2.22153e-06
-7.37199e-07
2.21999e-06
-4.95928e-07
2.21075e-06
-3.8153e-07
2.20826e-06
-2.50446e-07
2.20496e-06
-1.64107e-07
2.20494e-06
-9.03102e-08
-4.2279e-08
2.20444e-06
2.36735e-06
-8.90747e-07
2.37126e-06
1.76636e-08
2.33694e-06
-1.13493e-06
2.35495e-06
4.4425e-07
2.37457e-06
1.21955e-06
2.41678e-06
1.28604e-06
2.43456e-06
6.88552e-07
2.42158e-06
-7.04031e-07
2.40966e-06
-8.52213e-07
2.37712e-06
-1.40386e-06
2.35813e-06
-1.23409e-06
2.33012e-06
-1.18578e-06
2.32595e-06
-8.40034e-07
2.30785e-06
-7.191e-07
2.30551e-06
-4.93588e-07
2.29696e-06
-3.72979e-07
2.29408e-06
-2.47571e-07
2.29094e-06
-1.60959e-07
2.29094e-06
-9.03106e-08
-4.19312e-08
2.29059e-06
2.45665e-06
-8.78717e-07
2.46227e-06
1.20388e-08
2.42634e-06
-1.099e-06
2.44435e-06
4.2624e-07
2.46436e-06
1.19954e-06
2.50727e-06
1.24313e-06
2.5259e-06
6.69923e-07
2.51189e-06
-6.90028e-07
2.50129e-06
-8.41605e-07
2.46654e-06
-1.36911e-06
2.44883e-06
-1.21638e-06
2.41953e-06
-1.15649e-06
2.41528e-06
-8.35785e-07
2.39742e-06
-7.01246e-07
2.39421e-06
-4.9037e-07
2.38614e-06
-3.64915e-07
2.3829e-06
-2.44332e-07
2.38017e-06
-1.58221e-07
2.38012e-06
-9.02635e-08
-4.17733e-08
2.37996e-06
2.54933e-06
-8.65648e-07
2.55667e-06
4.70104e-09
2.51934e-06
-1.06167e-06
2.53725e-06
4.08331e-07
2.55758e-06
1.1792e-06
2.60114e-06
1.19956e-06
2.62073e-06
6.50339e-07
2.60551e-06
-6.74815e-07
2.59634e-06
-8.32432e-07
2.55962e-06
-1.33239e-06
2.5428e-06
-1.19955e-06
2.51262e-06
-1.12631e-06
2.50784e-06
-8.31005e-07
2.49035e-06
-6.83752e-07
2.48612e-06
-4.86145e-07
2.4783e-06
-3.57096e-07
2.47765e-06
-2.43677e-07
2.47341e-06
-1.53979e-07
2.47247e-06
-8.93287e-08
-4.17755e-08
2.47247e-06
2.64555e-06
-8.51519e-07
2.65452e-06
-4.2649e-09
2.61603e-06
-1.02318e-06
2.63377e-06
3.90593e-07
2.65434e-06
1.15863e-06
2.69846e-06
1.15544e-06
2.71918e-06
6.29621e-07
2.70263e-06
-6.58258e-07
2.69488e-06
-8.24691e-07
2.65652e-06
-1.29403e-06
2.64011e-06
-1.18314e-06
2.60959e-06
-1.09579e-06
2.60371e-06
-8.25126e-07
2.58689e-06
-6.66926e-07
2.58151e-06
-4.80768e-07
2.57283e-06
-3.48419e-07
2.5687e-06
-2.39543e-07
2.56644e-06
-1.5172e-07
2.56814e-06
-9.1026e-08
-4.18681e-08
2.56823e-06
2.74547e-06
-8.3634e-07
2.7559e-06
-1.46927e-08
2.71649e-06
-9.8376e-07
2.73406e-06
3.73021e-07
2.75479e-06
1.13791e-06
2.79931e-06
1.11091e-06
2.8214e-06
6.07531e-07
2.8034e-06
-6.4026e-07
2.79696e-06
-8.18254e-07
2.75743e-06
-1.2545e-06
2.74082e-06
-1.16653e-06
2.71068e-06
-1.06564e-06
2.70287e-06
-8.17323e-07
2.6875e-06
-6.51552e-07
2.6805e-06
-4.7377e-07
2.67123e-06
-3.39152e-07
2.66555e-06
-2.33857e-07
2.66294e-06
-1.49113e-07
2.6674e-06
-9.54876e-08
-4.17018e-08
2.66724e-06
2.84927e-06
-8.20152e-07
2.86093e-06
-2.63498e-08
2.82079e-06
-9.43618e-07
2.83828e-06
3.55527e-07
2.85915e-06
1.11704e-06
2.90377e-06
1.06629e-06
2.92751e-06
5.83791e-07
2.90801e-06
-6.20758e-07
2.90267e-06
-8.12921e-07
2.86245e-06
-1.21428e-06
2.84509e-06
-1.14917e-06
2.81607e-06
-1.03662e-06
2.80558e-06
-8.06831e-07
2.79249e-06
-6.38467e-07
2.785e-06
-4.66276e-07
2.78165e-06
-3.358e-07
2.78057e-06
-2.32784e-07
2.78074e-06
-1.49275e-07
2.77069e-06
-8.54377e-08
-4.0497e-08
2.76948e-06
2.95711e-06
-8.03019e-07
2.96973e-06
-3.89676e-08
2.92901e-06
-9.02903e-07
2.94658e-06
3.37963e-07
2.96764e-06
1.09597e-06
3.01196e-06
1.02197e-06
3.03761e-06
5.58147e-07
3.01662e-06
-5.99768e-07
3.01211e-06
-8.08416e-07
2.97165e-06
-1.17382e-06
2.95317e-06
-1.13069e-06
2.9257e-06
-1.00915e-06
2.91242e-06
-7.93551e-07
2.90109e-06
-6.27139e-07
2.89366e-06
-4.58847e-07
2.89112e-06
-3.33258e-07
2.88319e-06
-2.24857e-07
2.8735e-06
-1.39577e-07
2.87657e-06
-8.85132e-08
-3.98626e-08
2.87594e-06
3.06916e-06
-7.8502e-07
3.08247e-06
-5.2277e-08
3.04127e-06
-8.61704e-07
3.05907e-06
3.20162e-07
3.08052e-06
1.07453e-06
3.12399e-06
9.78492e-07
3.15179e-06
5.30348e-07
3.12939e-06
-5.77361e-07
3.12542e-06
-8.04446e-07
3.08509e-06
-1.13349e-06
3.06536e-06
-1.11096e-06
3.0391e-06
-9.82892e-07
3.02448e-06
-7.7893e-07
3.01295e-06
-6.15616e-07
3.00512e-06
-4.51017e-07
3.00411e-06
-3.32244e-07
3.00229e-06
-2.23033e-07
3.00115e-06
-1.38441e-07
2.98741e-06
-7.47739e-08
-3.83084e-08
2.98586e-06
3.18558e-06
-7.66241e-07
3.19934e-06
-6.60357e-08
3.15771e-06
-8.20072e-07
3.17586e-06
3.02011e-07
3.19797e-06
1.05241e-06
3.23998e-06
9.36484e-07
3.27016e-06
5.00169e-07
3.24646e-06
-5.53656e-07
3.24276e-06
-8.00748e-07
3.2027e-06
-1.09343e-06
3.18221e-06
-1.09046e-06
3.15527e-06
-9.55955e-07
3.14234e-06
-7.65999e-07
3.1285e-06
-6.01779e-07
3.12086e-06
-4.43379e-07
3.10387e-06
-3.15248e-07
3.09599e-06
-2.1516e-07
3.09374e-06
-1.36183e-07
3.1002e-06
-8.12327e-08
-3.9062e-08
3.10095e-06
3.30653e-06
-7.46758e-07
3.32056e-06
-8.00704e-08
3.2785e-06
-7.78009e-07
3.29706e-06
2.8345e-07
3.32015e-06
1.02933e-06
3.3603e-06
8.96333e-07
3.39264e-06
4.67825e-07
3.36817e-06
-5.29188e-07
3.36404e-06
-7.96616e-07
3.32517e-06
-1.05456e-06
3.30306e-06
-1.06835e-06
3.27726e-06
-9.30161e-07
3.26273e-06
-7.51461e-07
3.24303e-06
-5.82085e-07
3.23109e-06
-4.31441e-07
3.22171e-06
-3.05859e-07
3.21428e-06
-2.0773e-07
3.21155e-06
-1.33458e-07
3.2189e-06
-8.85863e-08
-4.01256e-08
3.21997e-06
3.43216e-06
-7.26641e-07
3.44636e-06
-9.42666e-08
3.40388e-06
-7.35529e-07
3.42277e-06
2.64556e-07
3.4472e-06
1.0049e-06
3.48531e-06
8.5822e-07
3.51935e-06
4.33785e-07
3.49472e-06
-5.04551e-07
3.48943e-06
-7.91327e-07
3.45286e-06
-1.01799e-06
3.42778e-06
-1.04327e-06
3.40521e-06
-9.0759e-07
3.38561e-06
-7.31858e-07
3.37735e-06
-5.73832e-07
3.36916e-06
-4.23245e-07
3.3695e-06
-3.06206e-07
3.36761e-06
-2.05834e-07
3.36288e-06
-1.28727e-07
3.34455e-06
-7.02637e-08
-3.82735e-08
3.3427e-06
3.56264e-06
-7.05937e-07
3.57694e-06
-1.08568e-07
3.53409e-06
-6.92678e-07
3.55312e-06
2.45529e-07
3.57934e-06
9.78688e-07
3.61518e-06
8.22377e-07
3.65071e-06
3.98252e-07
3.62589e-06
-4.79731e-07
3.61981e-06
-7.85241e-07
3.58375e-06
-9.81931e-07
3.55922e-06
-1.01875e-06
3.53391e-06
-8.82276e-07
3.51943e-06
-7.17377e-07
3.50124e-06
-5.55641e-07
3.48648e-06
-4.08483e-07
3.4721e-06
-2.91827e-07
3.46531e-06
-1.99043e-07
3.46361e-06
-1.27031e-07
3.47092e-06
-7.75705e-08
-3.96634e-08
3.47231e-06
3.69811e-06
-6.84666e-07
3.71254e-06
-1.2299e-07
3.66936e-06
-6.49506e-07
3.68832e-06
2.26577e-07
3.71651e-06
9.50494e-07
3.75042e-06
7.88469e-07
3.78638e-06
3.62287e-07
3.76249e-06
-4.55842e-07
3.75443e-06
-7.77176e-07
3.72046e-06
-9.47959e-07
3.69468e-06
-9.92971e-07
3.66654e-06
-8.54135e-07
3.65161e-06
-7.02445e-07
3.63064e-06
-5.34677e-07
3.61774e-06
-3.95581e-07
3.60542e-06
-2.79504e-07
3.59806e-06
-1.91683e-07
3.59647e-06
-1.2545e-07
3.60492e-06
-8.60134e-08
-4.0826e-08
3.60608e-06
3.83877e-06
-6.62846e-07
3.85333e-06
-1.3755e-07
3.80997e-06
-6.06148e-07
3.82853e-06
2.08019e-07
3.85887e-06
9.2015e-07
3.89111e-06
7.56232e-07
3.92651e-06
3.26888e-07
3.90496e-06
-4.34296e-07
3.89305e-06
-7.6526e-07
3.86384e-06
-9.1875e-07
3.83181e-06
-9.60937e-07
3.81125e-06
-8.33581e-07
3.78499e-06
-6.7618e-07
3.77962e-06
-5.2931e-07
3.7755e-06
-3.91464e-07
3.77918e-06
-2.83181e-07
3.77672e-06
-1.89227e-07
3.7705e-06
-1.19222e-07
3.74783e-06
-6.33442e-08
-3.6756e-08
3.74376e-06
3.9848e-06
-6.40491e-07
3.9995e-06
-1.52251e-07
3.95622e-06
-5.62868e-07
3.97389e-06
1.90347e-07
4.00682e-06
8.87219e-07
4.03695e-06
7.26108e-07
4.07246e-06
2.91373e-07
4.0515e-06
-4.13334e-07
4.03915e-06
-7.52908e-07
4.00784e-06
-8.87443e-07
3.98025e-06
-9.33351e-07
3.94983e-06
-8.03161e-07
3.93478e-06
-6.61129e-07
3.91392e-06
-5.08447e-07
3.901e-06
-3.78548e-07
3.88765e-06
-2.69824e-07
3.88173e-06
-1.83314e-07
3.88057e-06
-1.18057e-07
3.88904e-06
-7.18194e-08
-3.7682e-08
3.88997e-06
4.13638e-06
-6.17592e-07
4.15127e-06
-1.67137e-07
4.10825e-06
-5.19854e-07
4.12483e-06
1.73769e-07
4.1599e-06
8.52148e-07
4.18895e-06
6.97063e-07
4.22287e-06
2.57448e-07
4.20442e-06
-3.94875e-07
4.18939e-06
-7.37886e-07
4.15938e-06
-8.57425e-07
4.13116e-06
-9.05135e-07
4.10122e-06
-7.73221e-07
4.08146e-06
-6.41368e-07
4.06522e-06
-4.92205e-07
4.05307e-06
-3.664e-07
4.03708e-06
-2.53833e-07
4.03143e-06
-1.77659e-07
4.03033e-06
-1.16962e-07
4.0399e-06
-8.13868e-08
-3.80927e-08
4.04031e-06
4.29377e-06
-5.94173e-07
4.30883e-06
-1.82195e-07
4.26637e-06
-4.77396e-07
4.28155e-06
1.58588e-07
4.31833e-06
8.15366e-07
4.34716e-06
6.68229e-07
4.37784e-06
2.26768e-07
4.36431e-06
-3.81343e-07
4.34283e-06
-7.16407e-07
4.32097e-06
-8.35559e-07
4.28111e-06
-8.65277e-07
4.26214e-06
-7.54255e-07
4.23383e-06
-6.13056e-07
4.22587e-06
-4.84249e-07
4.21888e-06
-3.59408e-07
4.2364e-06
-2.71355e-07
4.23685e-06
-1.78102e-07
4.22919e-06
-1.0931e-07
4.20209e-06
-5.42868e-08
-3.05376e-08
4.19454e-06
4.45719e-06
-5.70274e-07
4.47232e-06
-1.9733e-07
4.43092e-06
-4.35996e-07
4.44407e-06
1.45439e-07
4.48306e-06
7.76375e-07
4.51059e-06
6.40708e-07
4.54081e-06
1.96548e-07
4.52679e-06
-3.67326e-07
4.50712e-06
-6.96742e-07
4.48059e-06
-8.09021e-07
4.44618e-06
-8.30872e-07
4.41991e-06
-7.27985e-07
4.39844e-06
-5.91581e-07
4.38459e-06
-4.70408e-07
4.37077e-06
-3.45584e-07
4.35763e-06
-2.58213e-07
4.34944e-06
-1.69917e-07
4.35054e-06
-1.10406e-07
4.35869e-06
-6.24346e-08
-3.10189e-08
4.35917e-06
4.62682e-06
-5.45889e-07
4.64205e-06
-2.12554e-07
4.60191e-06
-3.95857e-07
4.61317e-06
1.34172e-07
4.65335e-06
7.36204e-07
4.68084e-06
6.13211e-07
4.70926e-06
1.68126e-07
4.69551e-06
-3.53575e-07
4.67746e-06
-6.78686e-07
4.64679e-06
-7.78355e-07
4.61726e-06
-8.01345e-07
4.58699e-06
-6.97708e-07
4.56859e-06
-5.73188e-07
4.55038e-06
-4.52196e-07
4.53956e-06
-3.34761e-07
4.52768e-06
-2.4634e-07
4.52445e-06
-1.66684e-07
4.52182e-06
-1.07772e-07
4.52575e-06
-6.6371e-08
-3.3234e-08
4.52797e-06
4.80299e-06
-5.21088e-07
4.81817e-06
-2.27733e-07
4.77967e-06
-3.5736e-07
4.78902e-06
1.24818e-07
4.8296e-06
6.95628e-07
4.858e-06
5.84811e-07
4.88319e-06
1.42935e-07
4.87191e-06
-3.42299e-07
4.85143e-06
-6.582e-07
4.82299e-06
-7.49916e-07
4.79099e-06
-7.6935e-07
4.763e-06
-6.69712e-07
4.74225e-06
-5.52436e-07
4.72571e-06
-4.3566e-07
4.71428e-06
-3.23333e-07
4.70631e-06
-2.38369e-07
4.70387e-06
-1.64238e-07
4.70328e-06
-1.07191e-07
4.70147e-06
-6.45588e-08
-3.48051e-08
4.70304e-06
4.98593e-06
-4.95945e-07
5.0009e-06
-2.42708e-07
4.96452e-06
-3.20973e-07
4.97172e-06
1.17619e-07
5.01259e-06
6.54748e-07
5.04151e-06
5.55897e-07
5.06434e-06
1.20103e-07
5.05421e-06
-3.32171e-07
5.03246e-06
-6.3645e-07
5.00491e-06
-7.22367e-07
4.97256e-06
-7.36993e-07
4.9452e-06
-6.4236e-07
4.92343e-06
-5.30664e-07
4.90835e-06
-4.20575e-07
4.89706e-06
-3.12048e-07
4.88951e-06
-2.30816e-07
4.88265e-06
-1.57382e-07
4.87932e-06
-1.03861e-07
4.88304e-06
-6.82801e-08
-3.70771e-08
4.88532e-06
5.17589e-06
-4.70525e-07
5.19057e-06
-2.5739e-07
5.15648e-06
-2.86883e-07
5.16187e-06
1.1223e-07
5.20218e-06
6.1444e-07
5.23198e-06
5.26103e-07
5.25227e-06
9.98038e-08
5.24329e-06
-3.23186e-07
5.2202e-06
-6.13356e-07
5.19342e-06
-6.95587e-07
5.16096e-06
-7.04539e-07
5.13463e-06
-6.16024e-07
5.11214e-06
-5.08177e-07
5.09807e-06
-4.06507e-07
5.08608e-06
-3.00057e-07
5.07916e-06
-2.23895e-07
5.07635e-06
-1.54574e-07
5.07671e-06
-1.04216e-07
5.07294e-06
-6.45089e-08
-3.82298e-08
5.07409e-06
5.37318e-06
-4.44927e-07
5.38738e-06
-2.71595e-07
5.35589e-06
-2.55392e-07
5.35951e-06
1.0861e-07
5.39901e-06
5.74941e-07
5.4293e-06
4.95818e-07
5.44752e-06
8.15833e-08
5.43921e-06
-3.14881e-07
5.41513e-06
-5.89271e-07
5.38858e-06
-6.69039e-07
5.35694e-06
-6.72896e-07
5.331e-06
-5.90091e-07
5.30872e-06
-4.85895e-07
5.29451e-06
-3.92294e-07
5.28306e-06
-2.88609e-07
5.27612e-06
-2.16957e-07
5.27057e-06
-1.49022e-07
5.26673e-06
-1.00379e-07
5.26911e-06
-6.68853e-08
-3.98518e-08
5.27073e-06
5.57806e-06
-4.19247e-07
5.59162e-06
-2.85161e-07
5.56287e-06
-2.26637e-07
5.56499e-06
1.06488e-07
5.60334e-06
5.36593e-07
5.6338e-06
4.6536e-07
5.65024e-06
6.51381e-08
5.6422e-06
-3.06837e-07
5.61772e-06
-5.64789e-07
5.59127e-06
-6.42592e-07
5.56044e-06
-6.42065e-07
5.53501e-06
-5.64664e-07
5.51296e-06
-4.63847e-07
5.49862e-06
-3.77953e-07
5.48761e-06
-2.77602e-07
5.48054e-06
-2.09887e-07
5.47632e-06
-1.44795e-07
5.47426e-06
-9.8317e-08
5.47362e-06
-6.62542e-08
-4.07528e-08
5.47453e-06
5.79084e-06
-3.93602e-07
5.80357e-06
-2.97898e-07
5.77758e-06
-2.00643e-07
5.77849e-06
1.05577e-07
5.81555e-06
4.9953e-07
5.84579e-06
4.35128e-07
5.86062e-06
5.03067e-08
5.85273e-06
-2.98953e-07
5.82831e-06
-5.40369e-07
5.80171e-06
-6.15993e-07
5.7717e-06
-6.12049e-07
5.74695e-06
-5.39917e-07
5.7251e-06
-4.41996e-07
5.71071e-06
-3.63559e-07
5.69986e-06
-2.66752e-07
5.69301e-06
-2.03041e-07
5.68989e-06
-1.41679e-07
5.68885e-06
-9.72683e-08
5.68606e-06
-6.34722e-08
-4.09864e-08
5.6863e-06
6.01181e-06
-3.68113e-07
6.0235e-06
-3.09587e-07
6.0003e-06
-1.77446e-07
6.00018e-06
1.05697e-07
6.03611e-06
4.63602e-07
6.06552e-06
4.05721e-07
6.07907e-06
3.67533e-08
6.07106e-06
-2.90941e-07
6.04713e-06
-5.16441e-07
6.02028e-06
-5.8914e-07
5.99122e-06
-5.82992e-07
5.9669e-06
-5.15595e-07
5.94552e-06
-4.20617e-07
5.93087e-06
-3.4891e-07
5.92073e-06
-2.56615e-07
5.91353e-06
-1.95838e-07
5.90855e-06
-1.36704e-07
5.90506e-06
-9.37784e-08
5.90621e-06
-6.46171e-08
-4.13378e-08
5.90656e-06
6.24129e-06
-3.42903e-07
6.25174e-06
-3.2004e-07
6.23126e-06
-1.56962e-07
6.23042e-06
1.06534e-07
6.26511e-06
4.28915e-07
6.29363e-06
3.77197e-07
6.30576e-06
2.4622e-08
6.29772e-06
-2.829e-07
6.27434e-06
-4.93057e-07
6.24745e-06
-5.62253e-07
6.21902e-06
-5.54558e-07
6.19537e-06
-4.91946e-07
6.17431e-06
-3.99559e-07
6.15973e-06
-3.3433e-07
6.1498e-06
-2.46686e-07
6.14233e-06
-1.8837e-07
6.1398e-06
-1.3417e-07
6.13874e-06
-9.27189e-08
6.13561e-06
-6.14838e-08
-4.0773e-08
6.13504e-06
6.47961e-06
-3.18112e-07
6.48858e-06
-3.29009e-07
6.47083e-06
-1.39213e-07
6.46939e-06
1.07977e-07
6.50301e-06
3.953e-07
6.5304e-06
3.49805e-07
6.54119e-06
1.38265e-08
6.53298e-06
-2.74689e-07
6.51022e-06
-4.70295e-07
6.48341e-06
-5.35439e-07
6.45549e-06
-5.26639e-07
6.43259e-06
-4.69045e-07
6.41215e-06
-3.79122e-07
6.39734e-06
-3.19523e-07
6.3878e-06
-2.37143e-07
6.38029e-06
-1.80863e-07
6.37567e-06
-1.29551e-07
6.37235e-06
-8.93941e-08
6.37304e-06
-6.21746e-08
-4.04747e-08
6.37274e-06
6.7271e-06
-2.93869e-07
6.73436e-06
-3.36268e-07
6.71931e-06
-1.24168e-07
6.71752e-06
1.09764e-07
6.74996e-06
3.62861e-07
6.77625e-06
3.23513e-07
6.78569e-06
4.38983e-09
6.7771e-06
-2.66101e-07
6.75499e-06
-4.48185e-07
6.72862e-06
-5.09066e-07
6.70115e-06
-4.99172e-07
6.67899e-06
-4.46886e-07
6.65905e-06
-3.59179e-07
6.64404e-06
-3.04509e-07
6.63485e-06
-2.27954e-07
6.62719e-06
-1.73206e-07
6.624e-06
-1.26365e-07
6.62253e-06
-8.79186e-08
6.62038e-06
-6.00298e-08
-3.96158e-08
6.61953e-06
6.98409e-06
-2.70311e-07
6.98938e-06
-3.4156e-07
6.97704e-06
-1.11825e-07
6.97515e-06
1.11655e-07
7.00634e-06
3.3167e-07
7.03161e-06
2.98247e-07
7.03957e-06
-3.57792e-09
7.03059e-06
-2.57113e-07
7.00911e-06
-4.26707e-07
6.98332e-06
-4.83273e-07
6.95617e-06
-4.72028e-07
6.93466e-06
-4.2537e-07
6.91552e-06
-3.40046e-07
6.90033e-06
-2.89316e-07
6.89143e-06
-2.19053e-07
6.88392e-06
-1.65698e-07
6.87965e-06
-1.22089e-07
6.87648e-06
-8.47484e-08
6.87652e-06
-6.00767e-08
-3.89845e-08
6.87589e-06
7.25094e-06
-2.47565e-07
7.25399e-06
-3.44606e-07
7.24436e-06
-1.02192e-07
7.24265e-06
1.13363e-07
7.27261e-06
3.01707e-07
7.29678e-06
2.74074e-07
7.30334e-06
-1.01327e-08
7.29375e-06
-2.4752e-07
7.27272e-06
-4.05677e-07
7.24782e-06
-4.58373e-07
7.22107e-06
-4.45281e-07
7.2001e-06
-4.04403e-07
7.18196e-06
-3.21903e-07
7.16642e-06
-2.73778e-07
7.1578e-06
-2.10432e-07
7.15035e-06
-1.58249e-07
7.14652e-06
-1.18255e-07
7.1443e-06
-8.25335e-08
7.14294e-06
-5.871e-08
-3.83561e-08
7.14231e-06
7.52802e-06
-2.25753e-07
7.52853e-06
-3.45119e-07
7.52159e-06
-9.52512e-08
7.52039e-06
1.14561e-07
7.54889e-06
2.7321e-07
7.57226e-06
2.50699e-07
7.57721e-06
-1.50795e-08
7.56703e-06
-2.37341e-07
7.54637e-06
-3.85015e-07
7.52253e-06
-4.34535e-07
7.49626e-06
-4.1901e-07
7.47554e-06
-3.83682e-07
7.45859e-06
-3.04952e-07
7.44289e-06
-2.58077e-07
7.43436e-06
-2.01902e-07
7.42715e-06
-1.51044e-07
7.42303e-06
-1.14131e-07
7.42019e-06
-7.96936e-08
7.41928e-06
-5.78002e-08
-3.79126e-08
7.41884e-06
7.81568e-06
-2.0498e-07
7.81343e-06
-3.42864e-07
7.80912e-06
-9.09404e-08
7.80867e-06
1.15011e-07
7.83563e-06
2.46251e-07
7.8583e-06
2.28028e-07
7.86155e-06
-1.83284e-08
7.85091e-06
-2.26703e-07
7.83047e-06
-3.64575e-07
7.80769e-06
-4.11756e-07
7.78215e-06
-3.93472e-07
7.76145e-06
-3.62981e-07
7.74577e-06
-2.89277e-07
7.73006e-06
-2.42367e-07
7.72142e-06
-1.93261e-07
7.71448e-06
-1.44102e-07
7.71027e-06
-1.09925e-07
7.70758e-06
-7.69961e-08
7.70632e-06
-5.6547e-08
-3.76179e-08
7.70603e-06
8.11431e-06
-1.85332e-07
8.10923e-06
-3.37785e-07
8.1073e-06
-8.90066e-08
8.1078e-06
1.14506e-07
8.13334e-06
2.20715e-07
8.15477e-06
2.06601e-07
8.15653e-06
-2.00899e-08
8.14579e-06
-2.15962e-07
8.12548e-06
-3.44266e-07
8.10368e-06
-3.89958e-07
8.07917e-06
-3.68961e-07
8.05824e-06
-3.42058e-07
8.04372e-06
-2.74755e-07
8.0284e-06
-2.27044e-07
8.01949e-06
-1.8435e-07
8.01286e-06
-1.37479e-07
8.00865e-06
-1.05714e-07
8.0061e-06
-7.44417e-08
8.00451e-06
-5.49624e-08
-3.72536e-08
8.00415e-06
8.4243e-06
-1.66873e-07
8.41653e-06
-3.30013e-07
8.41634e-06
-8.88215e-08
8.41796e-06
1.12894e-07
8.44194e-06
1.96735e-07
8.46046e-06