/*--------------------------------*- C++ -*----------------------------------*\
| =========                 |                                                 |
| \\      /  F ield         | OpenFOAM: The Open Source CFD Toolbox           |
|  \\    /   O peration     | Version:  v2012                                 |
|   \\  /    A nd           | Website:  www.openfoam.com                      |
|    \\/     M anipulation  |                                                 |
\*---------------------------------------------------------------------------*/
FoamFile
{
    version     2.0;
    format      ascii;
    class       volScalarField;
    location    "0.8";
    object      p;
}
// * * * * * * * * * * * * * * * * * * * * * * * * * * * * * * * * * * * * * //

dimensions      [0 2 -2 0 0 0 0];


internalField   nonuniform List<scalar> 
7000
(
2.55683e-10
0.00530738
-0.00391546
0.000696605
0.00631288
-0.000198074
0.000903541
0.00571262
0.0017557
0.00084049
-0.00115387
0.000289611
-0.002438
-0.00110347
-0.00199598
-0.00127407
-0.00159348
-0.00099123
-0.000627832
0.000613681
6.2152e-06
0.00527543
-0.00389372
0.000708322
0.00627543
-0.000172915
0.000908924
0.00563371
0.00176482
0.000821065
-0.00113231
0.000278219
-0.00242583
-0.00110835
-0.00199345
-0.00127552
-0.00158937
-0.00099539
-0.000623691
0.000546852
1.16066e-05
0.00523562
-0.00386897
0.000720403
0.00623927
-0.000146339
0.000905659
0.00556973
0.00178124
0.000796264
-0.00110203
0.000258842
-0.00240055
-0.00112467
-0.00197685
-0.00128856
-0.00157204
-0.00101255
-0.000616919
0.000441176
1.49261e-05
0.00519233
-0.00384412
0.000734503
0.0062019
-0.000120987
0.000902019
0.00549995
0.00179056
0.000771399
-0.00107061
0.000233493
-0.00236902
-0.00114811
-0.00195258
-0.00130986
-0.00155072
-0.00103789
-0.000616858
0.000320127
1.69765e-05
0.00514635
-0.00381523
0.000750914
0.00615811
-9.2005e-05
0.00090021
0.00542082
0.00179214
0.000748549
-0.00103676
0.000201577
-0.00233314
-0.00117766
-0.00192652
-0.00133626
-0.00152986
-0.00106648
-0.000624989
0.000204257
1.82877e-05
0.005099
-0.00377917
0.000765384
0.0061064
-5.70974e-05
0.000900636
0.00533385
0.00179001
0.000728207
-0.000999507
0.000163076
-0.0022934
-0.00121324
-0.00189909
-0.00136587
-0.00150876
-0.00109612
-0.000640555
0.0001011
1.92511e-05
0.00505359
-0.00373399
0.000774405
0.00604715
-1.59203e-05
0.000903637
0.00524208
0.00178679
0.000709334
-0.000959368
0.000119785
-0.00225013
-0.00125323
-0.00186904
-0.00139762
-0.0014871
-0.00112702
-0.000663435
8.00909e-06
2.02129e-05
0.00501047
-0.00367892
0.000777312
0.0059818
3.05496e-05
0.000909141
0.0051479
0.00178374
0.00069013
-0.000916836
7.33348e-05
-0.00220367
-0.00129578
-0.00183634
-0.00143109
-0.00146651
-0.00115942
-0.000693971
-7.93994e-05
2.1393e-05
0.00496951
-0.00361424
0.000775179
0.005912
8.05026e-05
0.000916929
0.00505267
0.00178165
0.000668811
-0.000872154
2.49129e-05
-0.00215439
-0.00133994
-0.00180173
-0.00146593
-0.00144884
-0.00119231
-0.000732302
-0.000163363
2.28907e-05
0.00493009
-0.00354099
0.000769618
0.005839
0.000132029
0.000926579
0.004957
0.00178089
0.000644089
-0.000825389
-2.50206e-05
-0.00210271
-0.00138534
-0.00176579
-0.0015013
-0.00143515
-0.00122431
-0.000778053
-0.000244657
2.47352e-05
0.00489136
-0.00346061
0.000762112
0.00576348
0.000183713
0.000937921
0.00486092
0.0017814
0.000615282
-0.000776498
-7.63696e-05
-0.00204908
-0.00143162
-0.00172891
-0.00153596
-0.00142624
-0.00125455
-0.000830382
-0.000323924
2.69328e-05
0.00485254
-0.0033745
0.000753732
0.00568574
0.000234842
0.000949393
0.00476408
0.00178294
0.000582205
-0.000725421
-0.000129096
-0.00199396
-0.00147829
-0.00169181
-0.00156857
-0.00142308
-0.00128283
-0.000888212
-0.000402048
2.94936e-05
0.00481301
-0.00328381
0.000745114
0.00560592
0.000285255
0.000961075
0.00466604
0.00178525
0.000544967
-0.000672137
-0.000183107
-0.00193785
-0.00152471
-0.00165573
-0.00159792
-0.00142672
-0.00130948
-0.000950359
-0.000479889
3.24358e-05
0.00477235
-0.00318938
0.000736609
0.00552417
0.000335047
0.000973093
0.00456636
0.00178821
0.000503803
-0.000616682
-0.000238165
-0.00188147
-0.00157011
-0.00162214
-0.00162303
-0.00143798
-0.00133519
-0.00101555
-0.000558063
3.57833e-05
0.00473026
-0.00309174
0.000728402
0.00544066
0.000384381
0.000985342
0.00446475
0.00179183
0.000458974
-0.000559184
-0.000293808
-0.00182579
-0.00161351
-0.00159248
-0.00164326
-0.0014573
-0.00136091
-0.00108252
-0.00063692
3.95644e-05
0.00468652
-0.0029912
0.000720596
0.00535558
0.000433391
0.00099777
0.00436099
0.00179621
0.000410776
-0.000499949
-0.000349372
-0.00177196
-0.0016538
-0.00156804
-0.00165832
-0.00148459
-0.00138791
-0.0011502
-0.000716538
4.38105e-05
0.00464097
-0.00288799
0.000713259
0.00526911
0.000482146
0.00101037
0.00425497
0.0018015
0.000359525
-0.000439503
-0.000403904
-0.00172124
-0.00168982
-0.00154987
-0.00166836
-0.00151933
-0.00141764
-0.00121768
-0.000796665
4.85564e-05
0.00459349
-0.00278226
0.000706419
0.00518144
0.00053065
0.00102315
0.0041466
0.00180785
0.000305618
-0.000378622
-0.000456213
-0.00167495
-0.00172061
-0.00153865
-0.00167396
-0.00156059
-0.00145165
-0.00128438
-0.000876726
5.38403e-05
0.00454399
-0.00267415
0.000700032
0.00509273
0.000578861
0.00103615
0.00403584
0.00181535
0.000249564
-0.000318271
-0.000504967
-0.00163446
-0.00174542
-0.00153476
-0.00167616
-0.00160702
-0.00149127
-0.00135019
-0.000956031
5.97042e-05
0.00449244
-0.00256381
0.000693982
0.0050031
0.000626703
0.00104937
0.00392269
0.00182405
0.000191958
-0.000259574
-0.000548695
-0.001601
-0.00176384
-0.0015383
-0.00167651
-0.00165702
-0.0015373
-0.00141527
-0.00103388
6.61932e-05
0.00443881
-0.0024513
0.000688108
0.0049127
0.000674037
0.00106281
0.0038072
0.00183389
0.000133555
-0.000203889
-0.000585962
-0.00157553
-0.00177587
-0.00154881
-0.00167692
-0.00170924
-0.00159007
-0.00147995
-0.00110953
7.33552e-05
0.00438311
-0.0023367
0.000682238
0.00482163
0.000720685
0.00107645
0.00368954
0.0018446
7.52933e-05
-0.000152713
-0.000615485
-0.00155879
-0.00178217
-0.00156523
-0.00167935
-0.00176269
-0.00164949
-0.00154458
-0.0011823
8.12395e-05
0.00432534
-0.00222
0.000676205
0.00473001
0.000766494
0.00109021
0.00356993
0.00185579
1.83256e-05
-0.000107534
-0.00063629
-0.00155121
-0.00178385
-0.00158616
-0.00168555
-0.00181653
-0.0017151
-0.00160984
-0.00125168
8.98973e-05
0.00426548
-0.00210121
0.00066988
0.00463791
0.000811348
0.00110397
0.00344872
0.00186688
-3.6132e-05
-6.96911e-05
-0.000647687
-0.0015528
-0.00178246
-0.00161004
-0.00169698
-0.00187012
-0.00178603
-0.00167655
-0.00131766
9.93833e-05
0.00420352
-0.00198034
0.000663172
0.00454542
0.000855182
0.00111752
0.00332643
0.00187713
-8.69028e-05
-4.04808e-05
-0.000645789
-0.00156286
-0.00178007
-0.00163548
-0.0017148
-0.00192346
-0.00186075
-0.00174494
-0.00138073
0.000109754
0.00413942
-0.00185741
0.000656024
0.00445259
0.000897988
0.00113055
0.0032037
0.00188568
-0.000132843
-2.11044e-05
-0.000637024
-0.0015801
-0.00177906
-0.00166142
-0.00173973
-0.00197734
-0.00193737
-0.00181424
-0.00144159
0.000121067
0.00407314
-0.00173247
0.000648414
0.00435946
0.000939866
0.00114267
0.00308128
0.00189159
-0.000173062
-1.22196e-05
-0.000619686
-0.00160287
-0.00178164
-0.00168744
-0.0017721
-0.00203307
-0.00201423
-0.00188307
-0.00150073
0.000133387
0.00400463
-0.00160562
0.000640352
0.00426603
0.00098104
0.00115335
0.00295993
0.00189402
-0.000206924
-1.40571e-05
-0.000594951
-0.00162914
-0.00178927
-0.00171359
-0.00181228
-0.00209259
-0.00209048
-0.00194974
-0.00155798
0.000146776
0.00393383
-0.00147696
0.000631892
0.00417223
0.00102178
0.00116206
0.00284038
0.00189234
-0.000233994
-2.67623e-05
-0.000564091
-0.00165652
-0.00180308
-0.00174019
-0.00186028
-0.00215835
-0.00216699
-0.00201297
-0.00161222
0.000161302
0.00386071
-0.00134665
0.000623152
0.00407792
0.00106248
0.00116821
0.00272317
0.00188601
-0.000253886
-5.00899e-05
-0.000528978
-0.00168241
-0.00182414
-0.00176788
-0.00191519
-0.00223214
-0.00224603
-0.00207335
-0.00166154
0.000177031
0.00378521
-0.00121486
0.000614287
0.00398287
0.00110365
0.00117125
0.00260869
0.00187456
-0.000266555
-8.29144e-05
-0.000492442
-0.00170433
-0.00185281
-0.00179751
-0.00197581
-0.002315
-0.00233043
-0.00213345
-0.00170381
0.000194032
0.00370732
-0.0010818
0.000605516
0.00388676
0.00114584
0.00117085
0.0024972
0.00185794
-0.000272964
-0.000122898
-0.000457229
-0.00172075
-0.00188883
-0.00182935
-0.0020408
-0.00240835
-0.00242298
-0.00219635
-0.00173644
0.000212374
0.00362701
-0.000947749
0.000597154
0.00378919
0.00118948
0.00116678
0.00238874
0.0018364
-0.000273104
-0.00016756
-0.000424833
-0.00173107
-0.00193198
-0.00186363
-0.00210865
-0.00251221
-0.00252754
-0.00226573
-0.00175703
0.000232123
0.00354432
-0.000813019
0.000589601
0.00368971
0.00123493
0.00115898
0.00228322
0.00181022
-0.000271124
-0.000215578
-0.000396199
-0.00173602
-0.00198252
-0.00190232
-0.00217897
-0.00262532
-0.00264573
-0.00233786
-0.00176363
0.00025333
0.00345925
-0.000677971
0.000583363
0.00358776
0.0012825
0.00114741
0.00218045
0.00177992
-0.00026623
-0.000266198
-0.000370808
-0.00173732
-0.00204087
-0.00194947
-0.00225339
-0.00274372
-0.00277643
-0.00240915
-0.0017547
0.000276066
0.00337187
-0.000543019
0.000578997
0.0034829
0.00133221
0.00113251
0.00207966
0.0017466
-0.000259922
-0.000318976
-0.000348119
-0.0017359
-0.00210943
-0.00200893
-0.0023276
-0.0028593
-0.00291524
-0.00247984
-0.00173209
0.00030039
0.00328227
-0.000408729
0.000577098
0.00337477
0.00138397
0.00111496
0.0019797
0.00171173
-0.000252309
-0.000374282
-0.00032967
-0.00173125
-0.00218895
-0.00208323
-0.00239882
-0.00296443
-0.00305358
-0.00255139
-0.00170322
0.000326324
0.00319069
-0.00027576
0.000578278
0.00326308
0.00143768
0.0010951
0.00187955
0.00167646
-0.000242785
-0.000434295
-0.000318366
-0.00172256
-0.00227888
-0.00217222
-0.00246636
-0.00305314
-0.00318295
-0.00262651
-0.00167771
0.000353904
0.00309732
-0.000144811
0.000583132
0.00314782
0.00149262
0.00107491
0.00177689
0.00164141
-0.000230588
-0.000500702
-0.000316141
-0.00171009
-0.00237616
-0.00227331
-0.00253012
-0.00312178
-0.00329664
-0.00271268
-0.00166376
0.000383152
0.00300244
-1.67259e-05
0.000592278
0.00302919
0.00154787
0.00105646
0.00166971
0.00160664
-0.000214672
-0.000574164
-0.000326193
-0.00169388
-0.00247493
-0.00238221
-0.00259117
-0.00317152
-0.00339285
-0.00281128
-0.00166417
0.000414062
0.0029065
0.000107511
0.00060623
0.00290753
0.00160248
0.00104104
0.00155777
0.0015707
-0.000193083
-0.000654458
-0.000353386
-0.00167184
-0.00256746
-0.00249695
-0.00265378
-0.00320802
-0.00347184
-0.00291675
-0.00167646
0.000446631
0.00280998
0.000226971
0.000625352
0.00278337
0.00165497
0.00103139
0.00144099
0.00153089
-0.000164578
-0.000740883
-0.000400657
-0.0016416
-0.00264758
-0.00261913
-0.00272296
-0.00323785
-0.00353164
-0.00301698
-0.00169718
0.000480809
0.00271344
0.000340807
0.000649717
0.00265767
0.00170343
0.0010294
0.00131946
0.00148483
-0.000129666
-0.000831974
-0.000467588
-0.0016042
-0.00271205
-0.00274883
-0.00280152
-0.00326539
-0.00357013
-0.00310035
-0.00172305
0.000516517
0.00261748
0.000448212
0.000679251
0.00253177
0.00174587
0.0010353
0.00119514
0.00142936
-8.95419e-05
-0.000923106
-0.000553798
-0.00156404
-0.00275768
-0.00288286
-0.00289126
-0.00329346
-0.00358788
-0.00315999
-0.00174873
0.000553696
0.00252264
0.000548523
0.00071377
0.00240699
0.00178065
0.00104963
0.00106978
0.00136167
-4.4789e-05
-0.00101033
-0.000659145
-0.0015264
-0.00278143
-0.00301589
-0.00299308
-0.00332514
-0.00358944
-0.00319168
-0.00176696
0.000592259
0.00242946
0.000641212
0.000752763
0.00228496
0.00180655
0.00107134
0.000945402
0.00128067
2.36432e-06
-0.00108919
-0.00078108
-0.00149793
-0.00278314
-0.00314136
-0.00310635
-0.00336462
-0.0035808
-0.00319253
-0.0017707
0.000632066
0.00233854
0.000725825
0.000795455
0.00216748
0.00182292
0.00109824
0.000824397
0.00118569
4.88808e-05
-0.00115427
-0.000916213
-0.00148553
-0.0027651
-0.00325244
-0.00322981
-0.00341516
-0.0035654
-0.00316356
-0.0017563
0.000672983
0.00225042
0.00080211
0.000840817
0.00205601
0.00182917
0.00112897
0.00070826
0.00107574
9.28274e-05
-0.00120206
-0.00106152
-0.00149338
-0.00273119
-0.0033438
-0.00336015
-0.00347622
-0.00354792
-0.00311275
-0.00172313
0.000714842
0.00216553
0.000870069
0.000887803
0.00195132
0.00182601
0.00116168
0.000597948
0.0009518
0.000131606
-0.00123127
-0.00121214
-0.00152337
-0.00268829
-0.0034122
-0.0034904
-0.00354667
-0.00353766
-0.00305226
-0.0016696
0.000757533
0.0020843
0.000929877
0.000935105
0.00185387
0.00181443
0.00119487
0.000495081
0.000815619
0.000161421
-0.00124109
-0.00136212
-0.0015773
-0.00264461
-0.0034548
-0.00361266
-0.00362689
-0.00354122
-0.00298897
-0.00159695
0.00080092
0.00200724
0.00098195
0.000981173
0.00176355
0.00179519
0.0012274
0.000401383
0.000668525
0.000178782
-0.00123171
-0.00150649
-0.00165504
-0.00260661
-0.00347124
-0.00372169
-0.00371523
-0.00355746
-0.00292992
-0.00151309
0.000844802
0.00193473
0.00102679
0.0010248
0.00167963
0.00176923
0.00125825
0.00031838
0.000512943
0.000180514
-0.00120535
-0.00164049
-0.00175313
-0.00258018
-0.00346608
-0.0038126
-0.0038058
-0.00358432
-0.00288302
-0.00142778
0.000889041
0.00186714
0.00106486
0.00106498
0.00160149
0.00173714
0.0012864
0.000247612
0.000351829
0.000163825
-0.00116585
-0.00175931
-0.0018667
-0.00257098
-0.00344575
-0.00387981
-0.00389281
-0.00362139
-0.0028545
-0.00134786
0.000933399
0.00180486
0.0010968
0.0011008
0.00152862
0.00169928
0.00131049
0.000190301
0.000188904
0.000126747
-0.00111776
-0.00185874
-0.00199069
-0.00258245
-0.00341746
-0.0039213
-0.00397218
-0.00366689
-0.00284264
-0.00127689
0.000977531
0.00174835
0.00112327
0.0011316
0.00146053
0.0016553
0.00132918
0.00014705
2.79566e-05
6.85701e-05
-0.00106564
-0.00193648
-0.00212031
-0.00261505
-0.00338891
-0.00393842
-0.00403884
-0.00371571
-0.00284425
-0.00121704
0.001021
0.00169807
0.00114497
0.00115699
0.00139659
0.00160451
0.00134137
0.000117645
-0.000127077
-9.5068e-06
-0.00101478
-0.00199207
-0.00225008
-0.00266659
-0.00336686
-0.00393554
-0.00408869
-0.0037637
-0.00285437
-0.00116749
0.0010635
0.00165442
0.00116263
0.0011766
0.00133598
0.00154688
0.00134583
0.000101008
-0.000271928
-0.000105465
-0.00097092
-0.00202547
-0.00237444
-0.00273389
-0.00335667
-0.00392013
-0.00412031
-0.003806
-0.00286706
-0.00112499
0.00110491
0.00161749
0.00117707
0.00119014
0.00127797
0.00148251
0.00134107
9.57744e-05
-0.000402531
-0.000216494
-0.000938949
-0.00203802
-0.00248908
-0.00281348
-0.00336118
-0.00389931
-0.00413322
-0.00383763
-0.00287793
-0.00108692
0.00114504
0.00158728
0.00118926
0.00119741
0.00122175
0.00141138
0.00132576
0.000100621
-0.000515732
-0.000338703
-0.000922662
-0.0020327
-0.00259019
-0.00290195
-0.00338101
-0.00387851
-0.00412864
-0.00385573
-0.00288384
-0.00105048
0.00118393
0.00156311
0.00120014
0.00119916
0.00116627
0.00133367
0.00129915
0.000113096
-0.000610011
-0.000467352
-0.000924535
-0.00201346
-0.00267391
-0.00299537
-0.00341509
-0.00386257
-0.00411081
-0.00385851
-0.00288169
-0.00101337
0.00122183
0.00154336
0.00121029
0.00119746
0.00111085
0.00124969
0.00126047
0.000129792
-0.000684819
-0.000597103
-0.000945646
-0.00198569
-0.00273756
-0.00308915
-0.00346181
-0.00385561
-0.00408442
-0.00384465
-0.00286905
-0.000974343
0.00125897
0.00152686
0.00121975
0.00119362
0.0010555
0.00116035
0.00120962
0.000147227
-0.000741276
-0.000723417
-0.000985041
-0.00195518
-0.0027802
-0.00317834
-0.00351883
-0.00385972
-0.00405395
-0.0038152
-0.00284433
-0.000931634
0.00129531
0.00151318
0.00122826
0.00118799
0.00100081
0.00106748
0.00114778
0.000161942
-0.000782307
-0.000843298
-0.00103997
-0.0019268
-0.0028025
-0.00325785
-0.00358251
-0.0038756
-0.00402544
-0.00377472
-0.00280637
-0.000882533
0.00133053
0.00150214
0.00123546
0.0011804
0.000947953
0.000973238
0.00107648
0.000172007
-0.000810913
-0.000954975
-0.00110789
-0.00190481
-0.00280692
-0.00332355
-0.00364801
-0.00390281
-0.00400463
-0.00372815
-0.0027549
-0.00082534
0.00136431
0.00149378
0.00124104
0.00117035
0.000897824
0.000879456
0.000997083
0.000176215
-0.000829091
-0.00105715
-0.00118662
-0.00189291
-0.00279781
-0.00337295
-0.00370971
-0.00393848
-0.00399409
-0.00368058
-0.00269327
-0.000760757
0.00139629
0.00148806
0.00124512
0.00115755
0.000850492
0.000787363
0.000910886
0.000173328
-0.000838667
-0.00114889
-0.00127384
-0.00189378
-0.00278022
-0.00340554
-0.00376321
-0.00397776
-0.00399337
-0.00363743
-0.00262798
-0.000690454
0.00142616
0.00148486
0.0012481
0.00114185
0.000805681
0.000697667
0.000818988
0.000162784
-0.000841665
-0.00122959
-0.00136652
-0.00190863
-0.00275875
-0.00342363
-0.00380682
-0.00401559
-0.00400018
-0.00360287
-0.00256438
-0.000616587
0.00145401
0.00148374
0.00125005
0.00112337
0.000763239
0.000610991
0.000722396
0.000144214
-0.000840134
-0.00129851
-0.00146106
-0.00193804
-0.002738
-0.0034305
-0.00384057
-0.00404852
-0.00401139
-0.00357773
-0.00250683
-0.000542439
0.00148003
0.00148392
0.00125086
0.00110275
0.000722935
0.000528083
0.000622216
0.000117151
-0.00083616
-0.00135561
-0.00155379
-0.00198153
-0.00272185
-0.0034279
-0.00386515
-0.0040758
-0.00402433
-0.00356068
-0.00245742
-0.000471476
0.00150454
0.00148472
0.00124981
0.00108066
0.000684917
0.000449595
0.000519413
8.11776e-05
-0.000831626
-0.00140161
-0.00164136
-0.00203691
-0.00271373
-0.00341762
-0.00388156
-0.00409823
-0.00403694
-0.00354935
-0.00241671
-0.000406231
0.00152814
0.00148565
0.00124588
0.00105754
0.000649482
0.000375902
0.000415064
3.62448e-05
-0.000828206
-0.00143805
-0.00172141
-0.00210078
-0.00271658
-0.00340239
-0.00388991
-0.00411628
-0.00404854
-0.00354227
-0.00238404
-0.000347752
0.00155091
0.00148648
0.00123823
0.0010333
0.000616502
0.000307474
0.000310517
-1.74273e-05
-0.000827525
-0.00146692
-0.00179255
-0.00216874
-0.00273186
-0.00338609
-0.0038903
-0.00413007
-0.00405999
-0.00353934
-0.00235839
-0.000295552
0.00157273
0.00148723
0.00122708
0.0010075
0.000585651
0.000244679
0.00020721
-7.94634e-05
-0.00083108
-0.00149012
-0.00185441
-0.00223624
-0.00275961
-0.00337367
-0.00388395
-0.00413907
-0.0040713
-0.00353967
-0.00233811
-0.000248946
0.00159298
0.00148813
0.00121391
0.000979825
0.000556162
0.000187362
0.000106756
-0.000149046
-0.00084026
-0.0015095
-0.0019081
-0.00229992
-0.00279797
-0.00336946
-0.00387372
-0.00414243
-0.00408052
-0.00354159
-0.00232204
-0.000208245
0.00161101
0.00148942
0.00120045
0.000950203
0.000526639
0.000134902
1.06954e-05
-0.00022489
-0.000856337
-0.00152661
-0.00195553
-0.0023577
-0.00284272
-0.00337603
-0.00386398
-0.00414061
-0.00408605
-0.00354409
-0.00231014
-0.000173881
0.00162636
0.00149105
0.00118774
0.00091909
0.000496095
8.62308e-05
-8.00856e-05
-0.000305235
-0.000880144
-0.00154262
-0.00199851
-0.00240913
-0.00288927
-0.00339367
-0.00385908
-0.00413629
-0.00408805
-0.00354639
-0.00230168
-0.000145339
0.0016391
0.00149253
0.00117572
0.000887222
0.000464377
4.01756e-05
-0.000165531
-0.000388115
-0.000912075
-0.00155894
-0.00203862
-0.00245592
-0.00293432
-0.00342012
-0.00386181
-0.00413291
-0.00408757
-0.00354757
-0.00229526
-0.000121717
0.0016494
0.0014933
0.00116435
0.000855404
0.000431645
-4.04728e-06
-0.000245842
-0.000471942
-0.000952179
-0.00157725
-0.00207671
-0.00250035
-0.00297645
-0.00345204
-0.00387283
-0.00413325
-0.00408648
-0.00354762
-0.00229032
-0.000103026
0.0016575
0.00149315
0.0011529
0.000823949
0.000398035
-4.66662e-05
-0.000321188
-0.000555858
-0.00100018
-0.00159924
-0.00211253
-0.00254343
-0.00301595
-0.00348704
-0.00389202
-0.0041398
-0.00408768
-0.00354806
-0.00228745
-8.95103e-05
0.00166374
0.00149187
0.00114049
0.000792913
0.00036403
-8.77302e-05
-0.000391832
-0.000639279
-0.00105526
-0.00162659
-0.00214627
-0.00258537
-0.00305414
-0.00352406
-0.00391898
-0.00415416
-0.00409382
-0.00355079
-0.00228724
-8.11451e-05
0.00166817
0.00148952
0.00112699
0.000762376
0.000329878
-0.000127525
-0.00045783
-0.000721378
-0.00111605
-0.00166099
-0.00218
-0.00262649
-0.00309225
-0.0035624
-0.00395292
-0.00417716
-0.004107
-0.00355769
-0.00229045
-7.81731e-05
0.0016708
0.00148625
0.00111242
0.000732025
0.000295502
-0.000166522
-0.000519005
-0.000801347
-0.00118094
-0.00170308
-0.00221663
-0.00266734
-0.00313083
-0.00360117
-0.00399262
-0.00420961
-0.0041297
-0.00357176
-0.00229916
-8.13931e-05
0.00167163
0.00148217
0.00109695
0.000701627
0.000260694
-0.000204978
-0.000575584
-0.000879297
-0.0012487
-0.0017513
-0.00225855
-0.00270965
-0.00317067
-0.00363958
-0.00403539
-0.0042509
-0.00416387
-0.00359688
-0.00231733
-9.35245e-05
0.00167058
0.00147719
0.00108113
0.000671453
0.0002251
-0.000243425
-0.000627924
-0.000955345
-0.00131884
-0.00180264
-0.00230649
-0.00275678
-0.00321448
-0.00367969
-0.00407944
-0.00429804
-0.00420809
-0.00363387
-0.00234705
-0.000117204
0.00166771
0.00147116
0.00106544
0.000641861
0.000188304
-0.000283444
-0.000676932
-0.00102822
-0.00139107
-0.00185463
-0.00235767
-0.0028111
-0.00326672
-0.0037267
-0.00412773
-0.0043503
-0.00426134
-0.00368207
-0.00238803
-0.000151687
0.00166329
0.00146392
0.00104978
0.000613687
0.000150696
-0.000326963
-0.000724914
-0.00109722
-0.00146537
-0.00190626
-0.00240669
-0.00286861
-0.00332651
-0.00378229
-0.0041831
-0.00441132
-0.00432624
-0.00374629
-0.00244565
-0.000200905
0.00165759
0.00145538
0.00103395
0.000587429
0.000113619
-0.000373897
-0.000774481
-0.00116316
-0.00154324
-0.0019618
-0.00245352
-0.00292584
-0.00338896
-0.00384279
-0.00424295
-0.00447793
-0.00440085
-0.00382553
-0.00252394
-0.00027361
0.00165058
0.00144565
0.00101838
0.00056236
7.62282e-05
-0.000423137
-0.000825843
-0.00122384
-0.00162052
-0.0020241
-0.0025028
-0.00298624
-0.00345753
-0.00391154
-0.00430883
-0.0045477
-0.00447937
-0.00391359
-0.00261777
-0.000369176
0.00164218
0.00143499
0.00100391
0.000538947
3.75607e-05
-0.000476326
-0.000882249
-0.00128041
-0.00169114
-0.00208943
-0.00255452
-0.00304886
-0.00353261
-0.00399215
-0.00438725
-0.00462655
-0.00456397
-0.00400843
-0.00272386
-0.000484297
0.00163237
0.00142438
0.00099176
0.000515206
-3.22286e-06
-0.000530713
-0.000943745
-0.00133719
-0.00175526
-0.00215755
-0.00261235
-0.00311474
-0.00361345
-0.00408413
-0.00448195
-0.00472262
-0.00466525
-0.0041174
-0.00284186
-0.000612313
0.00161121
0.00141542
0.000984946
0.000491144
-5.21158e-05
-0.000587603
-0.00100584
-0.0013923
-0.00180953
-0.00222277
-0.00267594
-0.00318498
-0.00370058
-0.00418678
-0.00459481
-0.00484335
-0.00479521
-0.00425781
-0.00299085
-0.000761899
0.00160846
0.00141212
0.000985487
0.000468209
-0.000106713
-0.0006468
-0.00106779
-0.00144725
-0.00185605
-0.00227735
-0.00273508
-0.00325088
-0.00378439
-0.00428871
-0.00471433
-0.00498462
-0.00496382
-0.00445021
-0.0031953
-0.000965793
0.00156367
0.00140368
0.000978034
0.000431958
-0.000164848
-0.00070002
-0.001125
-0.00150591
-0.0019029
-0.00232594
-0.00277734
-0.00328754
-0.00382995
-0.00435894
-0.00481959
-0.00512985
-0.00515468
-0.00469439
-0.00349118
-0.00130622
0.00161185
0.00140984
0.00095834
0.000356286
-0.000236217
-0.000746657
-0.00118132
-0.00157759
-0.00197856
-0.00238033
-0.00280719
-0.00328216
-0.00378981
-0.00429838
-0.00475846
-0.00509519
-0.00517473
-0.00479079
-0.00369617
-0.00165082
0.00154208
0.00146269
0.000959263
0.00031147
-0.000288213
-0.00076533
-0.0012372
-0.0016649
-0.00212573
-0.00257363
-0.0030429
-0.0035117
-0.00400842
-0.00447784
-0.00486256
-0.00507558
-0.00502772
-0.00455159
-0.00341084
-0.00134482
0.00167457
0.00136768
0.000820374
0.000245786
-0.000297255
-0.000792621
-0.0012205
-0.00155183
-0.00188188
-0.00224693
-0.00267639
-0.00317657
-0.0037754
-0.00446512
-0.00520579
-0.0058822
-0.00630903
-0.00624794
-0.00542358
-0.0035969
0.00182542
0.00124229
0.000740076
0.000230424
-0.000285453
-0.000944855
-0.00161742
-0.00225442
-0.00276138
-0.00302263
-0.00318679
-0.00339158
-0.00353542
-0.00345063
-0.00300542
-0.00224284
-0.00133943
-0.000603022
-0.000407914
-0.00108948
0.00176752
0.00123261
0.000725018
0.000201462
-0.000263838
-0.000650412
-0.000923458
-0.00116672
-0.00154837
-0.00211206
-0.0028263
-0.00363103
-0.00451523
-0.0054756
-0.00646352
-0.00737926
-0.00804636
-0.00823365
-0.00765967
-0.00607512
0.00191745
0.00119069
0.000620547
0.000127831
-0.000265188
-0.000800353
-0.00141869
-0.00206455
-0.00260654
-0.00295177
-0.00324769
-0.00363693
-0.00400878
-0.00421667
-0.00411583
-0.00369269
-0.00305285
-0.00248572
-0.00238523
-0.00312073
0.00190539
0.00112871
0.000549546
0.000118523
-0.000100829
-0.000282734
-0.000449491
-0.000698748
-0.001147
-0.00188289
-0.00289938
-0.0042342
-0.005839
-0.00755424
-0.00915387
-0.0104435
-0.0112516
-0.0113956
-0.0106574
-0.00884746
0.00180333
-0.00618354
-0.0091739
-0.00734663
-0.00484471
-0.00291359
-0.00147358
-0.000357289
0.000610647
0.00170128
0.00293156
0.00406167
0.00508195
0.00617773
0.00733652
0.00843996
0.00951577
0.0106661
0.0118927
0.0130787
0.0142164
0.0154362
0.0167566
0.0181433
0.0195957
0.0210881
0.0226247
0.024205
0.0258054
0.0274661
0.0291934
0.0310477
0.0329524
0.0348809
0.0369014
0.0390515
0.0412516
0.0435438
0.0459692
0.048459
0.051042
0.0536707
0.0564488
0.0592897
0.0622777
0.065344
0.0685064
0.071805
0.075028
0.0785001
0.00171123
-0.00612221
-0.00913378
-0.00733151
-0.004836
-0.00290724
-0.00146866
-0.000353443
0.000613578
0.00170352
0.00293341
0.0040633
0.00508338
0.00617897
0.00733765
0.00844101
0.0095167
0.0106669
0.0118935
0.0130793
0.014217
0.0154367
0.0167571
0.0181437
0.0195961
0.0210885
0.022625
0.0242053
0.0258057
0.0274664
0.0291936
0.0310479
0.0329525
0.0348811
0.0369015
0.0390516
0.0412517
0.0435439
0.0459693
0.048459
0.0510421
0.0536707
0.0564488
0.0592897
0.0622778
0.065344
0.0685064
0.071805
0.075028
0.0785001
0.00155264
-0.00602806
-0.00906659
-0.00731083
-0.00482651
-0.00290082
-0.00146382
-0.000349671
0.000616433
0.00170568
0.00293516
0.00406481
0.00508466
0.00618008
0.00733867
0.00844194
0.00951754
0.0106676
0.0118941
0.0130799
0.0142175
0.0154371
0.0167575
0.018144
0.0195964
0.0210888
0.0226253
0.0242055
0.0258059
0.0274666
0.0291938
0.0310481
0.0329527
0.0348812
0.0369017
0.0390517
0.0412518
0.0435439
0.0459694
0.0484591
0.0510421
0.0536707
0.0564488
0.0592897
0.0622778
0.065344
0.0685064
0.0718051
0.0750281
0.0785001
0.00140732
-0.00589722
-0.00896354
-0.00727828
-0.00481372
-0.00289313
-0.00145826
-0.00034525
0.000619909
0.00170828
0.00293716
0.00406643
0.005086
0.00618123
0.0073397
0.00844289
0.00951837
0.0106684
0.0118948
0.0130806
0.0142181
0.0154376
0.0167579
0.0181444
0.0195967
0.021089
0.0226255
0.0242058
0.0258061
0.0274668
0.029194
0.0310482
0.0329528
0.0348813
0.0369018
0.0390518
0.0412519
0.043544
0.0459694
0.0484591
0.0510422
0.0536708
0.0564489
0.0592897
0.0622778
0.065344
0.0685064
0.0718051
0.0750281
0.0785002
0.00128388
-0.00573995
-0.00883078
-0.00723343
-0.00479655
-0.00288334
-0.00145149
-0.000339712
0.000624592
0.00171187
0.00293973
0.00406838
0.00508759
0.00618256
0.00734085
0.0084439
0.00951928
0.0106692
0.0118956
0.0130813
0.0142187
0.0154381
0.0167583
0.0181448
0.0195971
0.0210894
0.0226258
0.024206
0.0258064
0.027467
0.0291942
0.0310484
0.032953
0.0348815
0.0369019
0.0390519
0.041252
0.0435441
0.0459695
0.0484592
0.0510422
0.0536708
0.0564489
0.0592897
0.0622778
0.065344
0.0685065
0.0718051
0.0750282
0.0785003
0.00116567
-0.00557027
-0.00868106
-0.00718056
-0.00477588
-0.0028714
-0.00144342
-0.00033303
0.000630665
0.00171674
0.0029431
0.00407079
0.00508957
0.00618419
0.00734215
0.008445
0.00952028
0.0106702
0.0118965
0.0130821
0.0142194
0.0154386
0.0167588
0.0181453
0.0195975
0.0210898
0.0226261
0.0242063
0.0258067
0.0274673
0.0291944
0.0310486
0.0329532
0.0348816
0.036902
0.039052
0.0412521
0.0435442
0.0459696
0.0484592
0.0510423
0.0536708
0.0564489
0.0592898
0.0622778
0.0653441
0.0685065
0.0718051
0.0750282
0.0785004
0.00104371
-0.00539521
-0.00852161
-0.00712322
-0.00475308
-0.00285769
-0.00143419
-0.000325433
0.000637948
0.0017229
0.00294737
0.00407378
0.00509207
0.00618624
0.0073437
0.00844625
0.00952139
0.0106712
0.0118975
0.0130831
0.0142202
0.0154394
0.0167594
0.0181459
0.019598
0.0210902
0.0226265
0.0242066
0.025807
0.0274676
0.0291947
0.0310488
0.0329534
0.0348818
0.0369022
0.0390522
0.0412522
0.0435443
0.0459696
0.0484593
0.0510423
0.0536709
0.056449
0.0592898
0.0622778
0.0653441
0.0685065
0.0718052
0.0750284
0.0785006
0.000918023
-0.00521666
-0.00835501
-0.00706301
-0.00472907
-0.00284259
-0.00142396
-0.000317222
0.000646033
0.00173009
0.00295248
0.00407737
0.00509513
0.00618882
0.0073456
0.00844771
0.00952266
0.0106723
0.0118986
0.0130842
0.0142213
0.0154402
0.0167602
0.0181465
0.0195987
0.0210908
0.0226269
0.024207
0.0258073
0.0274679
0.029195
0.0310491
0.0329536
0.034882
0.0369024
0.0390524
0.0412523
0.0435444
0.0459698
0.0484594
0.0510424
0.053671
0.056449
0.0592899
0.0622779
0.0653441
0.0685065
0.0718052
0.0750286
0.0785008
0.000791318
-0.00503518
-0.00818196
-0.00700038
-0.00470429
-0.00282642
-0.00141289
-0.000308623
0.000654537
0.00173793
0.00295823
0.00408146
0.00509873
0.00619194
0.00734794
0.00844949
0.00952415
0.0106736
0.0118997
0.0130854
0.0142225
0.0154413
0.0167611
0.0181474
0.0195994
0.0210914
0.0226274
0.0242074
0.0258077
0.0274684
0.0291954
0.0310495
0.0329539
0.0348823
0.0369027
0.0390526
0.0412525
0.0435446
0.0459699
0.0484595
0.0510425
0.053671
0.0564491
0.0592899
0.0622779
0.0653442
0.0685065
0.0718053
0.0750288
0.0785011
0.000665532
-0.00485138
-0.00800244
-0.00693529
-0.00467895
-0.0028094
-0.00140106
-0.00029975
0.00066324
0.00174614
0.00296441
0.00408595
0.00510274
0.00619552
0.00735073
0.00845165
0.00952595
0.010675
0.0119009
0.0130867
0.0142239
0.0154426
0.0167622
0.0181484
0.0196004
0.0210922
0.022628
0.0242078
0.0258082
0.0274689
0.0291959
0.0310499
0.0329543
0.0348827
0.036903
0.0390529
0.0412528
0.0435448
0.0459701
0.0484597
0.0510427
0.0536712
0.0564492
0.05929
0.062278
0.0653443
0.0685066
0.0718053
0.0750291
0.0785015
0.000541496
-0.00466582
-0.0078161
-0.00686747
-0.00465313
-0.0027916
-0.00138847
-0.000290612
0.000672074
0.00175461
0.00297092
0.00409073
0.00510705
0.00619946
0.0073539
0.00845421
0.00952808
0.0106767
0.0119021
0.0130879
0.0142253
0.015444
0.0167635
0.0181496
0.0196015
0.0210931
0.0226287
0.0242083
0.0258087
0.0274696
0.0291966