/*--------------------------------*- C++ -*----------------------------------*\
| =========                 |                                                 |
| \\      /  F ield         | OpenFOAM: The Open Source CFD Toolbox           |
|  \\    /   O peration     | Version:  v2012                                 |
|   \\  /    A nd           | Website:  www.openfoam.com                      |
|    \\/     M anipulation  |                                                 |
\*---------------------------------------------------------------------------*/
FoamFile
{
    version     2.0;
    format      ascii;
    class       surfaceScalarField;
    location    "0.8";
    object      phi;
}
// * * * * * * * * * * * * * * * * * * * * * * * * * * * * * * * * * * * * * //

dimensions      [0 3 -1 0 0 0 0];
oriented        oriented;


internalField   nonuniform List<scalar> 
13830
(
9.75414e-07
2.04605e-07
8.23824e-07
-5.30811e-07
9.56075e-07
-6.36242e-07
9.64043e-07
1.3069e-06
8.76094e-07
1.6829e-07
9.74772e-07
-3.35816e-07
9.79058e-07
5.87207e-08
9.03018e-07
2.72254e-08
9.42695e-07
7.23871e-07
9.01501e-07
-2.07083e-07
9.3477e-07
9.39652e-08
9.2118e-07
-1.24088e-08
9.32692e-07
1.83606e-07
9.23992e-07
1.87374e-07
9.23754e-07
2.34944e-07
9.25069e-07
2.47006e-07
9.21479e-07
2.37497e-07
9.25293e-07
2.41817e-07
9.20741e-07
1.96774e-07
1.9986e-07
9.16049e-07
1.01153e-06
1.6561e-07
8.57745e-07
-3.7703e-07
9.96491e-07
-7.74987e-07
1.01274e-06
1.29065e-06
9.19499e-07
2.61528e-07
1.01322e-06
-4.29534e-07
1.01746e-06
5.44744e-08
9.41148e-07
1.0354e-07
9.775e-07
6.87519e-07
9.36315e-07
-1.65897e-07
9.6958e-07
6.06996e-08
9.55395e-07
1.77627e-09
9.66848e-07
1.72154e-07
9.59702e-07
1.94519e-07
9.56278e-07
2.38368e-07
9.63645e-07
2.39638e-07
9.51532e-07
2.4961e-07
9.66033e-07
2.27316e-07
9.47017e-07
2.1579e-07
1.82463e-07
9.64414e-07
1.04699e-06
1.28077e-07
9.00546e-07
-2.30589e-07
1.0367e-06
-9.11137e-07
1.07016e-06
1.25719e-06
9.71198e-07
3.60485e-07
1.05102e-06
-5.09358e-07
1.05746e-06
4.80382e-08
9.88074e-07
1.72924e-07
1.0146e-06
6.6099e-07
9.8076e-07
-1.32054e-07
1.0042e-06
3.72641e-08
9.99976e-07
5.99557e-09
9.99407e-07
1.72722e-07
1.0048e-06
1.89127e-07
9.88118e-07
2.5505e-07
1.00482e-06
2.22936e-07
9.84796e-07
2.69635e-07
1.00042e-06
2.11693e-07
9.8437e-07
2.31839e-07
1.74779e-07
9.92054e-07
1.08225e-06
9.36017e-08
9.51325e-07
-9.96624e-08
1.0785e-06
-1.03832e-06
1.12904e-06
1.20665e-06
1.02652e-06
4.63009e-07
1.08797e-06
-5.70809e-07
1.09684e-06
3.91718e-08
1.04073e-06
2.29027e-07
1.05546e-06
6.46263e-07
1.03144e-06
-1.08031e-07
1.04149e-06
2.7207e-08
1.04818e-06
-6.92466e-10
1.03698e-06
1.8392e-07
1.049e-06
1.77107e-07
1.02763e-06
2.76425e-07
1.04195e-06
2.08619e-07
1.02609e-06
2.85492e-07
1.0342e-06
2.03578e-07
1.02626e-06
2.39781e-07
1.73787e-07
1.02725e-06
1.11731e-06
6.38491e-08
1.00874e-06
8.90102e-09
1.12056e-06
-1.15013e-06
1.18306e-06
1.14416e-06
1.08249e-06
5.63581e-07
1.1236e-06
-6.11922e-07
1.13455e-06
2.82166e-08
1.09495e-06
2.68633e-07
1.09936e-06
6.41852e-07
1.08358e-06
-9.22483e-08
1.08183e-06
2.89516e-08
1.09516e-06
-1.40218e-08
1.08074e-06
1.9834e-07
1.09236e-06
1.65486e-07
1.07478e-06
2.94006e-07
1.08224e-06
2.01159e-07
1.0728e-06
2.94933e-07
1.07499e-06
2.01384e-07
1.07126e-06
2.43513e-07
1.75459e-07
1.06959e-06
1.15259e-06
4.00974e-08
1.07e-06
9.14939e-08
1.1615e-06
-1.24163e-06
1.2281e-06
1.07755e-06
1.13711e-06
6.5457e-07
1.15827e-06
-6.33075e-07
1.17054e-06
1.59437e-08
1.14693e-06
2.92244e-07
1.14506e-06
6.43719e-07
1.13405e-06
-8.1233e-08
1.12468e-06
3.83217e-08
1.13969e-06
-2.9031e-08
1.12814e-06
2.0989e-07
1.13693e-06
1.56697e-07
1.12534e-06
3.05589e-07
1.12784e-06
1.98658e-07
1.12201e-06
3.0077e-07
1.12151e-06
2.01882e-07
1.11888e-06
2.46138e-07
1.78076e-07
1.11627e-06
1.18899e-06
2.28024e-08
1.13206e-06
1.48424e-07
1.20073e-06
-1.31029e-06
1.26363e-06
1.01464e-06
1.1892e-06
7.29005e-07
1.19295e-06
-6.36825e-07
1.20523e-06
3.65763e-09
1.19483e-06
3.0265e-07
1.19118e-06
6.47368e-07
1.18242e-06
-7.2473e-08
1.16888e-06
5.18627e-08
1.18261e-06
-4.27591e-08
1.17544e-06
2.17058e-07
1.18228e-06
1.4985e-07
1.1751e-06
3.12771e-07
1.17581e-06
1.97951e-07
1.17139e-06
3.05191e-07
1.17004e-06
2.03233e-07
1.16751e-06
2.48666e-07
1.8109e-07
1.1645e-06
1.22754e-06
1.14445e-08
1.19283e-06
1.83134e-07
1.23886e-06
-1.35632e-06
1.29242e-06
9.61078e-07
1.23832e-06
7.83104e-07
1.22896e-06
-6.27463e-07
1.2395e-06
-6.87948e-09
1.23879e-06
3.03356e-07
1.23676e-06
6.49396e-07
1.2296e-06
-6.53089e-08
1.21368e-06
6.77784e-08
1.22507e-06
-5.4148e-08
1.22091e-06
2.21217e-07
1.22715e-06
1.43613e-07
1.22238e-06
3.17543e-07
1.22316e-06
1.97167e-07
1.21952e-06
3.08836e-07
1.218e-06
2.04748e-07
1.21566e-06
2.51008e-07
1.84262e-07
1.21249e-06
1.26903e-06
4.77085e-09
1.25153e-06
2.00627e-07
1.27732e-06
-1.3821e-06
1.31898e-06
9.19418e-07
1.28498e-06
8.17105e-07
1.26757e-06
-6.10051e-07
1.27476e-06
-1.40722e-08
1.28039e-06
2.97723e-07
1.28178e-06
6.48013e-07
1.27666e-06
-6.01896e-08
1.25927e-06
8.51652e-08
1.26818e-06
-6.30608e-08
1.26521e-06
2.24194e-07
1.27134e-06
1.37478e-07
1.26773e-06
3.2116e-07
1.26909e-06
1.95805e-07
1.2663e-06
3.11624e-07
1.26481e-06
2.06239e-07
1.26305e-06
2.52766e-07
1.87349e-07
1.25996e-06
1.31377e-06
1.28152e-09
1.30842e-06
2.05979e-07
1.31766e-06
-1.39135e-06
1.34764e-06
8.89434e-07
1.33045e-06
8.343e-07
1.30956e-06
-5.89165e-07
1.31271e-06
-1.72223e-08
1.32186e-06
2.88572e-07
1.32696e-06
6.42916e-07
1.32444e-06
-5.76676e-08
1.30631e-06
1.0329e-07
1.31291e-06
-6.9656e-08
1.30992e-06
2.27179e-07
1.31579e-06
1.31608e-07
1.31273e-06
3.24222e-07
1.31445e-06
1.94087e-07
1.31272e-06
3.13347e-07
1.31126e-06
2.07701e-07
1.31041e-06
2.53615e-07
1.90112e-07
1.30765e-06
1.36162e-06
-3.2023e-10
1.36418e-06
2.03421e-07
1.3609e-06
-1.38807e-06
1.38127e-06
8.69066e-07
1.37636e-06
8.39217e-07
1.35514e-06
-5.67949e-07
1.35464e-06
-1.67241e-08
1.36525e-06
2.77961e-07
1.37329e-06
6.3488e-07
1.3735e-06
-5.78814e-08
1.35536e-06
1.21438e-07
1.35988e-06
-7.41803e-08
1.3564e-06
2.30664e-07
1.36165e-06
1.26357e-07
1.35895e-06
3.26917e-07
1.36057e-06
1.92467e-07
1.36005e-06
3.13864e-07
1.35855e-06
2.09203e-07
1.35873e-06
2.53435e-07
1.92402e-07
1.35644e-06
1.41224e-06
-9.05072e-10
1.41962e-06
1.96041e-07
1.40745e-06
-1.3759e-06
1.42097e-06
8.55547e-07
1.42413e-06
8.3606e-07
1.40411e-06
-5.47931e-07
1.40102e-06
-1.36353e-08
1.41188e-06
2.67103e-07
1.42158e-06
6.25176e-07
1.42422e-06
-6.05186e-08
1.40666e-06
1.39e-07
1.40938e-06
-7.69052e-08
1.40537e-06
2.34676e-07
1.40972e-06
1.22003e-07
1.40746e-06
3.29176e-07
1.40852e-06
1.91408e-07
1.40925e-06
3.13135e-07
1.4076e-06
2.10855e-07
1.40874e-06
2.52291e-07
1.94192e-07
1.40695e-06
1.46527e-06
-9.32664e-10
1.47543e-06
1.85889e-07
1.4572e-06
-1.35767e-06
1.4665e-06
8.46243e-07
1.47462e-06
8.27937e-07
1.45614e-06
-5.2945e-07
1.45156e-06
-9.0515e-09
1.46215e-06
2.56513e-07
1.47231e-06
6.15014e-07
1.47679e-06
-6.49941e-08
1.46027e-06
1.55519e-07
1.46144e-06
-7.80796e-08
1.45711e-06
2.39006e-07
1.4604e-06
1.18715e-07
1.4588e-06
3.30777e-07
1.45893e-06
1.91277e-07
1.46087e-06
3.11191e-07
1.45896e-06
2.12768e-07
1.46088e-06
2.50374e-07
1.95546e-07
1.45952e-06
1.52054e-06
-5.9829e-10
1.53217e-06
1.74261e-07
1.50981e-06
-1.33532e-06
1.51704e-06
8.39018e-07
1.52817e-06
8.16806e-07
1.51097e-06
-5.1225e-07
1.50563e-06
-3.7143e-09
1.51588e-06
2.46267e-07
1.52567e-06
6.05219e-07
1.53132e-06
-7.06422e-08
1.51616e-06
1.70675e-07
1.51599e-06
-7.79011e-08
1.51165e-06
2.43343e-07
1.51377e-06
1.16591e-07
1.51313e-06
3.3142e-07
1.51215e-06
1.92252e-07
1.51522e-06
3.08129e-07
1.51298e-06
2.15008e-07
1.51543e-06
2.47923e-07
1.96575e-07
1.5144e-06
1.578e-06
9.11152e-12
1.59026e-06
1.62001e-07
1.56498e-06
-1.31004e-06
1.57177e-06
8.32236e-07
1.58476e-06
8.03815e-07
1.5684e-06
-4.95893e-07
1.56265e-06
2.03669e-09
1.57268e-06
2.36239e-07
1.58172e-06
5.96174e-07
1.58792e-06
-7.68408e-08
1.57434e-06
1.84256e-07
1.57294e-06
-7.6507e-08
1.56895e-06
2.47341e-07
1.56982e-06
1.15714e-07
1.57046e-06
3.30785e-07
1.56837e-06
1.94337e-07
1.57243e-06
3.04075e-07
1.56986e-06
2.17569e-07
1.57261e-06
2.45176e-07
1.974e-07
1.57179e-06
1.63774e-06
8.09189e-10
1.65004e-06
1.49706e-07
1.62254e-06
-1.28254e-06
1.63015e-06
8.24625e-07
1.64428e-06
7.89685e-07
1.62832e-06
-4.7993e-07
1.62224e-06
8.11433e-09
1.63224e-06
2.26244e-07
1.64047e-06
5.87939e-07
1.6467e-06
-8.30626e-08
1.63481e-06
1.96143e-07
1.63227e-06
-7.39677e-08
1.62895e-06
2.50658e-07
1.6285e-06
1.16164e-07
1.6307e-06
3.28589e-07
1.62761e-06
1.97421e-07
1.63252e-06
2.99171e-07
1.62971e-06
2.2038e-07
1.63254e-06
2.42341e-07
1.9813e-07
1.63181e-06
1.69985e-06
1.70613e-09
1.71174e-06
1.37823e-07
1.6825e-06
-1.2533e-06
1.69194e-06
8.15184e-07
1.70665e-06
7.74972e-07
1.69068e-06
-4.63957e-07
1.68428e-06
1.4515e-08
1.69441e-06
2.16109e-07
1.70196e-06
5.8039e-07
1.70778e-06
-8.88773e-08
1.69762e-06
2.06294e-07
1.69394e-06
-7.02819e-08
1.69163e-06
2.52966e-07
1.68978e-06
1.18011e-07
1.6937e-06
3.24673e-07
1.6898e-06
2.01326e-07
1.69538e-06
2.93587e-07
1.69244e-06
2.23315e-07
1.69521e-06
2.39577e-07
1.98843e-07
1.69449e-06
1.76441e-06
2.61238e-09
1.77558e-06
1.26654e-07
1.745e-06
-1.22272e-06
1.75699e-06
8.03187e-07
1.77179e-06
7.60172e-07
1.75547e-06
-4.47633e-07
1.74877e-06
2.12194e-08
1.75916e-06
2.05715e-07
1.76623e-06
5.73318e-07
1.77129e-06
-9.39368e-08
1.76285e-06
2.14734e-07
1.75796e-06
-6.5389e-08
1.75696e-06
2.53966e-07
1.75365e-06
1.21318e-07
1.75927e-06
3.19051e-07
1.75475e-06
2.05851e-07
1.7608e-06
2.87536e-07
1.75789e-06
2.26221e-07
1.76048e-06
2.36986e-07
1.99577e-07
1.75975e-06
1.83147e-06
3.48127e-09
1.84179e-06
1.1633e-07
1.81024e-06
-1.19117e-06
1.82519e-06
7.88238e-07
1.83965e-06
7.4571e-07
1.82274e-06
-4.30721e-07
1.81579e-06
2.81646e-08
1.82648e-06
1.95028e-07
1.83333e-06
5.66469e-07
1.83736e-06
-9.79669e-08
1.83058e-06
2.21516e-07
1.82437e-06
-5.91813e-08
1.82494e-06
2.53392e-07
1.82013e-06
1.26129e-07
1.82726e-06
3.11924e-07
1.82231e-06
2.10799e-07
1.82858e-06
2.8127e-07
1.82586e-06
2.2894e-07
1.82823e-06
2.34611e-07
2.00321e-07
1.82749e-06
1.90106e-06
4.31927e-09
1.91059e-06
1.06797e-07
1.87838e-06
-1.15895e-06
1.89632e-06
7.70292e-07
1.91016e-06
7.31878e-07
1.89255e-06
-4.1311e-07
1.88546e-06
3.52545e-08
1.89636e-06
1.84121e-07
1.90326e-06
5.59572e-07
1.90605e-06
-1.00761e-07
1.90091e-06
2.26664e-07
1.89324e-06
-5.15153e-08
1.8956e-06
2.51027e-07
1.88931e-06
1.32425e-07
1.89758e-06
3.03647e-07
1.8924e-06
2.1598e-07
1.89861e-06
2.75066e-07
1.89622e-06
2.3133e-07
1.89837e-06
2.32454e-07
2.0103e-07
1.89767e-06
1.97325e-06
5.17127e-09
1.98219e-06
9.78542e-08
1.9495e-06
-1.12625e-06
1.97018e-06
7.49606e-07
1.98327e-06
7.18789e-07
1.96497e-06
-3.94812e-07
1.95785e-06
4.23729e-08
1.96881e-06
1.73171e-07
1.97601e-06
5.52363e-07
1.97742e-06
-1.02162e-07
1.97396e-06
2.30118e-07
1.96468e-06
-4.22359e-08
1.96895e-06
2.4676e-07
1.96129e-06
1.40082e-07
1.97028e-06
2.94661e-07
1.96506e-06
2.21203e-07
1.97094e-06
2.69184e-07
1.96897e-06
2.33297e-07
1.97094e-06
2.30482e-07
2.01643e-07
1.97033e-06
2.04813e-06
6.09222e-09
2.05676e-06
8.92204e-08
2.02361e-06
-1.0931e-06
2.04658e-06
7.26627e-07
2.05898e-06
7.06396e-07
2.0401e-06
-3.75935e-07
2.03309e-06
4.93863e-08
2.04383e-06
1.62432e-07
2.05159e-06
5.44603e-07
2.05146e-06
-1.02036e-07
2.04984e-06
2.31735e-07
2.03884e-06
-3.12337e-08
2.04497e-06
2.40631e-07
2.0362e-06
1.48853e-07
2.04545e-06
2.85409e-07
2.04038e-06
2.26271e-07
2.04574e-06
2.63822e-07
2.04423e-06
2.34814e-07
2.04607e-06
2.28642e-07
2.02106e-07
2.0456e-06
2.12581e-06
7.12414e-09
2.13441e-06
8.06151e-08
2.10071e-06
-1.05939e-06
2.12547e-06
7.01865e-07
2.13732e-06
6.94544e-07
2.11802e-06
-3.56635e-07
2.11127e-06
5.61373e-08
2.12149e-06
1.52206e-07
2.13001e-06
5.36082e-07
2.1282e-06
-1.00219e-07
2.12861e-06
2.31324e-07
2.11586e-06
-1.84882e-08
2.12365e-06
2.32849e-07
2.11412e-06
1.58378e-07
2.12324e-06
2.76294e-07
2.11852e-06
2.30986e-07
2.12326e-06
2.59086e-07
2.12215e-06
2.35918e-07
2.12392e-06
2.2687e-07
2.0238e-07
2.12365e-06
2.20642e-06
8.28883e-09
2.21523e-06
7.18081e-08
2.18082e-06
-1.02498e-06
2.20689e-06
6.75797e-07
2.21839e-06
6.83041e-07
2.19883e-06
-3.37067e-07
2.19253e-06
6.24392e-08
2.20192e-06
1.42809e-07
2.21141e-06
5.26597e-07
2.2077e-06
-9.65082e-08
2.21029e-06
2.28729e-07
2.1959e-06
-4.09738e-09
2.20499e-06
2.23756e-07
2.19514e-06
1.68228e-07
2.20379e-06
2.67648e-07
2.19961e-06
2.35165e-07
2.20371e-06
2.54986e-07
2.20294e-06
2.36684e-07
2.20471e-06
2.25098e-07
2.02444e-07
2.20465e-06
2.29009e-06
9.59342e-09
2.29926e-06
6.26376e-08
2.26403e-06
-9.89754e-07
2.291e-06
6.48822e-07
2.30235e-06
6.71695e-07
2.28264e-06
-3.1736e-07
2.277e-06
6.80802e-08
2.28527e-06
1.34545e-07
2.2959e-06
5.15966e-07
2.2901e-06
-9.07103e-08
2.2949e-06
2.23929e-07
2.27909e-06
1.17117e-08
2.28906e-06
2.1379e-07
2.27934e-06
1.77943e-07
2.28726e-06
2.59728e-07
2.28375e-06
2.38675e-07
2.28728e-06
2.51453e-07
2.28678e-06
2.37189e-07
2.28862e-06
2.23258e-07
2.02289e-07
2.28877e-06
2.37694e-06
1.10396e-08
2.38657e-06
5.30025e-08
2.35044e-06
-9.53623e-07
2.378e-06
6.21268e-07
2.38935e-06
6.60339e-07
2.36958e-06
-2.97589e-07
2.36483e-06
7.28358e-08
2.37169e-06
1.27679e-07
2.3836e-06
5.04055e-07
2.3756e-06
-8.27063e-08
2.38247e-06
2.17059e-07
2.36558e-06
2.86059e-08
2.37594e-06
2.03426e-07
2.36681e-06
1.87074e-07
2.37383e-06
2.52705e-07
2.37104e-06
2.4147e-07
2.37409e-06
2.484e-07
2.37383e-06
2.37448e-07
2.3758e-06
2.21296e-07
2.01922e-07
2.37616e-06
2.46709e-06
1.26301e-08
2.47724e-06
4.28465e-08
2.4402e-06
-9.16578e-07
2.46806e-06
5.93408e-07
2.47958e-06
6.48812e-07
2.45977e-06
-2.77772e-07
2.45611e-06
7.64913e-08
2.46138e-06
1.22407e-07
2.47463e-06
4.90808e-07
2.46442e-06
-7.24991e-08
2.47307e-06
2.08411e-07
2.45551e-06
4.61698e-08
2.46579e-06
1.9314e-07
2.45766e-06
1.9521e-07
2.4637e-06
2.46665e-07
2.46159e-06
2.43574e-07
2.46422e-06
2.45773e-07
2.46426e-06
2.37412e-07
2.46638e-06
2.19171e-07
2.01375e-07
2.46693e-06
2.56066e-06
1.43706e-08
2.57136e-06
3.21443e-08
2.53345e-06
-8.78661e-07
2.56137e-06
5.65486e-07
2.57322e-06
6.36957e-07
2.55331e-06
-2.57861e-07
2.55094e-06
7.88672e-08
2.5545e-06
1.1884e-07
2.56906e-06
4.76248e-07
2.55679e-06
-6.02283e-08
2.56681e-06
1.98389e-07
2.54905e-06
6.39371e-08
2.55879e-06
1.83393e-07
2.55202e-06
2.01982e-07
2.55707e-06
2.4162e-07
2.55562e-06
2.45023e-07
2.55793e-06
2.43456e-07
2.55825e-06
2.37091e-07
2.56049e-06
2.16937e-07
2.00705e-07
2.56116e-06
2.65778e-06
1.62695e-08
2.66903e-06
2.0895e-08
2.63033e-06
-8.39965e-07
2.65809e-06
5.37727e-07
2.67044e-06
6.24606e-07
2.65033e-06
-2.37751e-07
2.64936e-06
7.98407e-08
2.6512e-06
1.16996e-07
2.66698e-06
4.60473e-07
2.65291e-06
-4.61601e-08
2.66384e-06
1.87467e-07
2.64636e-06
8.14083e-08
2.65515e-06
1.74611e-07
2.65008e-06
2.07052e-07
2.65416e-06
2.37532e-07
2.65348e-06
2.45706e-07
2.65591e-06
2.41031e-07
2.65626e-06
2.36734e-07
2.65822e-06
2.14981e-07
1.99987e-07
2.65894e-06
2.75859e-06
1.83351e-08
2.77036e-06
9.12026e-09
2.73102e-06
-8.00621e-07
2.7584e-06
5.10343e-07
2.77143e-06
6.11576e-07
2.75097e-06
-2.17285e-07
2.75146e-06
7.93456e-08
2.75165e-06
1.16807e-07
2.76847e-06
4.43652e-07
2.75299e-06
-3.06794e-08
2.7643e-06
1.76153e-07
2.74763e-06
9.80777e-08
2.7551e-06
1.67148e-07
2.752e-06
2.10153e-07
2.75523e-06
2.34296e-07
2.75568e-06
2.45261e-07
2.7586e-06
2.38103e-07
2.75877e-06
2.36569e-07
2.75965e-06
2.141e-07
1.9928e-07
2.76036e-06
2.86322e-06
2.05725e-08
2.87548e-06
-3.13437e-09
2.83565e-06
-7.60793e-07
2.86246e-06
4.83535e-07
2.87636e-06
5.97671e-07
2.85536e-06
-1.96285e-07
2.85732e-06
7.73871e-08
2.856e-06
1.18123e-07
2.87363e-06
4.26028e-07
2.8572e-06
-1.42553e-08
2.86841e-06
1.64945e-07
2.853e-06
1.13484e-07
2.85892e-06
1.61232e-07
2.85782e-06
2.1125e-07
2.86053e-06
2.31589e-07
2.86254e-06
2.4325e-07
2.86488e-06
2.35761e-07
2.86591e-06
2.35538e-07
2.86483e-06
2.15181e-07
1.98577e-07
2.86554e-06
2.97184e-06
2.29804e-08
2.9845e-06
-1.57992e-08
2.94438e-06
-7.20667e-07
2.97042e-06
4.57489e-07
2.9854e-06
5.82688e-07
2.96371e-06
-1.74592e-07
2.96703e-06
7.407e-08
2.96444e-06
1.20717e-07
2.98257e-06
4.07894e-07
2.9657e-06
2.61089e-09
2.97639e-06
1.54256e-07
2.96257e-06
1.27303e-07
2.96691e-06
1.56892e-07
2.96751e-06
2.10653e-07
2.9702e-06
2.28903e-07
2.97298e-06
2.40464e-07
2.97514e-06
2.33605e-07
2.97495e-06
2.35729e-07
2.97382e-06
2.16314e-07
1.97768e-07
2.97462e-06
3.08459e-06
2.55484e-08
3.09757e-06
-2.87827e-08
3.05736e-06
-6.8045e-07
3.08246e-06
4.32384e-07
3.09872e-06
5.6643e-07
3.07622e-06
-1.5209e-07
3.08071e-06
6.95829e-08
3.07713e-06
1.24291e-07
3.09543e-06
3.896e-07
3.07862e-06
1.94144e-08
3.08849e-06
1.44385e-07
3.07638e-06
1.39411e-07
3.0793e-06
1.53974e-07
3.08099e-06
2.08965e-07
3.0839e-06
2.25991e-07
3.08464e-06
2.39727e-07
3.08474e-06
2.3351e-07
3.08597e-06
2.34498e-07
3.08671e-06
2.15568e-07
1.96679e-07
3.0878e-06
3.20165e-06
2.82575e-08
3.21485e-06
-4.1977e-08
3.17476e-06
-6.40361e-07
3.19874e-06
4.08406e-07
3.21643e-06
5.48733e-07
3.19307e-06
-1.28728e-07
3.19847e-06
6.4179e-08
3.19429e-06
1.28476e-07
3.21232e-06
3.71565e-07
3.1961e-06
3.56401e-08
3.20493e-06
1.35555e-07
3.19445e-06
1.49891e-07
3.19618e-06
1.52245e-07
3.19782e-06
2.0732e-07
3.19886e-06
2.24956e-07
3.19758e-06
2.40999e-07
3.19893e-06
2.32163e-07
3.20082e-06
2.32613e-07
3.20377e-06
2.12612e-07
1.95217e-07
3.20523e-06
3.32319e-06
3.10802e-08
3.33647e-06
-5.52615e-08
3.29675e-06
-6.00634e-07
3.3194e-06
3.85758e-07
3.33861e-06
5.29515e-07
3.31447e-06
-1.04584e-07
3.32047e-06
5.8176e-08
3.31612e-06
1.32832e-07
3.33342e-06
3.54265e-07
3.31825e-06
5.08044e-08
3.32587e-06
1.27934e-07
3.31685e-06
1.5891e-07
3.31739e-06
1.51714e-07
3.31769e-06
2.07015e-07
3.31681e-06
2.25836e-07
3.31696e-06
2.40846e-07
3.31942e-06
2.29703e-07
3.32318e-06
2.28853e-07
3.32525e-06
2.10542e-07
1.93395e-07
3.32708e-06
3.44938e-06
3.39818e-08
3.46263e-06
-6.85058e-08
3.42352e-06
-5.61525e-07
3.4446e-06
3.64678e-07
3.46536e-06
5.08746e-07
3.44062e-06
-7.9837e-08
3.44686e-06
5.19369e-08
3.44281e-06
1.36883e-07
3.4589e-06
3.38171e-07
3.44517e-06
6.45369e-08
3.45151e-06
1.21591e-07
3.44359e-06
1.66826e-07
3.4428e-06
1.5251e-07
3.44224e-06
2.07573e-07
3.44179e-06
2.26281e-07
3.4421e-06
2.40535e-07
3.44467e-06
2.27135e-07
3.44906e-06
2.24464e-07
3.45137e-06
2.0823e-07
1.91277e-07
3.45349e-06
3.5804e-06
3.69229e-08
3.59347e-06
-8.15744e-08
3.55526e-06
-5.23315e-07
3.5745e-06
3.45444e-07
3.5968e-06
4.8644e-07
3.57173e-06
-5.47588e-08
3.57778e-06
4.58793e-08
3.57457e-06
1.40094e-07
3.58899e-06
3.23758e-07
3.57687e-06
7.66494e-08
3.58197e-06
1.16498e-07
3.57466e-06
1.74134e-07
3.57199e-06
1.55176e-07
3.57211e-06
2.07462e-07
3.57197e-06
2.26417e-07
3.57264e-06
2.39864e-07
3.57474e-06
2.25039e-07
3.5781e-06
2.21096e-07
3.58234e-06
2.03997e-07
1.88945e-07
3.58467e-06
3.71645e-06
3.98612e-08
3.7292e-06
-9.43297e-08
3.69221e-06
-4.86319e-07
3.7093e-06
3.28353e-07
3.73306e-06
4.62675e-07
3.70802e-06
-2.9718e-08
3.71341e-06
4.04884e-08
3.71164e-06
1.41863e-07
3.72394e-06
3.11464e-07
3.71338e-06
8.72016e-08
3.71736e-06
1.12518e-07
3.71016e-06
1.81338e-07
3.70557e-06
1.59765e-07
3.70696e-06
2.06075e-07
3.70726e-06
2.26114e-07
3.70845e-06
2.38673e-07
3.71053e-06
2.22962e-07
3.71488e-06
2.16747e-07
3.71833e-06
2.00544e-07
1.8647e-07
3.7208e-06
3.8577e-06
4.27519e-08
3.87e-06
-1.06631e-07
3.83455e-06
-4.50872e-07
3.84922e-06
3.13688e-07
3.87429e-06
4.37601e-07
3.8497e-06
-5.12517e-09
3.85394e-06
3.62519e-08
3.85407e-06
1.41732e-07
3.86411e-06
3.01425e-07
3.8547e-06
9.661e-08
3.85777e-06
1.09442e-07
3.85083e-06
1.88284e-07
3.84499e-06
1.65604e-07
3.84701e-06
2.04057e-07
3.84791e-06
2.25212e-07
3.84954e-06
2.37037e-07
3.85148e-06
2.21031e-07
3.8561e-06
2.12119e-07
3.85945e-06
1.97198e-07
1.83777e-07
3.86214e-06
4.00436e-06
4.55489e-08
4.01606e-06
-1.18338e-07
3.9825e-06
-4.17309e-07
3.99455e-06
3.01634e-07
4.02066e-06
4.11491e-07
3.99697e-06
1.85723e-08
3.99956e-06
3.36611e-08
4.00181e-06
1.39476e-07
4.00987e-06
2.93368e-07
4.00091e-06
1.0557e-07
4.00331e-06
1.07049e-07
3.99712e-06
1.94473e-07
3.99033e-06
1.72394e-07
3.99249e-06
2.01892e-07
3.99406e-06
2.23642e-07
3.99604e-06
2.35061e-07
3.99764e-06
2.19424e-07
4.00036e-06
2.09405e-07
4.00584e-06
1.91709e-07
1.80714e-07
4.00891e-06
4.15662e-06
4.82074e-08
4.1676e-06
-1.29314e-07
4.1362e-06
-3.85914e-07
4.14563e-06
2.92205e-07
4.17235e-06
3.84773e-07
4.15005e-06
4.08707e-08
4.15044e-06
3.32778e-08
4.15492e-06
1.34994e-07
4.16149e-06
2.86799e-07
4.15227e-06
1.14786e-07
4.15398e-06
1.05336e-07
4.14911e-06
1.99351e-07
4.14158e-06
1.79923e-07
4.14361e-06
1.99864e-07
4.14581e-06
2.21439e-07
4.14811e-06
2.3276e-07
4.15003e-06
2.17501e-07
4.15354e-06
2.05902e-07
4.15774e-06
1.87503e-07
1.77176e-07
4.16128e-06
4.31471e-06
5.06827e-08
4.32482e-06
-1.39427e-07
4.29576e-06
-3.5685e-07
4.30274e-06
2.85225e-07
4.32956e-06
3.57954e-07
4.30915e-06
6.1276e-08
4.30687e-06
3.55647e-08
4.31342e-06
1.28443e-07
4.31915e-06
2.81068e-07
4.30909e-06
1.24847e-07
4.31006e-06
1.04368e-07
4.30683e-06
2.02574e-07
4.29896e-06
1.87798e-07
4.30054e-06
1.98284e-07
4.30338e-06
2.18603e-07
4.30598e-06
2.30153e-07
4.30831e-06
2.15178e-07
4.31184e-06
2.02364e-07
4.31537e-06
1.83977e-07
1.73116e-07
4.31943e-06
4.47884e-06
5.29309e-08
4.48796e-06
-1.48549e-07
4.46125e-06
-3.3014e-07
4.46612e-06
2.80361e-07
4.49252e-06
3.31549e-07
4.47444e-06
7.93591e-08
4.46939e-06
4.06123e-08
4.47738e-06
1.2045e-07
4.48302e-06
2.75434e-07
4.47181e-06
1.36051e-07
4.472e-06
1.04182e-07
4.47045e-06
2.04117e-07
4.46271e-06
1.95541e-07
4.46353e-06
1.97466e-07
4.46696e-06
2.15174e-07
4.46986e-06
2.27252e-07
4.47232e-06
2.12717e-07
4.47464e-06
2.00041e-07
4.47901e-06
1.79609e-07
1.68605e-07
4.48352e-06
4.64923e-06
5.49123e-08
4.65725e-06
-1.56569e-07
4.63281e-06
-3.0571e-07
4.636e-06
2.77175e-07
4.66146e-06
3.06086e-07
4.64609e-06
9.47299e-08
4.63846e-06
4.82473e-08
4.64703e-06
1.11873e-07
4.6531e-06
2.69371e-07
4.64095e-06
1.482e-07
4.64001e-06
1.05124e-07
4.64023e-06
2.03891e-07
4.633e-06
2.02776e-07
4.63289e-06
1.97577e-07
4.63671e-06
2.11355e-07
4.63999e-06
2.23971e-07
4.64267e-06
2.10034e-07
4.64516e-06
1.9755e-07
4.64895e-06
1.75819e-07
1.63804e-07
4.65375e-06
4.82611e-06
5.65883e-08
4.83293e-06
-1.63384e-07
4.81067e-06
-2.83455e-07
4.81264e-06
2.75203e-07
4.83664e-06
2.82093e-07
4.82427e-06
1.07092e-07
4.81445e-06
5.80708e-08
4.82261e-06
1.03714e-07
4.82942e-06
2.62564e-07
4.81676e-06
1.60859e-07
4.81447e-06
1.07412e-07
4.81637e-06
2.01991e-07
4.80997e-06
2.09175e-07
4.80895e-06
1.98592e-07
4.81284e-06
2.07471e-07
4.81663e-06
2.20176e-07
4.81958e-06
2.07089e-07
4.82283e-06
1.94297e-07
4.82549e-06
1.73159e-07
1.5895e-07
4.83035e-06
5.00974e-06
5.79239e-08
5.01527e-06
-1.68914e-07
4.99506e-06
-2.63253e-07
4.99629e-06
2.73979e-07
5.01831e-06
2.60072e-07
5.00905e-06
1.16349e-07
4.99758e-06
6.95441e-08
5.00438e-06
9.6915e-08
5.01212e-06
2.54819e-07
4.99944e-06
1.73544e-07
4.99577e-06
1.11076e-07
4.99903e-06
1.98731e-07
4.9938e-06
2.14411e-07
4.99203e-06
2.00362e-07
4.99563e-06
2.03866e-07
5e-06
2.15814e-07
5.00293e-06
2.04153e-07
5.00584e-06
1.91392e-07
5.0089e-06
1.70098e-07
1.54314e-07
5.01353e-06
5.20035e-06
5.88882e-08
5.20454e-06
-1.73107e-07
5.18625e-06
-2.44957e-07
5.1872e-06
2.73026e-07
5.20678e-06
2.40488e-07
5.20044e-06
1.22691e-07
5.18798e-06
8.20041e-08
5.19281e-06
9.20867e-08
5.20149e-06
2.46141e-07
5.1893e-06
1.85731e-07
5.18426e-06
1.16116e-07
5.18846e-06
1.94526e-07
5.18465e-06
2.18223e-07
5.18239e-06
2.02627e-07
5.18543e-06
2.00827e-07
5.19026e-06
2.10977e-07
5.19339e-06
2.01029e-07
5.19722e-06
1.8756e-07
5.1994e-06
1.67922e-07
1.50123e-07
5.20359e-06
5.39821e-06
5.94552e-08
5.40104e-06
-1.75941e-07
5.3845e-06
-2.2841e-07
5.38569e-06
2.71837e-07
5.40246e-06
2.23712e-07
5.39853e-06
1.26628e-07
5.38579e-06
9.47383e-08
5.38844e-06
8.94382e-08
5.39796e-06
2.36622e-07
5.38666e-06
1.97035e-07
5.38024e-06
1.22535e-07
5.38496e-06
1.89803e-07
5.3827e-06
2.20488e-07
5.38027e-06
2.05053e-07
5.38257e-06
1.98528e-07
5.3877e-06
2.05842e-07
5.39087e-06
1.97856e-07
5.39434e-06
1.8409e-07
5.39722e-06
1.65047e-07
1.465e-07
5.40084e-06
5.60359e-06
5.96041e-08
5.60508e-06
-1.77432e-07
5.59011e-06
-2.13439e-07
5.59215e-06
2.69793e-07
5.60582e-06
2.10046e-07
5.60359e-06
1.28856e-07
5.59112e-06
1.07213e-07
5.5917e-06
8.88499e-08
5.60181e-06
2.26517e-07
5.59179e-06
2.07054e-07
5.58404e-06
1.30285e-07
5.58884e-06
1.84999e-07
5.58812e-06
2.21209e-07
5.58591e-06
2.07271e-07
5.58739e-06
1.97042e-07
5.59258e-06
2.00653e-07
5.59613e-06
1.94312e-07
5.60014e-06
1.80077e-07
5.60259e-06
1.62594e-07
1.43455e-07
5.60564e-06
5.81677e-06
5.93181e-08
5.81695e-06
-1.77614e-07
5.80339e-06
-1.99881e-07
5.8067e-06
2.66484e-07
5.8173e-06
1.99445e-07
5.81599e-06
1.30164e-07
5.80414e-06
1.19062e-07
5.80285e-06
9.01468e-08
5.81334e-06
2.16024e-07
5.80492e-06
2.15477e-07
5.796e-06
1.39205e-07
5.80047e-06
1.80523e-07
5.8012e-06
2.20481e-07
5.79949e-06
2.08978e-07
5.80024e-06
1.96292e-07
5.80521e-06
1.95686e-07
5.80917e-06
1.90356e-07
5.81353e-06
1.75708e-07
5.81576e-06
1.60365e-07
1.40941e-07
5.81828e-06
6.03803e-06
5.85854e-08
6.03693e-06
-1.76508e-07
6.02467e-06
-1.87625e-07
6.02914e-06
2.62009e-07
6.03722e-06
1.91371e-07
6.03629e-06
1.31096e-07
6.02518e-06
1.30166e-07
6.02209e-06
9.32343e-08
6.03278e-06
2.05333e-07
6.02623e-06
2.22035e-07
6.01643e-06
1.49e-07
6.02022e-06
1.76731e-07
6.02221e-06
2.18494e-07
6.02121e-06
2.09982e-07
6.02147e-06
1.96026e-07
6.02596e-06
1.91202e-07
6.03002e-06
1.86295e-07
6.03369e-06
1.72039e-07
6.037e-06
1.57046e-07
1.38836e-07
6.03911e-06
6.26769e-06
5.74001e-08
6.26527e-06
-1.74091e-07
6.25427e-06
-1.76626e-07
6.25966e-06
2.56615e-07
6.26585e-06
1.85187e-07
6.26513e-06
1.31809e-07
6.25462e-06
1.40684e-07
6.24985e-06
9.79967e-08
6.2604e-06
1.94786e-07
6.25594e-06
2.26494e-07
6.24565e-06
1.59296e-07
6.24847e-06
1.73907e-07
6.25146e-06
2.15504e-07
6.2513e-06
2.10147e-07
6.25136e-06
1.95965e-07
6.25519e-06
1.87368e-07
6.25947e-06
1.82016e-07
6.26352e-06
1.67992e-07
6.26658e-06
1.53982e-07
1.36935e-07
6.26848e-06
6.50604e-06
5.57641e-08
6.50218e-06
-1.70226e-07
6.49253e-06
-1.66976e-07
6.49868e-06
2.50462e-07
6.50358e-06
1.80285e-07
6.50297e-06
1.32423e-07
6.49291e-06
1.50744e-07
6.48658e-06
1.04321e-07
6.49653e-06
1.84839e-07
6.49431e-06
2.28716e-07
6.48392e-06
1.69684e-07
6.4856e-06
1.72221e-07
6.48933e-06
2.11773e-07
6.48998e-06
2.09499e-07
6.49019e-06
1.95754e-07
6.49328e-06
1.84284e-07
6.49761e-06
1.7768e-07
6.50105e-06
1.64555e-07
6.5048e-06
1.50226e-07
1.35003e-07
6.50674e-06
6.75341e-06
5.36886e-08
6.7479e-06
-1.6471e-07
6.73977e-06
-1.5885e-07
6.7466e-06
2.43639e-07
6.75089e-06
1.7599e-07
6.75011e-06
1.33206e-07
6.74046e-06
1.60394e-07
6.73268e-06
1.12095e-07
6.74157e-06
1.75952e-07
6.74157e-06
2.28717e-07
6.73152e-06
1.79732e-07
6.73199e-06
1.71753e-07
6.73619e-06
2.0757e-07
6.73758e-06
2.08114e-07
6.73821e-06
1.95121e-07
6.74059e-06
1.81906e-07
6.74504e-06
1.73232e-07
6.74871e-06
1.6088e-07
6.75203e-06
1.46915e-07
1.32882e-07
6.75415e-06
7.01014e-06
5.12024e-08
7.00301e-06
-1.57581e-07
6.99635e-06
-1.52194e-07
7.00377e-06
2.36224e-07
7.00784e-06
1.71915e-07
7.00679e-06
1.34259e-07
6.99758e-06
1.69605e-07
6.98856e-06
1.21113e-07
6.996e-06
1.68513e-07
6.99801e-06
2.26707e-07
6.98876e-06
1.88983e-07
6.98799e-06
1.7252e-07
6.99245e-06
2.03108e-07
6.99445e-06
2.06112e-07
6.99565e-06
1.93923e-07
6.9975e-06
1.8006e-07
7.00168e-06
1.69044e-07
7.00496e-06
1.57607e-07
7.00861e-06
1.43262e-07
1.30471e-07
7.01102e-06
7.27654e-06
4.83567e-08
7.26818e-06
-1.49228e-07
7.26254e-06
-1.46555e-07
7.27055e-06
2.28216e-07
7.27418e-06
1.68283e-07
7.27325e-06
1.35197e-07
7.26454e-06
1.78306e-07
7.25459e-06
1.31068e-07
7.26025e-06
1.62853e-07
7.26395e-06
2.23007e-07
7.2559e-06
1.97033e-07
7.25398e-06
1.74438e-07
7.25849e-06
1.98597e-07
7.26097e-06
2.03638e-07
7.26278e-06
1.92106e-07
7.26432e-06
1.78527e-07
7.2682e-06
1.6516e-07
7.27145e-06
1.54363e-07
7.27499e-06
1.39719e-07
1.27782e-07
7.27768e-06
7.55296e-06
4.52256e-08
7.54386e-06
-1.40125e-07
7.53864e-06
-1.41335e-07
7.54728e-06
2.19571e-07
7.55035e-06
1.65218e-07
7.54974e-06
1.35803e-07
7.54166e-06
1.86386e-07
7.53111e-06
1.41627e-07
7.53484e-06
1.59122e-07
7.53977e-06
2.18075e-07
7.53325e-06
2.03555e-07
7.53034e-06
1.77345e-07
7.53471e-06
1.94226e-07
7.53757e-06
2.00783e-07
7.53992e-06
1.89754e-07
7.54147e-06
1.76972e-07
7.54498e-06
1.61659e-07
7.54843e-06
1.50907e-07
7.55155e-06
1.366e-07
1.24892e-07
7.55444e-06
7.83978e-06
4.18996e-08
7.8304e-06
-1.30748e-07
7.82482e-06
-1.35755e-07
7.83422e-06
2.10176e-07
7.83688e-06
1.62551e-07
7.8365e-06
1.3619e-07
7.82927e-06
1.93609e-07
7.81842e-06
1.52485e-07
7.82025e-06
1.57291e-07
7.82587e-06
2.12449e-07
7.8211e-06
2.08333e-07
7.81748e-06
1.80964e-07
7.82148e-06
1.90226e-07
7.82467e-06
1.97586e-07
7.82743e-06
1.86997e-07
7.82924e-06
1.75158e-07
7.8322e-06
1.58699e-07
7.83554e-06
1.47574e-07
7.8387e-06
1.3344e-07
1.21891e-07
7.8417e-06
8.13738e-06
3.84806e-08
8.12815e-06
-1.21522e-07
8.12102e-06
-1.28622e-07
8.13157e-06
1.99631e-07
8.13416e-06
1.59959e-07
8.13387e-06
1.36475e-07
8.12769e-06
1.99788e-07
8.11686e-06
1.63322e-07
8.11693e-06
1.57218e-07
8.12271e-06
2.06668e-07
8.11978e-06
2.11259e-07
8.1158e-06
1.84948e-07
8.11922e-06
1.86806e-07
8.12272e-06
1.94084e-07
8.12576e-06
1.83959e-07
8.12793e-06
1.72988e-07
8.13052e-06
1.56108e-07
8.13385e-06
1.44246e-07
8.13683e-06
1.30462e-07
1.18875e-07
8.13984e-06
8.44618e-06
3.50604e-08
8.43739e-06
-1.12731e-07
8.42766e-06
-1.18891e-07
8.43958e-06
1.87711e-07
8.44226e-06
1.57278e-07
8.44217e-06
1.36569e-07
8.43727e-06
2.04685e-07
8.42678e-06
1.73817e-07
8.42532e-06
1.58674e-07
8.43079e-06
2.01195e-07
8.42966e-06
2.12396e-07
8.42571e-06
1.88899e-07
8.42837e-06
1.84144e-07
8.43212e-06
1.90331e-07
8.43534e-06
1.8074e-07
8.43791e-06
1.7042e-07
8.44018e-06
1.53835e-07
8.44325e-06
1.41174e-07
8.44634e-06
1.27371e-07
1.15913e-07
8.4493e-06
8.76666e-06
3.16818e-08
8.75831e-06
-1.04377e-07
8.74643e-06
-1.07014e-07
8.75852e-06
1.75628e-07
8.76114e-06
1.54658e-07
8.76172e-06
1.35985e-07
8.75831e-06
2.08098e-07
8.74852e-06
1.83605e-07
8.74582e-06
1.61374e-07
8.75065e-06
1.96362e-07
8.7511e-06
2.1195e-07
8.74758e-06
1.92419e-07
8.74943e-06
1.82294e-07
8.75329e-06
1.86464e-07
8.75665e-06
1.77387e-07
8.75959e-06
1.67477e-07
8.76179e-06
1.51632e-07