/*--------------------------------*- C++ -*----------------------------------*\
| =========                 |                                                 |
| \\      /  F ield         | OpenFOAM: The Open Source CFD Toolbox           |
|  \\    /   O peration     | Version:  v2012                                 |
|   \\  /    A nd           | Website:  www.openfoam.com                      |
|    \\/     M anipulation  |                                                 |
\*---------------------------------------------------------------------------*/
FoamFile
{
    version     2.0;
    format      ascii;
    class       surfaceScalarField;
    location    "2.5";
    object      phi;
}
// * * * * * * * * * * * * * * * * * * * * * * * * * * * * * * * * * * * * * //

dimensions      [0 3 -1 0 0 0 0];
oriented        oriented;


internalField   nonuniform List<scalar> 
13830
(
9.58291e-07
1.04448e-07
8.76893e-07
-1.80651e-07
1.01625e-06
8.02283e-07
7.81652e-07
4.6988e-07
8.72201e-07
-1.88004e-06
9.75407e-07
1.14356e-06
8.57675e-07
1.02863e-07
9.46874e-07
4.65838e-07
9.66685e-07
2.00396e-08
9.37681e-07
2.26286e-07
9.41872e-07
6.78573e-07
9.08688e-07
2.951e-07
9.21468e-07
5.43496e-07
9.14917e-07
2.63594e-07
9.24527e-07
1.73213e-07
9.23013e-07
8.34495e-08
9.28992e-07
3.61339e-08
9.29852e-07
3.49836e-08
9.28607e-07
5.15121e-11
1.53282e-08
9.18879e-07
9.9448e-07
8.25005e-08
9.10329e-07
-9.65e-08
1.05394e-06
6.58669e-07
8.28569e-07
6.95253e-07
9.2367e-07
-1.97514e-06
1.03395e-06
1.03328e-06
9.14566e-07
2.22246e-07
9.93125e-07
3.87279e-07
1.01056e-06
2.60226e-09
9.7928e-07
2.57567e-07
9.78615e-07
6.79238e-07
9.49233e-07
3.24483e-07
9.53146e-07
5.39582e-07
9.56658e-07
2.60082e-07
9.57631e-07
1.7224e-07
9.66081e-07
7.4999e-08
9.61437e-07
4.07785e-08
9.7335e-07
2.30709e-08
9.5897e-07
1.4431e-08
6.29573e-09
9.68002e-07
1.03117e-06
6.07889e-08
9.48636e-07
-1.39714e-08
1.08891e-06
5.18395e-07
8.91031e-07
8.93133e-07
9.79038e-07
-2.06315e-06
1.10682e-06
9.05495e-07
9.8577e-07
3.43299e-07
1.04472e-06
3.2833e-07
1.05823e-06
-1.09063e-08
1.03296e-06
2.82832e-07
1.02003e-06
6.92173e-07
1.00116e-06
3.43355e-07
9.92447e-07
5.48291e-07
1.00451e-06
2.4802e-07
9.96905e-07
1.79844e-07
1.00993e-06
6.1974e-08
1.00015e-06
5.05626e-08
1.01249e-06
1.07241e-08
9.98885e-07
2.8039e-08
1.87171e-09
1.00331e-06
1.0687e-06
3.98634e-08
9.90938e-07
6.37926e-08
1.12288e-06
3.86448e-07
9.64694e-07
1.05132e-06
1.03724e-06
-2.13569e-06
1.17884e-06
7.63897e-07
1.06127e-06
4.60867e-07
1.09489e-06
2.94709e-07
1.1024e-06
-1.8422e-08
1.08922e-06
2.96011e-07
1.06952e-06
7.11876e-07
1.05764e-06
3.55232e-07
1.04372e-06
5.62216e-07
1.05316e-06
2.3858e-07
1.04316e-06
1.89846e-07
1.05218e-06
5.29522e-08
1.04289e-06
5.98458e-08
1.05095e-06
2.67336e-09
1.04043e-06
3.85502e-08
1.14803e-09
1.04116e-06
1.10713e-06
2.02858e-08
1.03741e-06
1.33517e-07
1.15512e-06
2.68734e-07
1.04239e-06
1.16406e-06
1.09279e-06
-2.18609e-06
1.23794e-06
6.18747e-07
1.13305e-06
5.65756e-07
1.13935e-06
2.88407e-07
1.14018e-06
-1.92518e-08
1.14017e-06
2.96023e-07
1.12314e-06
7.28907e-07
1.11376e-06
3.64613e-07
1.10031e-06
5.75666e-07
1.10185e-06
2.37041e-07
1.0904e-06
2.01294e-07
1.09404e-06
4.93167e-08
1.08478e-06
6.91012e-08
1.08922e-06
-1.76777e-09
1.08012e-06
4.7653e-08
2.63692e-09
1.07863e-06
1.14661e-06
2.52043e-09
1.08762e-06
1.92503e-07
1.18551e-06
1.70847e-07
1.11577e-06
1.23379e-06
1.14185e-06
-2.21217e-06
1.27858e-06
4.82012e-07
1.19602e-06
6.48323e-07
1.17811e-06
3.0631e-07
1.17271e-06
-1.38465e-08
1.18305e-06
2.85681e-07
1.17449e-06
7.37465e-07
1.16612e-06
3.72985e-07
1.15432e-06
5.87469e-07
1.14913e-06
2.42224e-07
1.13554e-06
2.14891e-07
1.13543e-06
4.94254e-08
1.12521e-06
7.93203e-08
1.12712e-06
-3.67968e-09
1.11838e-06
5.63965e-08
5.62082e-09
1.11539e-06
1.18743e-06
-1.32106e-08
1.1405e-06
2.3943e-07
1.21495e-06
9.64025e-08
1.17987e-06
1.26887e-06
1.18421e-06
-2.21652e-06
1.3028e-06
3.63426e-07
1.24783e-06
7.03297e-07
1.21367e-06
3.40463e-07
1.20294e-06
-3.11162e-09
1.21922e-06
2.69395e-07
1.21945e-06
7.37237e-07
1.21284e-06
3.79601e-07
1.20252e-06
5.97781e-07
1.19439e-06
2.5036e-07
1.17926e-06
2.30016e-07
1.17737e-06
5.13193e-08
1.16625e-06
9.0437e-08
1.16632e-06
-3.74931e-09
1.15767e-06
6.50525e-08
9.80362e-09
1.15348e-06
1.22998e-06
-2.70081e-08
1.19469e-06
2.74718e-07
1.24517e-06
4.59272e-08
1.23466e-06
1.27938e-06
1.22259e-06
-2.20444e-06
1.31735e-06
2.68661e-07
1.28898e-06
7.31672e-07
1.24895e-06
3.80487e-07
1.23397e-06
1.18651e-08
1.25163e-06
2.51735e-07
1.25796e-06
7.30911e-07
1.25413e-06
3.83435e-07
1.24591e-06
6.05996e-07
1.2385e-06
2.57769e-07
1.22351e-06
2.45007e-07
1.22133e-06
5.34964e-08
1.21e-06
1.01774e-07
1.20864e-06
-2.38908e-09
1.20019e-06
7.35009e-08
1.5026e-08
1.19497e-06
1.27458e-06
-3.92347e-08
1.24913e-06
3.00172e-07
1.27812e-06
1.69306e-08
1.28341e-06
1.27409e-06
1.26048e-06
-2.18151e-06
1.33013e-06
1.99006e-07
1.32267e-06
7.39141e-07
1.28605e-06
4.17103e-07
1.26825e-06
2.96667e-08
1.28349e-06
2.36498e-07
1.29283e-06
7.21566e-07
1.29216e-06
3.841e-07
1.28712e-06
6.11036e-07
1.283e-06
2.61893e-07
1.26972e-06
2.58289e-07
1.26815e-06
5.50657e-08
1.25734e-06
1.1258e-07
1.25479e-06
1.60991e-10
1.24682e-06
8.14765e-08
2.11183e-08
1.24073e-06
1.32137e-06
-5.03266e-08
1.30337e-06
3.18171e-07
1.3153e-06
5.00516e-09
1.33001e-06
1.25938e-06
1.30062e-06
-2.15212e-06
1.34768e-06
1.5195e-07
1.35373e-06
7.33095e-07
1.32599e-06
4.44842e-07
1.30705e-06
4.86057e-08
1.31763e-06
2.25915e-07
1.32774e-06
7.11455e-07
1.33003e-06
3.8181e-07
1.32877e-06
6.12299e-07
1.32915e-06
2.61517e-07
1.31848e-06
2.68959e-07
1.31779e-06
5.57466e-08
1.3081e-06
1.22278e-07
1.30447e-06
3.78542e-09
1.29724e-06
8.87113e-08
2.78675e-08
1.29049e-06
1.37027e-06
-6.0577e-08
1.3576e-06
3.30842e-07
1.35732e-06
5.28542e-09
1.37729e-06
1.2394e-06
1.34446e-06
-2.11929e-06
1.37386e-06
1.22558e-07
1.38683e-06
7.20121e-07
1.3691e-06
4.62571e-07
1.35052e-06
6.71806e-08
1.35608e-06
2.20357e-07
1.36577e-06
7.01768e-07
1.37054e-06
3.77037e-07
1.37278e-06
6.10066e-07
1.37763e-06
2.56667e-07
1.36979e-06
2.76796e-07
1.36976e-06
5.57708e-08
1.36152e-06
1.30523e-07
1.35686e-06
8.4466e-09
1.35055e-06
9.50179e-08
3.50373e-08
1.34338e-06
1.42107e-06
-6.99946e-08
1.41234e-06
3.39572e-07
1.40406e-06
1.35668e-08
1.42672e-06
1.21674e-06
1.39238e-06
-2.08495e-06
1.40968e-06
1.05259e-07
1.42501e-06
7.04794e-07
1.41553e-06
4.72052e-07
1.39818e-06
8.45228e-08
1.39978e-06
2.18766e-07
1.40866e-06
6.92881e-07
1.41541e-06
3.70286e-07
1.42021e-06
6.05266e-07
1.42859e-06
2.48289e-07
1.42339e-06
2.82001e-07
1.42346e-06
5.57008e-08
1.41681e-06
1.37171e-07
1.41113e-06
1.41213e-08
1.40581e-06
1.00338e-07
4.2396e-08
1.39846e-06
1.47354e-06
-7.82865e-08
1.46819e-06
3.44924e-07
1.45499e-06
2.67604e-08
1.47879e-06
1.19294e-06
1.44412e-06
-2.05028e-06
1.45406e-06
9.53145e-08
1.46921e-06
6.89642e-07
1.4654e-06
4.75871e-07
1.44948e-06
1.00443e-07
1.44873e-06
2.19516e-07
1.45685e-06
6.84755e-07
1.46509e-06
3.62051e-07
1.47136e-06
5.98989e-07
1.48185e-06
2.37803e-07
1.47894e-06
2.84909e-07
1.47843e-06
5.62096e-08
1.47338e-06
1.42229e-07
1.46673e-06
2.07667e-08
1.46235e-06
1.04719e-07
4.97389e-08
1.45501e-06
1.52754e-06
-8.49558e-08
1.5256e-06
3.46868e-07
1.50957e-06
4.27855e-08
1.53363e-06
1.16889e-06
1.49914e-06
-2.0158e-06
1.50497e-06
8.94916e-08
1.51892e-06
6.75693e-07
1.51878e-06
4.76009e-07
1.5041e-06
1.15119e-07
1.50247e-06
2.21148e-07
1.50994e-06
6.77288e-07
1.51912e-06
3.52863e-07
1.526e-06
5.92116e-07
1.53709e-06
2.26706e-07
1.53618e-06
2.85821e-07
1.53452e-06
5.78699e-08
1.53094e-06
1.45813e-07
1.52342e-06
2.82842e-08
1.51986e-06
1.08281e-07
5.69021e-08
1.51269e-06
1.58313e-06
-8.94697e-08
1.58483e-06
3.45164e-07
1.56741e-06
6.02098e-08
1.59128e-06
1.14502e-06
1.55689e-06
-1.9814e-06
1.5604e-06
8.59739e-08
1.57301e-06
6.63086e-07
1.57561e-06
4.73408e-07
1.56199e-06
1.28744e-07
1.56042e-06
2.22715e-07
1.56722e-06
6.70485e-07
1.5768e-06
3.43287e-07
1.58375e-06
5.85161e-07
1.59413e-06
2.16327e-07
1.59497e-06
2.84979e-07
1.59184e-06
6.10092e-08
1.58954e-06
1.48108e-07
1.58132e-06
3.65047e-08
1.57841e-06
1.11188e-07
6.37687e-08
1.57155e-06
1.64051e-06
-9.14402e-08
1.64596e-06
3.39716e-07
1.62826e-06
7.7908e-08
1.65188e-06
1.1214e-06
1.61684e-06
-1.94636e-06
1.61892e-06
8.3889e-08
1.63052e-06
6.51483e-07
1.63571e-06
4.68226e-07
1.62308e-06
1.4137e-07
1.62204e-06
2.23754e-07
1.62808e-06
6.64448e-07
1.6375e-06
3.33866e-07
1.64441e-06
5.7825e-07
1.653e-06
2.07736e-07
1.65538e-06
2.82604e-07
1.65069e-06
6.57013e-08
1.64947e-06
1.49326e-07
1.64078e-06
4.51943e-08
1.63836e-06
1.13609e-07
7.02677e-08
1.63186e-06
1.70007e-06
-9.07572e-08
1.70897e-06
3.3081e-07
1.69202e-06
9.48637e-08
1.71558e-06
1.09784e-06
1.67862e-06
-1.9094e-06
1.67972e-06
8.27941e-08
1.69088e-06
6.40316e-07
1.69877e-06
4.60336e-07
1.68718e-06
1.52959e-07
1.68685e-06
2.24092e-07
1.69202e-06
6.59271e-07
1.70084e-06
3.25045e-07
1.70793e-06
5.71162e-07
1.71397e-06
2.01697e-07
1.71761e-06
2.78962e-07
1.71149e-06
7.18234e-08
1.71111e-06
1.49703e-07
1.70224e-06
5.40692e-08
1.70015e-06
1.157e-07
7.63651e-08
1.69405e-06
1.76218e-06
-8.76237e-08
1.77383e-06
3.19158e-07
1.75857e-06
1.10125e-07
1.78245e-06
1.07396e-06
1.74205e-06
-1.869e-06
1.74255e-06
8.22972e-08
1.75393e-06
6.28934e-07
1.76453e-06
4.49737e-07
1.75395e-06
1.63541e-07
1.75436e-06
2.2368e-07
1.7587e-06
6.54932e-07
1.76659e-06
3.17156e-07
1.77431e-06
5.63442e-07
1.77736e-06
1.98641e-07
1.78195e-06
2.74375e-07
1.77463e-06
7.91379e-08
1.77485e-06
1.49486e-07
1.76608e-06
6.28421e-08
1.76419e-06
1.17582e-07
8.20516e-08
1.75851e-06
1.82719e-06
-8.24802e-08
1.84059e-06
3.05761e-07
1.82784e-06
1.22876e-07
1.85247e-06
1.04933e-06
1.80719e-06
-1.82372e-06
1.80761e-06
8.18841e-08
1.8198e-06
6.16742e-07
1.83277e-06
4.36764e-07
1.823e-06
1.73314e-07
1.82416e-06
2.22519e-07
1.82789e-06
6.51197e-07
1.83457e-06
3.10476e-07
1.84343e-06
5.54584e-07
1.84342e-06
1.98648e-07
1.84862e-06
2.69181e-07
1.84039e-06
8.73627e-08
1.84095e-06
1.48931e-07
1.83252e-06
7.12665e-08
1.83076e-06
1.19346e-07
8.73346e-08
1.82548e-06
1.89528e-06
-7.58567e-08
1.90939e-06
2.91648e-07
1.89969e-06
1.32575e-07
1.92547e-06
1.02355e-06
1.87438e-06
-1.77264e-06
1.8753e-06
8.09561e-08
1.88871e-06
6.0334e-07
1.9034e-06
4.22074e-07
1.89409e-06
1.82617e-07
1.89594e-06
2.20675e-07
1.89951e-06
6.47619e-07
1.90472e-06
3.05268e-07
1.91508e-06
5.44229e-07
1.91227e-06
2.01452e-07
1.91779e-06
2.63666e-07
1.90894e-06
9.62164e-08
1.90958e-06
1.48286e-07
1.90166e-06
7.91817e-08
1.89997e-06
1.21044e-07
9.2236e-08
1.89507e-06
1.96648e-06
-6.82287e-08
1.98049e-06
2.77633e-07
1.974e-06
1.39065e-07
2.00121e-06
9.96344e-07
1.94411e-06
-1.71554e-06
1.94606e-06
7.90076e-08
1.96077e-06
5.88635e-07
1.97637e-06
4.06475e-07
1.9672e-06
1.91779e-07
1.96955e-06
2.18328e-07
1.97358e-06
6.43592e-07
1.97708e-06
3.01767e-07
1.98901e-06
5.32294e-07
1.98394e-06
2.06524e-07
1.98958e-06
2.58027e-07
1.98036e-06
1.05437e-07
1.98088e-06
1.47767e-07
1.97353e-06
8.6532e-08
1.97187e-06
1.22705e-07
9.67924e-08
1.96731e-06
2.04076e-06
-5.99435e-08
2.0542e-06
2.64193e-07
2.05066e-06
1.42608e-07
2.07948e-06
9.67524e-07
2.01693e-06
-1.65299e-06
2.02014e-06
7.57998e-08
2.03592e-06
5.72851e-07
2.05167e-06
3.90727e-07
2.0425e-06
2.00952e-07
2.04504e-06
2.15785e-07
2.05014e-06
6.38488e-07
2.05181e-06
3.00105e-07
2.06515e-06
5.1895e-07
2.05845e-06
2.13227e-07
2.06411e-06
2.52363e-07
2.05477e-06
1.14779e-07
2.05498e-06
1.47552e-07
2.04819e-06
9.33234e-08
2.04655e-06
1.24347e-07
1.01054e-07
2.04229e-06
2.11813e-06
-5.12303e-08
2.13082e-06
2.51502e-07
2.12964e-06
1.43786e-07
2.16015e-06
9.37014e-07
2.09322e-06
-1.58606e-06
2.09762e-06
7.13964e-08
2.11401e-06
5.56459e-07
2.1293e-06
3.75436e-07
2.12023e-06
2.10029e-07
2.12258e-06
2.13436e-07
2.12925e-06
6.31819e-07
2.12914e-06
3.00211e-07
2.14359e-06
5.04495e-07
2.13587e-06
2.20949e-07
2.1415e-06
2.46738e-07
2.13227e-06
1.24005e-07
2.13204e-06
1.47782e-07
2.12577e-06
9.95946e-08
2.12414e-06
1.2598e-07
1.05069e-07
2.12012e-06
2.19861e-06
-4.22544e-08
2.21055e-06
2.39557e-07
2.211e-06
1.43337e-07
2.24319e-06
9.04825e-07
2.17316e-06
-1.51602e-06
2.17851e-06
6.60453e-08
2.19495e-06
5.40021e-07
2.2093e-06
3.61086e-07
2.20064e-06
2.18689e-07
2.2024e-06
2.1167e-07
2.21094e-06
6.23283e-07
2.20932e-06
3.01834e-07
2.22459e-06
4.89218e-07
2.21634e-06
2.29198e-07
2.22186e-06
2.41224e-07
2.21297e-06
1.32893e-07
2.21222e-06
1.48535e-07
2.20637e-06
1.05441e-07
2.20478e-06
1.27567e-07
1.08876e-07
2.20098e-06
2.2823e-06
-3.31649e-08
2.29357e-06
2.2829e-07
2.2949e-06
1.42005e-07
2.32867e-06
8.71058e-07
2.25678e-06
-1.44413e-06
2.26281e-06
6.00073e-08
2.2788e-06
5.24039e-07
2.29177e-06
3.48116e-07
2.28392e-06
2.26534e-07
2.28478e-06
2.10813e-07
2.29531e-06
6.12756e-07
2.29253e-06
3.04613e-07
2.3084e-06
4.73342e-07
2.29999e-06
2.3761e-07
2.30528e-06
2.35936e-07
2.29692e-06
1.41256e-07
2.29562e-06
1.49832e-07
2.29008e-06
1.10981e-07
2.28861e-06
1.2904e-07
1.12483e-07
2.285e-06
2.36933e-06
-2.41107e-08
2.38e-06
2.17624e-07
2.38155e-06
1.40452e-07
2.41671e-06
8.35902e-07
2.34405e-06
-1.37147e-06
2.3506e-06
5.3451e-08
2.3658e-06
5.08842e-07
2.37694e-06
3.36975e-07
2.37026e-06
2.33213e-07
2.37002e-06
2.11053e-07
2.38247e-06
6.00307e-07
2.37892e-06
3.08165e-07
2.39523e-06
4.57028e-07
2.38692e-06
2.45923e-07
2.39187e-06
2.30984e-07
2.38412e-06
1.49008e-07
2.38225e-06
1.517e-07
2.377e-06
1.16228e-07
2.37571e-06
1.3033e-07
1.15861e-07
2.37234e-06
2.4598e-06
-1.52319e-08
2.46995e-06
2.07468e-07
2.47116e-06
1.39244e-07
2.50743e-06
7.99636e-07
2.43496e-06
-1.299e-06
2.44195e-06
4.6461e-08
2.45625e-06
4.94538e-07
2.46514e-06
3.28088e-07
2.45983e-06
2.38523e-07
2.45844e-06
2.12437e-07
2.4726e-06
5.86149e-07
2.46861e-06
3.12153e-07
2.48522e-06
4.40418e-07
2.47717e-06
2.53977e-07
2.48174e-06
2.2641e-07
2.47456e-06
1.5619e-07
2.47199e-06
1.54268e-07
2.46732e-06
1.20901e-07
2.46615e-06
1.31495e-07
1.18952e-07
2.46306e-06
2.55382e-06
-6.64717e-09
2.56358e-06
1.97704e-07
2.56397e-06
1.38853e-07
2.601e-06
7.62603e-07
2.52953e-06
-1.22753e-06
2.53688e-06
3.91182e-08
2.5504e-06
4.81014e-07
2.55672e-06
3.21765e-07
2.55281e-06
2.42435e-07
2.55033e-06
2.14915e-07
2.56586e-06
5.7062e-07
2.56177e-06
3.16244e-07
2.57849e-06
4.23697e-07
2.57085e-06
2.61624e-07
2.57492e-06
2.22333e-07
2.5682e-06
1.62917e-07
2.56813e-06
1.54335e-07
2.56195e-06
1.27081e-07
2.56006e-06
1.33387e-07
1.21725e-07
2.55728e-06
2.65148e-06
1.55449e-09
2.661e-06
1.88182e-07
2.66019e-06
1.3966e-07
2.69762e-06
7.2518e-07
2.62784e-06
-1.15775e-06
2.63538e-06
3.15848e-08
2.64842e-06
4.67967e-07
2.65207e-06
3.18119e-07
2.64941e-06
2.45089e-07
2.646e-06
2.18325e-07
2.66245e-06
5.54169e-07
2.6586e-06
3.20097e-07
2.67509e-06
4.07204e-07
2.66823e-06
2.68487e-07
2.6716e-06
2.18963e-07
2.66454e-06
1.69981e-07
2.66075e-06
1.58123e-07
2.65653e-06
1.31302e-07
2.65759e-06
1.32329e-07
1.24232e-07
2.65508e-06
2.75289e-06
9.31633e-09
2.76234e-06
1.78737e-07
2.76007e-06
1.4193e-07
2.7975e-06
6.87744e-07
2.72996e-06
-1.09021e-06
2.73739e-06
2.41544e-08
2.7504e-06
4.54956e-07
2.75152e-06
3.16999e-07
2.74983e-06
2.46776e-07
2.74579e-06
2.2237e-07
2.76252e-06
5.37441e-07
2.75944e-06
3.23168e-07
2.77508e-06
3.91571e-07
2.76976e-06
2.73803e-07
2.77175e-06
2.16976e-07
2.76489e-06
1.76838e-07
2.75983e-06
1.63187e-07
2.75499e-06
1.36134e-07
2.759e-06
1.28327e-07
1.2676e-07
2.75647e-06
2.85816e-06
1.66148e-08
2.86768e-06
1.69215e-07
2.86383e-06
1.45787e-07
2.90092e-06
6.50649e-07
2.83597e-06
-1.02526e-06
2.84287e-06
1.7255e-08
2.85635e-06
4.41474e-07
2.85532e-06
3.18031e-07
2.85431e-06
2.47793e-07
2.84992e-06
2.26751e-07
2.86633e-06
5.21032e-07
2.86442e-06
3.25081e-07
2.87881e-06
3.77181e-07
2.87561e-06
2.77003e-07
2.87741e-06
2.15177e-07
2.87688e-06
1.77369e-07
2.87767e-06
1.62391e-07
2.87573e-06
1.38073e-07
2.86468e-06
1.3938e-07
1.29759e-07
2.86168e-06
2.9674e-06
2.34596e-08
2.97712e-06
1.59498e-07
2.97171e-06
1.51197e-07
3.00814e-06
6.14213e-07
2.94602e-06
-9.63134e-07
2.95184e-06
1.14331e-08
2.9663e-06
4.27008e-07
2.96362e-06
3.20712e-07
2.963e-06
2.48416e-07
2.95858e-06
2.31174e-07
2.9743e-06
5.05311e-07
2.97361e-06
3.25773e-07
2.98682e-06
3.63964e-07
2.98542e-06
2.78408e-07
2.9875e-06
2.13093e-07
2.98852e-06
1.76349e-07
2.98091e-06
1.70004e-07
2.96901e-06
1.49972e-07
2.97342e-06
1.34975e-07
1.32176e-07
2.971e-06
3.08073e-06
2.98878e-08
3.09071e-06
1.49522e-07
3.08393e-06
1.57971e-07
3.11943e-06
5.7872e-07
3.06023e-06
-9.03936e-07
3.0644e-06
7.26305e-09
3.08022e-06
4.11184e-07
3.07652e-06
3.24409e-07
3.07601e-06
2.48932e-07
3.07185e-06
2.35326e-07
3.08679e-06
4.90381e-07
3.08684e-06
3.25722e-07
3.09976e-06
3.5104e-07
3.09911e-06
2.79059e-07
3.10035e-06
2.1185e-07
3.10403e-06
1.72673e-07
3.10498e-06
1.69052e-07
3.10192e-06
1.5303e-07
3.0869e-06
1.49997e-07
1.34509e-07
3.08457e-06
3.1983e-06
3.59505e-08
3.20852e-06
1.39304e-07
3.20072e-06
1.65767e-07
3.23498e-06
5.44458e-07
3.17881e-06
-8.47767e-07
3.18075e-06
5.32953e-09
3.1982e-06
3.93736e-07
3.194e-06
3.28606e-07
3.19352e-06
2.49414e-07
3.18965e-06
2.39192e-07
3.20431e-06
4.75722e-07
3.20345e-06
3.26579e-07
3.21834e-06
3.36156e-07
3.21658e-06
2.80815e-07
3.21776e-06
2.10666e-07
3.2054e-06
1.85033e-07
3.20099e-06
1.73468e-07
3.1971e-06
1.56921e-07
3.20308e-06
1.44015e-07
1.34895e-07
3.20269e-06
3.32025e-06
4.17143e-08
3.33066e-06
1.28897e-07
3.32224e-06
1.74182e-07
3.35504e-06
5.11661e-07
3.30188e-06
-7.94609e-07
3.30134e-06
5.86873e-09
3.32023e-06
3.74844e-07
3.31624e-06
3.32601e-07
3.31533e-06
2.50319e-07
3.3125e-06
2.42023e-07
3.32629e-06
4.61934e-07
3.32574e-06
3.27133e-07
3.34009e-06
3.21798e-07
3.33326e-06
2.87651e-07
3.32926e-06
2.14668e-07
3.32546e-06
1.88825e-07
3.322e-06
1.76933e-07
3.31804e-06
1.60874e-07
3.32512e-06
1.36938e-07
1.3497e-07
3.32505e-06
3.44676e-06
4.72361e-08
3.45724e-06
1.18417e-07
3.44867e-06
1.82751e-07
3.47976e-06
4.80573e-07
3.42958e-06
-7.44429e-07
3.42656e-06
8.88883e-09
3.44644e-06
3.54967e-07
3.44346e-06
3.35573e-07
3.44131e-06
2.52468e-07
3.44063e-06
2.42711e-07
3.45253e-06
4.50025e-07
3.45389e-06
3.25778e-07
3.46494e-06
3.10745e-07
3.47075e-06
2.8184e-07
3.47067e-06
2.14749e-07
3.47591e-06
1.83584e-07
3.47833e-06
1.74514e-07
3.47407e-06
1.65136e-07
3.4537e-06
1.57307e-07
1.37026e-07
3.45165e-06
3.57805e-06
5.25311e-08
3.58836e-06
1.08104e-07
3.58022e-06
1.90896e-07
3.60921e-06
4.51582e-07
3.56219e-06
-6.97408e-07
3.55656e-06
1.45221e-08
3.57723e-06
3.34291e-07
3.57525e-06
3.37556e-07
3.57259e-06
2.5513e-07
3.57215e-06
2.43144e-07
3.58565e-06
4.36527e-07
3.58424e-06
3.27192e-07
3.59904e-06
2.95944e-07
3.59607e-06
2.84811e-07
3.58825e-06
2.22565e-07
3.5799e-06
1.9194e-07
3.5782e-06
1.76212e-07
3.57652e-06
1.66817e-07
3.58347e-06
1.50354e-07
1.36774e-07
3.58372e-06
3.7143e-06
5.76176e-08
3.72427e-06
9.81296e-08
3.71695e-06
1.98222e-07
3.74369e-06
4.24844e-07
3.69966e-06
-6.53379e-07
3.69183e-06
2.23472e-08
3.71249e-06
3.13636e-07
3.71236e-06
3.37685e-07
3.70834e-06
2.59151e-07
3.70913e-06
2.42352e-07
3.72297e-06
4.22683e-07
3.71848e-06
3.31684e-07
3.73387e-06
2.80558e-07
3.72725e-06
2.91427e-07
3.7221e-06
2.27717e-07
3.71515e-06
1.98887e-07
3.71314e-06
1.78225e-07
3.71209e-06
1.6786e-07
3.72055e-06
1.41893e-07
1.3691e-07
3.72042e-06
3.85572e-06
6.24913e-08
3.86519e-06
8.86566e-08
3.859e-06
2.04409e-07
3.88339e-06
4.00458e-07
3.84207e-06
-6.12065e-07
3.83274e-06
3.16784e-08
3.85223e-06
2.94144e-07
3.8553e-06
3.34621e-07
3.8483e-06
2.66152e-07
3.85223e-06
2.3842e-07
3.86228e-06
4.12638e-07
3.86416e-06
3.29799e-07
3.86769e-06
2.77026e-07
3.88319e-06
2.75934e-07
3.88554e-06
2.25365e-07
3.89173e-06
1.92693e-07
3.89406e-06
1.75896e-07
3.89034e-06
1.71582e-07
3.86588e-06
1.66351e-07
1.41103e-07
3.86169e-06
4.00257e-06
6.70754e-08
4.01121e-06
8.0015e-08
4.00669e-06
2.08929e-07
4.02823e-06
3.78923e-07
3.98998e-06
-5.73821e-07
3.97906e-06
4.2604e-08
3.99768e-06
2.75519e-07
4.00225e-06
3.30056e-07
3.99571e-06
2.72693e-07
3.99671e-06
2.3742e-07
4.01263e-06
3.96709e-07
4.00413e-06
3.38303e-07
4.01899e-06
2.62164e-07
4.01425e-06
2.80676e-07
4.00979e-06
2.29821e-07
4.00145e-06
2.01037e-07
3.99977e-06
1.77572e-07
4.00071e-06
1.70648e-07
4.01019e-06
1.56868e-07
1.41786e-07
4.00951e-06
4.15499e-06
7.1363e-08
4.16276e-06
7.2253e-08
4.15996e-06
2.11728e-07
4.17879e-06
3.60093e-07
4.14305e-06
-5.38084e-07
4.13153e-06
5.41215e-08
4.14789e-06
2.59162e-07
4.15552e-06
3.22422e-07
4.14743e-06
2.80788e-07
4.14836e-06
2.36487e-07
4.165e-06
3.80071e-07
4.15669e-06
3.46611e-07
4.16369e-06
2.55162e-07
4.16702e-06
2.7735e-07
4.16335e-06
2.33491e-07
4.15252e-06
2.11869e-07
4.1512e-06
1.78889e-07
4.15232e-06
1.69527e-07
4.16353e-06
1.45657e-07
1.43102e-07
4.16222e-06
4.31322e-06
7.53314e-08
4.32006e-06
6.54086e-08
4.31901e-06
2.1278e-07
4.33533e-06
3.43769e-07
4.30141e-06
-5.04157e-07
4.29055e-06
6.49737e-08
4.30275e-06
2.46964e-07
4.31565e-06
3.09524e-07
4.30297e-06
2.9347e-07
4.30977e-06
2.29684e-07
4.31617e-06
3.73676e-07
4.32025e-06
3.42524e-07
4.3158e-06
2.59618e-07
4.32968e-06
2.63472e-07
4.33265e-06
2.3052e-07
4.35506e-06
1.8946e-07
4.35956e-06
1.74387e-07
4.35488e-06
1.74209e-07
4.32726e-06
1.73269e-07
1.50684e-07
4.31968e-06
4.47756e-06
7.88584e-08
4.48315e-06
5.98149e-08
4.48429e-06
2.11645e-07
4.49758e-06
3.3048e-07
4.46608e-06
-4.72656e-07
4.4551e-06
7.59519e-08
4.46568e-06
2.36384e-07
4.47836e-06
2.9684e-07
4.46888e-06
3.02955e-07
4.4694e-06
2.29162e-07
4.48171e-06
3.61361e-07
4.47897e-06
3.45269e-07
4.48043e-06
2.58156e-07
4.48774e-06
2.56165e-07
4.4842e-06
2.34056e-07
4.4766e-06
1.97062e-07
4.47252e-06
1.78466e-07
4.47486e-06
1.71867e-07
4.48673e-06
1.61405e-07
1.52034e-07
4.48538e-06
4.64811e-06
8.19591e-08
4.65262e-06
5.53044e-08
4.65554e-06
2.0872e-07
4.66652e-06
3.19505e-07
4.63643e-06
-4.42567e-07
4.62637e-06
8.60062e-08
4.63463e-06
2.28131e-07
4.64697e-06
2.84496e-07
4.64145e-06
3.08474e-07
4.63501e-06
2.35607e-07
4.65375e-06
3.42616e-07
4.64843e-06
3.50585e-07
4.65064e-06
2.55947e-07
4.65353e-06
2.53274e-07
4.65468e-06
2.32908e-07
4.64799e-06
2.03753e-07
4.64786e-06
1.78601e-07
4.64887e-06
1.70853e-07
4.65516e-06
1.55117e-07
1.50131e-07
4.65706e-06
4.82517e-06
8.45744e-08
4.82853e-06
5.19479e-08
4.83315e-06
2.04097e-07
4.84229e-06
3.10364e-07
4.81273e-06
-4.13008e-07
4.80481e-06
9.39257e-08
4.80928e-06
2.23663e-07
4.8232e-06
2.70582e-07
4.81792e-06
3.13746e-07
4.81153e-06
2.41999e-07
4.82702e-06
3.27126e-07
4.82607e-06
3.51537e-07
4.82493e-06
2.57085e-07
4.82883e-06
2.49375e-07
4.83067e-06
2.31073e-07
4.82708e-06
2.07341e-07
4.82858e-06
1.77103e-07
4.83209e-06
1.67341e-07
4.83164e-06
1.55566e-07
1.47078e-07
4.8347e-06
5.009e-06
8.66426e-08
5.01109e-06
4.98653e-08
5.01748e-06
1.97706e-07
5.02486e-06
3.02985e-07
4.99566e-06
-3.83814e-07
4.98982e-06
9.97627e-08
4.99146e-06
2.22025e-07
5.00549e-06
2.56557e-07
5.00131e-06
3.17924e-07
4.99432e-06
2.48987e-07
5.00811e-06
3.13332e-07
5.01e-06
3.49648e-07
5.00693e-06
2.60163e-07
5.01127e-06
2.45034e-07
5.01381e-06
2.28534e-07
5.01187e-06
2.09279e-07
5.01053e-06
1.7844e-07
5.00912e-06
1.68754e-07
5.01505e-06
1.49633e-07
1.43401e-07
5.01873e-06
5.19976e-06
8.81972e-08
5.20079e-06
4.88312e-08
5.20849e-06
1.90012e-07
5.21495e-06
2.9652e-07
5.18501e-06
-3.53878e-07
5.1819e-06
1.02874e-07
5.18082e-06
2.23109e-07
5.19452e-06
2.42856e-07
5.19142e-06
3.21019e-07
5.18416e-06
2.5625e-07
5.19606e-06
3.01431e-07
5.20055e-06
3.45163e-07
5.19672e-06
2.6399e-07
5.20079e-06
2.40966e-07
5.20347e-06
2.25854e-07
5.20365e-06
2.091e-07
5.20434e-06
1.77751e-07
5.20758e-06
1.65511e-07
5.20602e-06
1.5119e-07
1.40033e-07
5.20939e-06
5.3978e-06
8.917e-08
5.3977e-06
4.8935e-08
5.40658e-06
1.8113e-07
5.41261e-06
2.90489e-07
5.38148e-06
-3.22746e-07
5.3808e-06
1.03555e-07
5.37795e-06
2.25962e-07
5.39035e-06
2.30452e-07
5.38871e-06
3.22657e-07
5.38107e-06
2.63895e-07
5.39149e-06
2.91006e-07
5.398e-06
3.38663e-07
5.39448e-06
2.67506e-07
5.39744e-06
2.38003e-07
5.40078e-06
2.22511e-07
5.4015e-06
2.08383e-07
5.39975e-06
1.79504e-07
5.39881e-06
1.66446e-07
5.40399e-06
1.46007e-07
1.36712e-07
5.40732e-06
5.60335e-06
8.95607e-08
5.60222e-06
5.00639e-08
5.612e-06
1.71348e-07
5.6182e-06
2.84295e-07
5.58544e-06
-2.89991e-07
5.58674e-06
1.02255e-07
5.58289e-06
2.29816e-07
5.59332e-06
2.20013e-07
5.59356e-06
3.2242e-07
5.5858e-06
2.71656e-07
5.59468e-06
2.82125e-07
5.60282e-06
3.30522e-07
5.59989e-06
2.70435e-07
5.60164e-06
2.36257e-07
5.60537e-06
2.18784e-07
5.60681e-06
2.06942e-07
5.60639e-06
1.79927e-07
5.60792e-06
1.64912e-07
5.60957e-06
1.44353e-07
1.33574e-07
5.61271e-06
5.81667e-06
8.9368e-08
5.81462e-06
5.21152e-08
5.82498e-06
1.60988e-07
5.83197e-06
2.77305e-07
5.79749e-06
-2.5551e-07
5.79996e-06
9.97818e-08
5.79579e-06
2.3399e-07
5.80407e-06
2.1173e-07
5.80615e-06
3.20345e-07
5.79866e-06
2.79138e-07
5.80586e-06
2.74934e-07
5.81517e-06
3.21203e-07
5.81313e-06
2.72479e-07
5.81415e-06
2.35244e-07
5.81765e-06
2.15278e-07
5.82012e-06
2.04469e-07
5.82089e-06
1.79164e-07
5.82425e-06
1.61548e-07
5.82299e-06
1.45614e-07
1.30578e-07
5.82599e-06
6.0381e-06
8.85679e-08
6.03514e-06
5.50739e-08
6.04592e-06
1.50212e-07
6.05383e-06
2.69391e-07
6.01825e-06
-2.19927e-07
6.02064e-06
9.73892e-08
6.01702e-06
2.37607e-07
6.02296e-06
2.05794e-07
6.02683e-06
3.16476e-07
6.01978e-06
2.86181e-07
6.02543e-06
2.69285e-07
6.03538e-06
3.11254e-07
6.03469e-06
2.73175e-07
6.03499e-06
2.34936e-07
6.03808e-06
2.12191e-07
6.04109e-06
2.01455e-07
6.04114e-06
1.79122e-07
6.04065e-06
1.62036e-07
6.04451e-06
1.41748e-07
1.27799e-07
6.04729e-06
6.26789e-06
8.71835e-08
6.26417e-06
5.87854e-08
6.27506e-06
1.39329e-07
6.28403e-06
2.60423e-07
6.2478e-06
-1.83697e-07
6.24957e-06
9.56136e-08
6.2466e-06
2.40578e-07
6.25057e-06
2.01827e-07
6.25577e-06
3.11276e-07
6.24956e-06
2.92394e-07
6.25374e-06
2.65104e-07
6.26389e-06
3.01106e-07
6.26446e-06
2.72601e-07
6.26442e-06
2.34975e-07
6.26697e-06
2.09646e-07
6.27068e-06
1.97742e-07
6.27254e-06
1.77259e-07
6.27631e-06
1.58265e-07
6.27464e-06
1.43427e-07
1.2555e-07
6.27688e-06
6.50637e-06
8.52184e-08
6.50195e-06
6.32008e-08
6.51275e-06
1.28529e-07
6.5227e-06
2.50478e-07
6.48667e-06
-1.47672e-07
6.48705e-06
9.52314e-08
6.48496e-06
2.42671e-07
6.4872e-06
1.9959e-07
6.49333e-06
3.05148e-07
6.48822e-06
2.97498e-07
6.49093e-06
2.62399e-07
6.501e-06
2.91034e-07
6.50292e-06
2.70683e-07
6.50296e-06
2.34929e-07
6.50496e-06
2.07647e-07
6.50876e-06
1.93942e-07
6.50975e-06
1.76274e-07
6.51001e-06
1.58004e-07
6.51346e-06
1.39976e-07
1.23716e-07
6.51529e-06
6.75385e-06
8.27029e-08
6.74885e-06
6.82082e-08
6.75937e-06
1.18003e-07
6.77024e-06
2.3961e-07
6.73498e-06
-1.12411e-07
6.73367e-06
9.65423e-08
6.73228e-06
2.4406e-07
6.73313e-06
1.98742e-07
6.73989e-06
2.98386e-07
6.73604e-06
3.01345e-07
6.73754e-06
2.60903e-07
6.74729e-06
2.8128e-07
6.75031e-06
2.67662e-07
6.75066e-06
2.34582e-07
6.75201e-06
2.06295e-07
6.75577e-06
1.90184e-07
6.75826e-06
1.73781e-07
6.76183e-06
1.54443e-07
6.7614e-06
1.40399e-07
1.22367e-07
6.76275e-06
7.01069e-06
7.96667e-08
7.00516e-06
7.37327e-08
7.0152e-06
1.07969e-07
7.027e-06
2.27809e-07
6.99309e-06
-7.85078e-08
6.98991e-06
9.97247e-08
6.989e-06
2.44972e-07
6.98876e-06
1.98979e-07
6.99577e-06
2.91374e-07
6.99333e-06
3.03785e-07
6.99376e-06
2.60481e-07
7.00294e-06
2.72095e-07
7.00693e-06
2.63671e-07
7.00787e-06
2.33642e-07
7.00883e-06
2.0534e-07
7.0124e-06
1.8661e-07
7.01467e-06
1.71512e-07
7.01568e-06
1.53436e-07
7.01873e-06
1.37346e-07
1.21283e-07
7.01981e-06
7.2772e-06
7.61573e-08
7.2712e-06
7.97311e-08
7.28064e-06
9.8525e-08
7.29333e-06
2.1512e-07
7.2614e-06
-4.65773e-08
7.25617e-06
1.04963e-07
7.25542e-06
2.45717e-07
7.25433e-06
2.00071e-07
7.26137e-06
2.84337e-07
7.26043e-06
3.04721e-07
7.26007e-06
2.60846e-07
7.26852e-06
2.63639e-07
7.27335e-06
2.58842e-07
7.27483e-06
2.32168e-07
7.27565e-06
2.04518e-07
7.27878e-06
1.83473e-07
7.28172e-06
1.68579e-07
7.28451e-06
1.50641e-07
7.28573e-06
1.36128e-07
1.20348e-07
7.28666e-06
7.55376e-06
7.22281e-08
7.54735e-06
8.61404e-08
7.556e-06
8.98713e-08
7.5696e-06
2.01526e-07
7.53996e-06
-1.69422e-08
7.53293e-06
1.11991e-07
7.53195e-06
2.46706e-07
7.53025e-06
2.0177e-07
7.53715e-06
2.77429e-07
7.53767e-06
3.04209e-07
7.53676e-06
2.61747e-07
7.54428e-06
2.56124e-07
7.54973e-06
2.53392e-07
7.5518e-06
2.30093e-07
7.55282e-06
2.03505e-07
7.55546e-06
1.80829e-07
7.55841e-06
1.65625e-07
7.56035e-06
1.4871e-07
7.56281e-06
1.33664e-07
1.19338e-07
7.56382e-06
7.84073e-06
6.79573e-08
7.83396e-06
9.29108e-08
7.84171e-06
8.21184e-08
7.85615e-06
1.87085e-07
7.82918e-06
1.00269e-08
7.82053e-06
1.20639e-07
7.81891e-06
2.48329e-07
7.81679e-06
2.03891e-07
7.82349e-06
2.7073e-07
7.82538e-06
3.0232e-07
7.82423e-06
2.62893e-07
7.83072e-06
2.49634e-07
7.83667e-06
2.47448e-07
7.83936e-06
2.27403e-07
7.8407e-06
2.02164e-07
7.84278e-06
1.7874e-07
7.84585e-06
1.62559e-07
7.84803e-06
1.4653e-07
7.85034e-06
1.31354e-07
1.18128e-07
7.85155e-06
8.13849e-06
6.34306e-08
8.13153e-06
9.98697e-08
8.13813e-06
7.55142e-08
8.15333e-06
1.71886e-07
8.1295e-06
3.38605e-08
8.11893e-06
1.31203e-07
8.11661e-06
2.5065e-07
8.11442e-06
2.06082e-07
8.12086e-06
2.64297e-07
8.124e-06
2.99172e-07
8.12288e-06
2.64018e-07
8.12828e-06
2.44234e-07
8.13447e-06
2.41261e-07
8.13771e-06
2.24159e-07
8.13946e-06
2.00411e-07
8.14116e-06
1.77046e-07
8.14426e-06
1.59461e-07
8.14648e-06
1.44307e-07
8.14877e-06
1.29059e-07
1.16587e-07
8.15031e-06
8.44743e-06
5.87629e-08
8.44055e-06
1.06744e-07
8.44558e-06
7.0493e-08
8.4615e-06
1.5596e-07
8.44075e-06
5.46131e-08
8.42742e-06
1.44527e-07
8.42556e-06
2.52517e-07
8.42355e-06
2.08094e-07
8.42965e-06
2.58196e-07
8.43386e-06
2.94954e-07
8.43304e-06
2.64841e-07
8.43736e-06
2.3992e-07
8.4436e-06
2.35014e-07
8.44737e-06
2.20393e-07
8.44962e-06
1.9816e-07
8.45109e-06
1.75582e-07
8.454e-06
1.56543e-07
8.45617e-06
1.42139e-07
8.45863e-06
1.26597e-07
1.14755e-07
8.46046e-06
8.76795e-06
5.40981e-08
8.76148e-06
1.1321e-07
8.764e-06
6.79776e-08
8.78008e-06
1.39875e-07
8.75798e-06
7.67191e-08
8.74748e-06
1.55029e-07
8.74642e-06
2.53577e-07
8.74457e-06
2.09936e-07
8.7503e-06
2.52468e-07
8.75544e-06
2.89815e-07
8.75516e-06
2.65122e-07
8.75853e-06
2.36546e-07
8.76462e-06
2.28929e-07
8.76876e-06
2.16249e-07
8.77147e-06
1.9545e-07
8.77295e-06
1.74106e-07
8.77563e-06
1.53865e-07
8.77785e-06
1.39912e-07
8.78026e-06
1.24192e-07
1.12736e-07
8.78228e-06
9.10052e-06
4.95509e-08