/*--------------------------------*- C++ -*----------------------------------*\
| =========                 |                                                 |
| \\      /  F ield         | OpenFOAM: The Open Source CFD Toolbox           |
|  \\    /   O peration     | Version:  v2012                                 |
|   \\  /    A nd           | Website:  www.openfoam.com                      |
|    \\/     M anipulation  |                                                 |
\*---------------------------------------------------------------------------*/
FoamFile
{
    version     2.0;
    format      ascii;
    class       volScalarField;
    location    "8.2";
    object      p;
}
// * * * * * * * * * * * * * * * * * * * * * * * * * * * * * * * * * * * * * //

dimensions      [0 2 -2 0 0 0 0];


internalField   nonuniform List<scalar> 
7000
(
2.80211e-10
0.00248231
0.00425835
0.0027193
0.00393117
0.00638172
0.00441997
0.00382662
-0.000147888
0.00194386
-0.00416961
-0.00195245
-0.00425377
-0.0034643
-0.00425066
-0.00338045
-0.0036991
-0.00303647
-0.00300402
-0.00214768
8.20133e-06
0.00247731
0.0042474
0.00273875
0.00393487
0.00632708
0.00442809
0.00380336
-0.000118236
0.0019261
-0.00412286
-0.00197011
-0.0042433
-0.00345873
-0.00425102
-0.00337783
-0.00369348
-0.00303457
-0.00299847
-0.002202
1.75248e-05
0.00247087
0.00423451
0.0027624
0.00393444
0.00627477
0.00443461
0.00377488
-8.99024e-05
0.00189826
-0.00406889
-0.00199034
-0.00421391
-0.003457
-0.00423417
-0.00338174
-0.00367281
-0.00304259
-0.00299253
-0.00228535
2.62363e-05
0.00246721
0.0042206
0.00277971
0.0039321
0.00622116
0.00443187
0.00373981
-6.6738e-05
0.00185939
-0.00400745
-0.00201329
-0.00417248
-0.00346011
-0.00420579
-0.00339595
-0.00364919
-0.0030638
-0.00299449
-0.0023839
3.52178e-05
0.00246633
0.00420455
0.00279183
0.00392994
0.00616387
0.00442126
0.00369903
-4.44299e-05
0.00180846
-0.00393569
-0.00204096
-0.00412472
-0.0034686
-0.0041756
-0.00341969
-0.00362903
-0.00309363
-0.00300327
-0.00248245
4.50874e-05
0.00246762
0.0041859
0.00280122
0.00392798
0.00610306
0.00440531
0.00365389
-2.07604e-05
0.00174644
-0.0038536
-0.0020787
-0.00407308
-0.0034825
-0.0041467
-0.0034488
-0.00361232
-0.00312582
-0.0030174
-0.00257276
5.6064e-05
0.00247058
0.00416455
0.00280941
0.00392596
0.00603907
0.00438613
0.0036054
4.88696e-06
0.00167563
-0.00376321
-0.00212168
-0.00401807
-0.0035001
-0.00411837
-0.00348
-0.00359767
-0.00315769
-0.00303762
-0.00265583
6.82131e-05
0.00247459
0.00414052
0.00281735
0.00392379
0.00597207
0.00436574
0.00355409
3.24457e-05
0.00159855
-0.00366651
-0.00216968
-0.00395958
-0.00351948
-0.00408971
-0.00351196
-0.00358475
-0.00318957
-0.00306511
-0.00273571
8.14913e-05
0.00247905
0.00411398
0.00282565
0.00392124
0.00590222
0.00434562
0.00350011
6.17143e-05
0.00151711
-0.00356495
-0.0022205
-0.00389777
-0.00353967
-0.00406084
-0.00354398
-0.00357473
-0.00322214
-0.0030999
-0.00281462
9.57973e-05
0.0024835
0.00408519
0.00283452
0.00391803
0.00582976
0.00432657
0.00344349
9.2602e-05
0.00143246
-0.00345942
-0.00227271
-0.00383296
-0.00356036
-0.00403201
-0.00357516
-0.00356895
-0.00325475
-0.0031407
-0.00289248
0.000111022
0.00248766
0.00405448
0.00284386
0.003914
0.00575492
0.00430872
0.00338421
0.00012513
0.00134518
-0.00335067
-0.00232553
-0.00376552
-0.00358113
-0.00400325
-0.00360436
-0.00356804
-0.00328607
-0.00318577
-0.0029685
0.000127082
0.00249141
0.00402214
0.0028535
0.00390908
0.00567792
0.00429186
0.00332225
0.000159373
0.00125557
-0.00323932
-0.00237839
-0.00369586
-0.0036011
-0.00397468
-0.00363022
-0.00357195
-0.00331533
-0.00323348
-0.00304229
0.00014392
0.00249468
0.00398844
0.00286327
0.00390336
0.00559892
0.00427566
0.00325751
0.000195405
0.00116377
-0.00312596
-0.00243076
-0.00362461
-0.00361897
-0.00394687
-0.00365149
-0.00358052
-0.00334265
-0.00328242
-0.00311389
0.000161494
0.00249748
0.00395367
0.0028731
0.00389694
0.00551801
0.00425981
0.00318988
0.000233269
0.00106994
-0.00301114
-0.00248208
-0.00355261
-0.00363344
-0.00392079
-0.00366717
-0.00359355
-0.0033688
-0.00333144
-0.00318334
0.000179761
0.00249981
0.00391817
0.002883
0.00388998
0.00543525
0.00424413
0.00311931
0.00027297
0.000974343
-0.00289547
-0.00253169
-0.00348099
-0.00364333
-0.00389762
-0.00367682
-0.0036106
-0.00339478
-0.00337968
-0.00325051
0.00019867
0.00250166
0.0038823
0.002893
0.00388262
0.00535068
0.00422848
0.0030458
0.000314467
0.000877296
-0.00277968
-0.00257877
-0.00341111
-0.00364768
-0.00387847
-0.00368056
-0.00363104
-0.00342172
-0.00342651
-0.00331516
0.000218175
0.00250304
0.00384648
0.00290314
0.00387496
0.00526435
0.00421283
0.00296949
0.000357644
0.000779234
-0.00266464
-0.00262229
-0.00334446
-0.00364566
-0.00386416
-0.00367917
-0.00365415
-0.00345087
-0.00347165
-0.00337704
0.000238242
0.00250391
0.00381104
0.00291341
0.0038671
0.00517628
0.00419715
0.0028906
0.000402277
0.000680712
-0.00255136
-0.00266106
-0.00328252
-0.00363677
-0.00385523
-0.00367372
-0.00367906
-0.00348373
-0.00351527
-0.00343584
0.000258863
0.00250426
0.00377624
0.0029238
0.00385904
0.00508646
0.00418142
0.00280933
0.000448024
0.000582473
-0.00244094
-0.0026938
-0.00322663
-0.00362078
-0.00385199
-0.00366552
-0.00370456
-0.00352203
-0.00355828
-0.00349102
0.000280058
0.00250403
0.00374218
0.00293422
0.00385077
0.0049949
0.00416562
0.00272585
0.00049438
0.000485439
-0.00233458
-0.00271922
-0.00317779
-0.00359773
-0.00385438
-0.00365626
-0.00372874
-0.00356662
-0.00360245
-0.0035423
0.000301881
0.00250317
0.00370886
0.00294458
0.00384222
0.00490157
0.00414969
0.00264033
0.000540671
0.000390661
-0.00223354
-0.00273622
-0.00313687
-0.00356779
-0.00386166
-0.00364863
-0.00374993
-0.00361619
-0.00364896
-0.00359039
0.000324403
0.00250158
0.00367616
0.00295475
0.00383333
0.00480645
0.00413355
0.00255294
0.00058611
0.00029947
-0.00213921
-0.00274408
-0.00310466
-0.00353145
-0.00387188
-0.00364558
-0.00376857
-0.00366878
-0.00369714
-0.00363564
0.000347702
0.00249918
0.00364393
0.0029646
0.00382404
0.00470954
0.00411707
0.00246398
0.000629898
0.000213341
-0.00205307
-0.00274223
-0.00308158
-0.00349023
-0.00388254
-0.00364842
-0.00378583
-0.00372362
-0.00374656
-0.00367754
0.000371853
0.00249586
0.00361201
0.00297402
0.00381429
0.00461087
0.00410006
0.00237386
0.00067108
0.000133746
-0.00197623
-0.00273042
-0.00306733
-0.00344645
-0.00389189
-0.00365735
-0.00380191
-0.00378016
-0.00379716
-0.00371568
0.000396921
0.00249153
0.00358032
0.0029829
0.00380404
0.00451048
0.00408221
0.00228325
0.000708517
6.19496e-05
-0.0019095
-0.00270891
-0.00306123
-0.00340225
-0.00389874
-0.00367303
-0.00381666
-0.00383773
-0.00384978
-0.00374946
0.000422961
0.00248611
0.00354878
0.00299116
0.00379324
0.00440851
0.00406318
0.00219278
0.000741255
-8.04991e-07
-0.00185386
-0.00267815
-0.00306215
-0.00335974
-0.00390191
-0.00369696
-0.00383011
-0.0038921
-0.00390463
-0.00378159
0.000450024
0.00247953
0.00351733
0.00299876
0.0037818
0.00430506
0.00404263
0.00210334
0.000767747
-5.3282e-05
-0.00181017
-0.00263959
-0.00306813
-0.00332106
-0.00390004
-0.00373039
-0.00384634
-0.00393869
-0.00395579
-0.00381392
0.000478159
0.00247172
0.00348598
0.00300565
0.00376963
0.00420027
0.00402005
0.00201621
0.000786888
-9.57989e-05
-0.00177764
-0.00259478
-0.00307653
-0.00328887
-0.00389277
-0.00377069
-0.0038688
-0.0039801
-0.00400077
-0.00384335
0.00050742
0.0024626
0.00345467
0.00301174
0.00375667
0.00409443
0.00399492
0.00193182
0.000798473
-0.000127693
-0.00175663
-0.002545
-0.00308418
-0.00326462
-0.00388233
-0.00381547
-0.00389478
-0.00401597
-0.0040443
-0.00387042
0.000537842
0.00245213
0.00342335
0.00301716
0.00374256
0.00398815
0.00396652
0.00185134
0.000800242
-0.000148385
-0.00174563
-0.00249289
-0.00309061
-0.00324813
-0.00386955
-0.00386438
-0.00393019
-0.00404635
-0.00407176
-0.0038954
0.000569492
0.00244017
0.003392
0.00302129
0.00372713
0.00388177
0.00393408
0.00177584
0.000791582
-0.000159218
-0.00174285
-0.00244003
-0.00309576
-0.00324093
-0.00385474
-0.00391486
-0.00397386
-0.00407747
-0.00408375
-0.00391636
0.000602364
0.00242669
0.00336043
0.00302446
0.00371022
0.00377582
0.00389706
0.0017049
0.000773258
-0.000160832
-0.00174702
-0.0023897
-0.00309384
-0.00324364
-0.00384119
-0.00395932
-0.0040182
-0.00411027
-0.00411382
-0.00393176
0.000636459
0.00241169
0.00332857
0.00302955
0.00369124
0.00367106
0.00385495
0.00163937
0.000743786
-0.000155019
-0.00175307
-0.00235099
-0.00307964
-0.00325379
-0.00383207
-0.00400102
-0.0040676
-0.0041496
-0.0041327
-0.00393568
0.000672099
0.00239489
0.00329649
0.00302475
0.00367021
0.0035672
0.00380817
0.00157947
0.000705299
-0.000143498
-0.00175946
-0.00238269
-0.0030537
-0.00327033
-0.00382484
-0.00403525
-0.00411726
-0.00419572
-0.00419474
-0.00392955
0.00070886
0.00237649
0.00326367
0.00302807
0.00364663
0.00346546
0.00375454
0.00152569
0.000656856
-0.000126119
-0.00176479
-0.00235824
-0.00303514
-0.00329492
-0.003824
-0.00407611
-0.00416752
-0.00423955
-0.00421749
-0.00392029
0.000746689
0.00235662
0.00323
0.00304896
0.00361965
0.00336741
0.0036934
0.00147754
0.000597287
-0.000104146
-0.00176621
-0.00233033
-0.00301547
-0.00332597
-0.003836
-0.00411886
-0.00422331
-0.00428075
-0.00418923
-0.00390512
0.000786666
0.00233467
0.00319576
0.00301544
0.00358997
0.0032703
0.00362947
0.00143296
0.000533797
-8.77046e-05
-0.00175835
-0.00233385
-0.00299537
-0.00334996
-0.00385468
-0.00416023
-0.00426866
-0.00431973
-0.00425914
-0.00388362
0.000827364
0.0023114
0.00315992
0.00301962
0.00355688
0.00317655
0.00355789
0.00139403
0.000465312
-7.05699e-05
-0.0017453
-0.00234777
-0.00298204
-0.00338816
-0.00388401
-0.00419458
-0.00431206
-0.00435248
-0.00426583
-0.00386133
0.000868783
0.0022872
0.00312236
0.00303461
0.0035194
0.00308741
0.003478
0.00135939
0.000390417
-5.13994e-05
-0.00173093
-0.00234892
-0.00296727
-0.00344742
-0.00392514
-0.00422896
-0.00435676
-0.0043776
-0.00419395
-0.00383841
0.000912855
0.00226116
0.00308372
0.00303327
0.00347925
0.00299755
0.00340072
0.00132271
0.00031736
-4.8928e-05
-0.00170605
-0.00237719
-0.0029588
-0.00346362
-0.00396589
-0.00426781
-0.00438315
-0.0044075
-0.00430374
-0.00381729
0.000957116
0.0022346
0.00304196
0.00304027
0.00343579
0.00291094
0.00331687
0.00129077
0.000243229
-4.61994e-05
-0.00167622
-0.00240926
-0.00296284
-0.00351031
-0.00401533
-0.00430125
-0.00441122
-0.00442858
-0.00430756
-0.00379478
0.00100162
0.002208
0.00299664
0.00305517
0.00338861
0.00282774
0.00322497
0.00126426
0.000163664
-3.85255e-05
-0.00164632
-0.00246907
-0.00299158
-0.00355506
-0.00407266
-0.004339
-0.0044485
-0.0044382
-0.00418265
-0.00376512
0.00104945
0.00218003
0.00294979
0.0030594
0.00334074
0.00274047
0.00314028
0.00123232
8.57226e-05
-4.8701e-05
-0.00160418
-0.00245996
-0.00301148
-0.00359642
-0.00412146
-0.00438888
-0.00447485
-0.00447392
-0.00431683
-0.00372775
0.0010961
0.00215293
0.00289786
0.00307066
0.00329103
0.00265522
0.00304888
0.00120862
2.36184e-06
-6.01258e-05
-0.00155369
-0.00255742
-0.00305087
-0.0036322
-0.00417767
-0.00445354
-0.00452605
-0.00449761
-0.00429464
-0.0036748
0.001143
0.0021269
0.00284121
0.00308692
0.00324057
0.00256974
0.00295005
0.00119676
-8.64942e-05
-7.86922e-05
-0.00151523
-0.00259771
-0.00309787
-0.00367123
-0.004246
-0.00453602
-0.00460836
-0.00450434
-0.00409439
-0.00361332
0.00119312
0.00210036
0.00278317
0.00309314
0.00319389
0.00247524
0.00286372
0.0011702
-0.000168931
-0.000119478
-0.00146617
-0.00262168
-0.00313901
-0.00365646
-0.00428968
-0.0046341
-0.00470728
-0.00462235
-0.00428683
-0.00354479
0.0012401
0.00207624
0.002719
0.0031036
0.00314929
0.00238049
0.00277342
0.00114731
-0.000250802
-0.000178749
-0.00140324
-0.00266931
-0.00318156
-0.00366039
-0.00432212
-0.00474316
-0.00483877
-0.00477544
-0.00437848
-0.0034425
0.00128885
0.00205403
0.00265043
0.00311198
0.00310837
0.00228503
0.00267084
0.00114039
-0.00033637
-0.000252535
-0.0013541
-0.00267918
-0.00323634
-0.00367258
-0.00434496
-0.00484848
-0.00498336
-0.00489517
-0.00440661
-0.00334684
0.00133796
0.00203272
0.0025796
0.00311538
0.00307176
0.00218656
0.0025654
0.00113497
-0.000422682
-0.000342531
-0.00130685
-0.00266934
-0.00329816
-0.00370444
-0.00436645
-0.00494301
-0.00511415
-0.00498864
-0.00442624
-0.00325885
0.00138502
0.00201431
0.00250494
0.003114
0.00303995
0.00209001
0.00245211
0.00112706
-0.0005019
-0.000446378
-0.00126254
-0.00264944
-0.00336921
-0.00375711
-0.00438355
-0.00501524
-0.00522809
-0.00507045
-0.00443139
-0.00316713
0.00143299
0.00199854
0.00242762
0.00310517
0.00301442
0.00199439
0.002329
0.00112189
-0.000571499
-0.000566256
-0.00123117
-0.00261964
-0.00343499
-0.00381983
-0.00440044
-0.00506856
-0.00531998
-0.00513138
-0.00442889
-0.00308164
0.00147969
0.00198477
0.00234947
0.00308855
0.0029926
0.00190076
0.00219991
0.00111336
-0.000632365
-0.000696189
-0.00121503
-0.00257868
-0.0034901
-0.0038971
-0.00442826
-0.00509356
-0.00537996
-0.00518257
-0.00443137
-0.00301827
0.0015256
0.00197374
0.00227115
0.00306104
0.0029742
0.00181365
0.00206359
0.00109672
-0.000680241
-0.000829401
-0.00122093
-0.00253402
-0.00353478
-0.00398146
-0.00445103
-0.0050859
-0.00542291
-0.00524298
-0.00445235
-0.00296536
0.00157054
0.00196537
0.0021931
0.0030227
0.00295785
0.00173287
0.00192017
0.00107531
-0.00071349
-0.00096889
-0.00125094
-0.00248357
-0.00355868
-0.00405891
-0.00448215
-0.00508502
-0.00546476
-0.00529363
-0.00446612
-0.00290879
0.00161427
0.00195945
0.00211678
0.00297283
0.00294098
0.00166033
0.00177184
0.00104513
-0.000734372
-0.00110786
-0.00129919
-0.00243028
-0.00356776
-0.00413853
-0.00453836
-0.0050869
-0.00546668
-0.00531104
-0.00448388
-0.00286934
0.00165683
0.00195614
0.00204273
0.0029108
0.0029212
0.00159716
0.00162135
0.00100366
-0.000744086
-0.00123936
-0.00136776
-0.0023864
-0.00356724
-0.00421064
-0.00459445
-0.00507292
-0.00544419
-0.00533441
-0.00451598
-0.00283024
0.00169797
0.00195569
0.00197123
0.0028382
0.00289697
0.00154096
0.00146931
0.000951323
-0.000741992
-0.00135946
-0.00145594
-0.00235508
-0.00355209
-0.00426287
-0.00465175
-0.00507651
-0.00543607
-0.00534978
-0.00451545
-0.00276927
0.00173638
0.00195841
0.00190214
0.00275651
0.00286481
0.00149238
0.00132174
0.000885931
-0.000733157
-0.00147719
-0.00156006
-0.00233449
-0.00352291
-0.00430292
-0.00471917
-0.00510079
-0.00542195
-0.00532126
-0.00447747
-0.00271457
0.00177326
0.00196318
0.00183877
0.00266394
0.00282051
0.00145335
0.00118253
0.000809137
-0.000722258
-0.00157308
-0.00167462
-0.00232932
-0.00349083
-0.00433346
-0.00478125
-0.00512573
-0.00539237
-0.00526945
-0.00444102
-0.00267428
0.0018103
0.00196971
0.00178217
0.00255959
0.00277307
0.00141428
0.00102576
0.000725967
-0.000696849
-0.00164412
-0.00179417
-0.00234372
-0.0034586
-0.00434842
-0.00483028
-0.00515179
-0.00536943
-0.00523053
-0.00440458
-0.00261131
0.00183899
0.0019793
0.00173104
0.00245084
0.00271053
0.00137189
0.000884297
0.000637501
-0.000671366
-0.00169643
-0.00191495
-0.0023756
-0.00342467
-0.00435031
-0.00486965
-0.00518063
-0.0053616
-0.00519391
-0.00433902
-0.0025234
0.00186834
0.0019907
0.00168679
0.00233628
0.00262884
0.00133593
0.000758349
0.000537368
-0.000655386
-0.00173158
-0.00203054
-0.00242315
-0.00339535
-0.00434382
-0.0048986
-0.00520806
-0.00535725
-0.00514736
-0.0042631
-0.00244093
0.00189544
0.00200257
0.00164978
0.00221138
0.00253448
0.00130579
0.000642527
0.000429184
-0.000647998
-0.00175152
-0.00213813
-0.00248586
-0.00337393
-0.00433045
-0.00491991
-0.00523095
-0.00534965
-0.00510561
-0.00420035
-0.00235983
0.00191963
0.0020139
0.00161873
0.00208609
0.00242849
0.00127745
0.000539057
0.000316075
-0.000653159
-0.0017629
-0.00223593
-0.00256021
-0.00336177
-0.00431204
-0.0049345
-0.00524594
-0.00533953
-0.00507087
-0.00414002
-0.00227161
0.00194105
0.00202287
0.00159392
0.00196332
0.00231147
0.00124665
0.000446878
0.000199519
-0.000671781
-0.00176835
-0.0023196
-0.00264019
-0.00335997
-0.00428841
-0.00494049
-0.00525634
-0.00532869
-0.00503395
-0.00407683
-0.00218627
0.00195963
0.00202922
0.00157529
0.00184323
0.00218362
0.00121012
0.000365307
8.42966e-05
-0.000700917
-0.00176952
-0.00239013
-0.0027247
-0.00337019
-0.00426185
-0.00493987
-0.0052666
-0.00531583
-0.00499227
-0.00401441
-0.00210613
0.00197546
0.00203249
0.00156142
0.00172884
0.00204748
0.00116599
0.000293251
-2.76421e-05
-0.000740139
-0.00177162
-0.00245149
-0.00280957
-0.00338964
-0.00423407
-0.004931
-0.0052738
-0.00530173
-0.00494957
-0.00395182
-0.00202644
0.00198862
0.0020325
0.00155131
0.00162082
0.00190502
0.00111241
0.000228439
-0.000135111
-0.000788328
-0.00177559
-0.00250134
-0.00288979
-0.00341748
-0.00420891
-0.00491402
-0.00527833
-0.00529206
-0.00490951
-0.00388724
-0.0019459
0.00199926
0.0020291
0.00154694
0.00152006
0.00175876
0.0010488
0.000168875
-0.000236982
-0.00084305
-0.00178073
-0.00254119
-0.00296738
-0.00345571
-0.00419024
-0.00489134
-0.00527979
-0.00528676
-0.00487264
-0.00382126
-0.00186263
0.00200743
0.00202206
0.0015392
0.00142712
0.00161155
0.00097521
0.000111528
-0.000333241
-0.000902803
-0.00178899
-0.00257369
-0.00304198
-0.0035024
-0.00417842
-0.00486301
-0.00527331
-0.0052824
-0.00484056
-0.00375727
-0.00177925
0.00201331
0.0020113
0.00153124
0.00134238
0.00146531
0.000891884
5.43282e-05
-0.000423886
-0.00096652
-0.00180162
-0.00259902
-0.0031106
-0.00355477
-0.0041741
-0.00483124
-0.00525801
-0.00527836
-0.00481579
-0.00370149
-0.00170156
0.00201703
0.00199694
0.00152191
0.00126548
0.00132192
0.000800053
-3.96223e-06
-0.000509265
-0.00103328
-0.00181888
-0.00261766
-0.00317152
-0.00361192
-0.00418013
-0.00480145
-0.00523575
-0.0052722
-0.00479881
-0.00365759
-0.00163051
0.00201858
0.00197927
0.0015103
0.00119562
0.0011833
0.000701327
-6.4853e-05
-0.000590354
-0.00110218
-0.00184134
-0.00263163
-0.00322403
-0.00367221
-0.00419745
-0.00477746
-0.0052074
-0.00526078
-0.00478652
-0.0036227
-0.00156596
0.00201806
0.00195852
0.00149572
0.00113198
0.00105069
0.000597427
-0.000129406
-0.000668121
-0.00117205
-0.00186944
-0.00264349
-0.00326753
-0.00373229
-0.00422481
-0.00476161
-0.00517646
-0.00524344
-0.0047742
-0.00359464
-0.00151077
0.00201548
0.00193506
0.00147774
0.00107329
0.000925165
0.000490067
-0.000198323
-0.000743186
-0.00124228
-0.00190347
-0.00265523
-0.00330208
-0.00378938
-0.00426054
-0.00475621
-0.00514796
-0.00522083
-0.0047599
-0.00357259
-0.00146465
0.00201084
0.00190919
0.00145604
0.00101843
0.000807295
0.000381123
-0.000271517
-0.000816412
-0.00131257
-0.0019432
-0.00266864
-0.00332946
-0.00384159
-0.00430257
-0.00476308
-0.00512637
-0.0051957
-0.00474217
-0.00355115
-0.00142352
0.0020041
0.00188131
0.00143052
0.000966385
0.00069729
0.000272263
-0.000348712
-0.000889184
-0.0013824
-0.0019878
-0.00268552
-0.0033522
-0.00388762
-0.00434831
-0.00478169
-0.00511414
-0.00517112
-0.00471976
-0.00352737
-0.00138698
0.00199515
0.00185178
0.00140142
0.000915851
0.000594897
0.000165471
-0.000429469
-0.000962578
-0.00145123
-0.00203729
-0.00270733
-0.00337236
-0.00392817
-0.00439521
-0.00480924
-0.00511216
-0.005151
-0.00469634
-0.00350354
-0.00135508
0.00198398
0.00182087
0.00136898
0.00086607
0.000499446
6.18449e-05
-0.000512359
-0.00103743
-0.00151914
-0.00209101
-0.00273498
-0.00339138
-0.00396395
-0.00444122
-0.00484409
-0.00512189
-0.00513966
-0.00467638
-0.00348102
-0.00132655
0.00197048
0.0017888
0.00133372
0.000816373
0.000410408
-3.77936e-05
-0.000596409
-0.00111454
-0.00158654
-0.00214754
-0.00277022
-0.00341241
-0.0039957
-0.00448469
-0.00488461
-0.00514292
-0.00513889
-0.00466213
-0.00346085
-0.00130222
0.00195463
0.00175579
0.00129609
0.000766304
0.000326847
-0.000132848
-0.000679977
-0.00119413
-0.00165443
-0.00220536
-0.00281378
-0.00343833
-0.00402595
-0.00452561
-0.0049285
-0.00517377
-0.00514988
-0.00465734
-0.00344744
-0.00128449
0.00193638
0.00172194
0.00125663
0.000715897
0.000247964
-0.000223881
-0.00076152
-0.00127566
-0.00172527
-0.002263
-0.00286453
-0.00347113
-0.0040572
-0.00456463
-0.00497286
-0.00521258
-0.00517383
-0.00466608
-0.00344521
-0.00127581
0.00191591
0.00168717
0.00121569
0.000665166
0.000173251
-0.000310891
-0.000840395
-0.00135762
-0.00180092
-0.00232067
-0.00292034
-0.0035138
-0.00409352
-0.00460391
-0.00501686
-0.00525689
-0.0052091
-0.00468874
-0.00345586
-0.00127808
0.0018931
0.00165197
0.0011739
0.000614067
0.00010205
-0.000394446
-0.000916832
-0.00143757
-0.00188227
-0.00238037
-0.00297745
-0.00356558
-0.00413787
-0.00464822
-0.00506375
-0.00530636
-0.00525372
-0.00472435
-0.00348059
-0.00129356
0.0018679
0.00161583
0.00113182
0.000563446
3.48089e-05
-0.000474478
-0.000992186
-0.00151438
-0.0019689
-0.00244645
-0.00303541
-0.00362345
-0.0041892
-0.00469962
-0.00511608
-0.00536221
-0.00530812
-0.004773
-0.00352032
-0.00132377
0.00184043
0.0015794
0.0010896
0.000513205
-2.8806e-05
-0.00055031
-0.00106687
-0.00158722
-0.00205703
-0.00252184
-0.00309723
-0.00368777
-0.00424913
-0.0047594
-0.00517673
-0.00542722
-0.00537464
-0.00483652
-0.00357618
-0.00136893
0.00181064
0.00154253
0.00104822
0.000463559
-9.00115e-05
-0.000621636
-0.0011415
-0.00165706
-0.00214126
-0.00260285
-0.00316088
-0.00375402
-0.00431501
-0.00482644
-0.00524604
-0.00550242
-0.0054556
-0.00491919
-0.00365605
-0.0014414
0.00177835
0.00150518
0.0010084
0.00041732
-0.000147766
-0.000689744
-0.00121952
-0.00173259
-0.00222721
-0.0026925
-0.00323113
-0.0038216
-0.00438438
-0.00489902
-0.00532264
-0.00558471
-0.00554532
-0.00501366
-0.00375154
-0.00153318
0.00174228
0.00146654
0.000969548
0.000375872
-0.000197771
-0.000749805
-0.00129421
-0.00181246
-0.00231569
-0.00279169
-0.0033147
-0.00389765
-0.00446357
-0.00498442
-0.00541516
-0.00568245
-0.00565034
-0.00512525
-0.00386742
-0.00164778
0.00170833
0.00143079
0.00093104
0.000339126
-0.000238665
-0.000796977
-0.00135922
-0.00188929
-0.00239707
-0.00288609
-0.00340079
-0.0039737
-0.00454383
-0.00507398
-0.00551609
-0.00579155
-0.00576849
-0.00525289
-0.00400593
-0.00179772
0.00165373
0.00137054
0.000886098
0.000295339
-0.000294332
-0.000862629
-0.00143514
-0.00197408
-0.00248161
-0.00297537
-0.00348542
-0.00404634
-0.00462088
-0.00516376
-0.00562128
-0.00591077
-0.00590208
-0.00540101
-0.00416496
-0.00195959
0.00164815
0.00139141
0.000888758
0.000304737
-0.000319379
-0.000948421
-0.00155744
-0.00210305
-0.00259663
-0.00307739
-0.0035802
-0.00413249
-0.00471417
-0.00527312
-0.00575034
-0.00606244
-0.00607549
-0.00559128
-0.00436496
-0.0021617
0.00150063
0.00122924
0.000859598
0.000334391
-0.000242342
-0.000908277
-0.00162008
-0.00220493
-0.00268656
-0.0031537
-0.00365128
-0.00420437
-0.0047966
-0.00537446
-0.00588174
-0.00623286
-0.00629046
-0.00585196
-0.00466944
-0.00250696
0.00162645
0.0013382
0.000814793
0.000203704
-0.000462131
-0.00111976
-0.00173083
-0.00226756
-0.00273325
-0.00317586
-0.00366147
-0.00420907
-0.00479279
-0.00536007
-0.00586648
-0.0062432
-0.00635164
-0.00599115
-0.0049114
-0.00287454
0.00147472
0.00125631
0.000748322
0.000209595
-0.000413216
-0.00111676
-0.00177907
-0.00232967
-0.00285473
-0.00332789
-0.00385036
-0.0044123
-0.00501052
-0.00555594
-0.0059881
-0.0062258
-0.0062009
-0.0057496
-0.0046312
-0.0025827
0.00164363
0.00125306
0.000681957
5.10393e-05
-0.00060993
-0.00120652
-0.00171509
-0.00215956
-0.00261919
-0.00311074
-0.00365745
-0.00424524
-0.00490747
-0.00563944
-0.00640103
-0.0070837
-0.00751187
-0.00745448
-0.00663858
-0.00482402
0.00178984
0.00110491
0.000511866
-0.000134638
-0.000735018
-0.00143706
-0.00207263
-0.00252543
-0.00296184
-0.00350013
-0.00406471
-0.00458945
-0.00487143
-0.00479547
-0.00430901
-0.00350235
-0.00257227
-0.00182969
-0.00164609
-0.00235099
0.00177784
0.00112277
0.000482525
-0.000100876
-0.000589552
-0.00101856
-0.00140061
-0.00184516
-0.00242218
-0.00310742
-0.0038504
-0.00468729
-0.00564033
-0.00666148
-0.00767926
-0.0086002
-0.00926939
-0.00946062
-0.00889554
-0.00732485
0.00190461
0.00105636
0.000410198
-0.000184632
-0.000694105
-0.00130018
-0.00193559
-0.00262823
-0.00323941
-0.00366449
-0.00410379
-0.00465667
-0.00515386
-0.00544315
-0.00539116
-0.00498684
-0.00434756
-0.00377665
-0.00367444
-0.00440768
0.00189542
0.00103167
0.000374181
-0.000154052
-0.000485673
-0.00073977
-0.000980742
-0.00137966
-0.00197827
-0.00286719
-0.00401019
-0.00542206
-0.00706981
-0.00880826
-0.0104135
-0.0116912
-0.0124873
-0.0126322
-0.0119074
-0.0101149
-0.0015038
-0.00867832
-0.0111565
-0.00937998
-0.00717018
-0.00526502
-0.00353365
-0.00210036
-0.00102219
-7.15527e-06
0.00124758
0.00259501
0.00361972
0.00435343
0.00513675
0.00602674
0.00709585
0.00835627
0.00955635
0.0106999
0.0118988
0.0130866
0.0142777
0.0155187
0.0168499
0.0182145
0.0196199
0.0210985
0.0226551
0.0242575
0.0258764
0.0275574
0.0292968
0.0311449
0.0330607
0.0350707
0.0370787
0.039182
0.0413404
0.0435729
0.0459023
0.0482623
0.0507587
0.0532513
0.0559154
0.0586128
0.0614133
0.0643372
0.0670453
0.0701211
-0.00155323
-0.00860993
-0.0111139
-0.0093643
-0.00716223
-0.00525999
-0.00352981
-0.00209698
-0.0010192
-4.67069e-06
0.00124962
0.00259684
0.00362141
0.00435489
0.005138
0.00602782
0.00709679
0.00835714
0.00955714
0.0107006
0.0118994
0.0130872
0.0142782
0.0155191
0.0168503
0.0182148
0.0196202
0.0210988
0.0226554
0.0242578
0.0258766
0.0275577
0.029297
0.0311451
0.0330609
0.0350709
0.0370789
0.0391822
0.0413406
0.043573
0.0459024
0.0482624
0.0507588
0.0532514
0.0559155
0.0586129
0.0614134
0.0643373
0.0670453
0.0701211
-0.00167537
-0.00851779
-0.0110454
-0.00934212
-0.00715245
-0.00525423
-0.00352591
-0.00209385
-0.00101651
-2.42036e-06
0.00125152
0.00259857
0.003623
0.00435621
0.00513909
0.00602876
0.00709761
0.00835793
0.00955786
0.0107012
0.0119
0.0130877
0.0142786
0.0155195
0.0168507
0.0182151
0.0196205
0.0210991
0.0226556
0.024258
0.0258768
0.0275579
0.0292972
0.0311453
0.0330611
0.0350711
0.037079
0.0391823
0.0413407
0.0435731
0.0459025
0.0482625
0.0507589
0.0532515
0.0559156
0.058613
0.0614135
0.0643373
0.0670454
0.0701211
-0.00179926
-0.00839659
-0.0109409
-0.00930613
-0.00713749
-0.0052459
-0.00352101
-0.00209052
-0.00101376
-1.13914e-08
0.00125357
0.00260041
0.00362466
0.00435757
0.00514022
0.0060297
0.00709841
0.00835874
0.00955862
0.0107018
0.0119006
0.0130882
0.014279
0.0155199
0.016851
0.0182155
0.0196208
0.0210994
0.0226559
0.0242582
0.0258771
0.0275581
0.0292974
0.0311455
0.0330612
0.0350712
0.0370791
0.0391824
0.0413408
0.0435732
0.0459026
0.0482626
0.050759
0.0532516
0.0559157
0.058613
0.0614135
0.0643374
0.0670455
0.0701212
-0.00190628
-0.00824963
-0.0108054
-0.00925549
-0.00711594
-0.00523367
-0.00351419
-0.00208658
-0.00101069
2.84517e-06
0.00125602
0.00260246
0.00362647
0.00435911
0.00514152
0.00603075
0.00709929
0.00835966
0.00955946
0.0107025
0.0119012
0.0130888
0.0142795
0.0155203
0.0168514
0.0182158
0.0196211
0.0210996
0.0226561
0.0242585
0.0258773
0.0275583
0.0292976
0.0311456
0.0330614
0.0350714
0.0370793
0.0391826
0.0413409
0.0435733
0.0459027
0.0482627
0.0507591
0.0532517
0.0559157
0.0586131
0.0614136
0.0643375
0.0670456
0.0701213
-0.00200391
-0.00808886
-0.0106525
-0.00919496
-0.0070891
-0.00521768
-0.00350513
-0.00208171
-0.00100713
6.28858e-06
0.00125892
0.00260466
0.00362837
0.00436085
0.00514308
0.00603203
0.00710034
0.00836072
0.00956042
0.0107033
0.0119019
0.0130894
0.0142801
0.0155208
0.0168518
0.0182162
0.0196214
0.0210999
0.0226564
0.0242587
0.0258775
0.0275585
0.0292978
0.0311458
0.0330616
0.0350715
0.0370794
0.0391827
0.0413411
0.0435734
0.0459028
0.0482628
0.0507592
0.0532518
0.0559158
0.0586132
0.0614137
0.0643376
0.0670458
0.0701214
-0.00210131
-0.00792271
-0.0104902
-0.00912878
-0.0070591
-0.00519898
-0.00349402
-0.00207572
-0.00100289
1.03993e-05
0.00126228
0.00260692
0.00363021
0.00436272
0.00514495
0.00603365
0.00710166
0.00836199
0.00956151
0.0107041
0.0119027
0.0130902
0.0142807
0.0155214
0.0168523
0.0182167
0.0196218
0.0211003
0.0226567
0.024259
0.0258778
0.0275587
0.029298
0.031146
0.0330618
0.0350717
0.0370796
0.0391828
0.0413412
0.0435736
0.0459029
0.0482629
0.0507593
0.0532519
0.0559159
0.0586133
0.0614138
0.0643377
0.067046
0.0701215
-0.00220149
-0.00775365
-0.0103209
-0.00905883
-0.00702737
-0.0051786
-0.00348136
-0.00206861
-0.000997897
1.51747e-05
0.00126606
0.00260917
0.00363187
0.00436456
0.00514705
0.00603565
0.00710341
0.00836361
0.00956279
0.0107051
0.0119037
0.013091
0.0142814
0.015522
0.0168529
0.0182172
0.0196223
0.0211007
0.0226571
0.0242594
0.0258781
0.027559
0.0292982
0.0311462
0.033062
0.0350719
0.0370798
0.039183
0.0413414
0.0435737
0.0459031
0.048263
0.0507594
0.053252
0.055916
0.0586134
0.0614139
0.0643378
0.0670462
0.0701217
-0.0023033
-0.00758151
-0.0101448
-0.00898573
-0.0069946
-0.00515716
-0.00346757
-0.00206053
-0.000992189
2.05126e-05
0.00127018
0.00261137
0.00363325
0.0043662
0.0051492
0.006038
0.00710568
0.00836573
0.00956435
0.0107061
0.0119046
0.0130919
0.0142823
0.0155228
0.0168536
0.0182178
0.0196228
0.0211011
0.0226575
0.0242598
0.0258784
0.0275592
0.0292985
0.0311465
0.0330622
0.0350721
0.03708
0.0391832
0.0413415
0.0435738
0.0459032
0.0482632
0.0507596
0.0532521
0.0559161
0.0586135
0.061414
0.0643379
0.0670465
0.070122
-0.00240454
-0.00740638
-0.00996217
-0.00890965
-0.00696107
-0.00513493
-0.00345291
-0.00205169
-0.0009859
2.626e-05
0.00127453
0.00261352
0.00363434
0.0043675
0.00515118
0.0060405
0.00710847
0.00836849
0.0095663
0.0107073
0.0119056
0.0130929
0.0142832
0.0155237
0.0168544
0.0182185
0.0196234
0.0211017
0.022658
0.0242602
0.0258788
0.0275596
0.0292988
0.0311467
0.0330624
0.0350724
0.0370802
0.0391834
0.0413417
0.043574
0.0459034
0.0482633
0.0507597
0.0532522
0.0559162
0.0586136
0.0614141
0.0643381
0.0670469
0.0701224
-0.00250367
-0.00722917
-0.00977344
-0.00883048
-0.00692684
-0.00511199
-0.00343745
-0.00204219
-0.000979151
3.22859e-05
0.00127901
0.00261562
0.00363518
0.00436841
0.00515281
0.00604291
0.00711161
0.00837192
0.00956878
0.0107087
0.0119066
0.0130938
0.0142842
0.0155247
0.0168554
0.0182194
0.0196241
0.0211023
0.0226586
0.0242607
0.0258793
0.02756
0.0292991
0.031147
0.0330627
0.0350726
0.0370804
0.0391836
0.0413419
0.0435742
0.0459035
0.0482635
0.0507598
0.0532523
0.0559163
0.0586137
0.0614142
0.0643383
0.0670474
0.0701228
-0.0026
-0.00705078
-0.00957876
-0.00874794
-0.00689193
-0.00508838
-0.00342121
-0.00203209
-0.000972003
3.85233e-05