/*--------------------------------*- C++ -*----------------------------------*\
| =========                 |                                                 |
| \\      /  F ield         | OpenFOAM: The Open Source CFD Toolbox           |
|  \\    /   O peration     | Version:  v2012                                 |
|   \\  /    A nd           | Website:  www.openfoam.com                      |
|    \\/     M anipulation  |                                                 |
\*---------------------------------------------------------------------------*/
FoamFile
{
    version     2.0;
    format      ascii;
    class       surfaceScalarField;
    location    "8.2";
    object      phi;
}
// * * * * * * * * * * * * * * * * * * * * * * * * * * * * * * * * * * * * * //

dimensions      [0 3 -1 0 0 0 0];
oriented        oriented;


internalField   nonuniform List<scalar> 
13830
(
9.86655e-07
1.97527e-07
9.3497e-07
4.75316e-07
8.8017e-07
-1.10866e-06
9.70967e-07
4.31985e-07
9.64805e-07
8.88522e-07
9.07552e-07
7.05254e-08
9.519e-07
6.88145e-07
8.82353e-07
-1.15083e-06
9.57608e-07
-3.28843e-07
9.08047e-07
-6.51119e-07
9.45291e-07
-2.55293e-09
9.30674e-07
1.04659e-08
9.36253e-07
1.11011e-07
9.39964e-07
2.31059e-07
9.34263e-07
1.22842e-07
9.44643e-07
2.90596e-07
9.39036e-07
1.58921e-07
9.49323e-07
2.57424e-07
9.43647e-07
1.72607e-07
2.23725e-07
9.41293e-07
1.02197e-06
1.48087e-07
9.74456e-07
5.22832e-07
9.21378e-07
-1.05558e-06
1.00928e-06
3.44082e-07
1.00188e-06
8.9592e-07
9.47323e-07
1.25085e-07
9.84207e-07
6.51262e-07
9.14942e-07
-1.08157e-06
9.89914e-07
-4.03815e-07
9.384e-07
-5.99604e-07
9.79316e-07
-4.34687e-08
9.63471e-07
2.6311e-08
9.70732e-07
1.03749e-07
9.76056e-07
2.25736e-07
9.68568e-07
1.3033e-07
9.84864e-07
2.743e-07
9.71639e-07
1.72147e-07
9.91537e-07
2.37526e-07
9.71576e-07
1.92568e-07
2.03801e-07
9.91501e-07
1.05564e-06
1.01901e-07
1.01679e-06
5.6168e-07
9.6672e-07
-1.00551e-06
1.04777e-06
2.6303e-07
1.0412e-06
9.02495e-07
9.92262e-07
1.74021e-07
1.01902e-06
6.24508e-07
9.54954e-07
-1.01751e-06
1.02187e-06
-4.70728e-07
9.78376e-07
-5.56113e-07
1.01143e-06
-7.6523e-08
1.00877e-06
2.89734e-08
1.00271e-06
1.09804e-07
1.022e-06
2.06451e-07
1.00049e-06
1.51839e-07
1.0262e-06
2.48588e-07
1.0047e-06
1.93646e-07
1.02472e-06
2.17503e-07
1.00792e-06
2.09368e-07
1.94924e-07
1.0168e-06
1.08854e-06
6.11337e-08
1.06033e-06
5.8989e-07
1.01462e-06
-9.59799e-07
1.0854e-06
1.92248e-07
1.08089e-06
9.07003e-07
1.03964e-06
2.1528e-07
1.05505e-06
6.0909e-07
1.00109e-06
-9.63542e-07
1.05368e-06
-5.23318e-07
1.02573e-06
-5.28168e-07
1.04586e-06
-9.66489e-08
1.05864e-06
1.6193e-08
1.03936e-06
1.29089e-07
1.06462e-06
1.81185e-07
1.03812e-06
1.78346e-07
1.05909e-06
2.27612e-07
1.0427e-06
2.10033e-07
1.05328e-06
2.0693e-07
1.04538e-06
2.17268e-07
1.93484e-07
1.04682e-06
1.12126e-06
2.74274e-08
1.10392e-06
6.07229e-07
1.06369e-06
-9.1957e-07
1.12125e-06
1.34694e-07
1.11952e-06
9.08726e-07
1.08689e-06
2.47914e-07
1.09242e-06
6.03557e-07
1.05133e-06
-9.2245e-07
1.0857e-06
-5.57689e-07
1.07582e-06
-5.18284e-07
1.08375e-06
-1.04585e-07
1.10675e-06
-6.80701e-09
1.08306e-06
1.52781e-07
1.10448e-06
1.59771e-07
1.08325e-06
1.99573e-07
1.09414e-06
2.16722e-07
1.08553e-06
2.18639e-07
1.08864e-06
2.03826e-07
1.08523e-06
2.20672e-07
1.95008e-07
1.08371e-06
1.15465e-06
1.61789e-09
1.1467e-06
6.15179e-07
1.1131e-06
-8.85971e-07
1.15574e-06
9.20575e-08
1.15657e-06
9.07896e-07
1.13262e-06
2.71861e-07
1.1319e-06
6.04285e-07
1.10317e-06
-8.93725e-07
1.11942e-06
-5.73938e-07
1.12426e-06
-5.23125e-07
1.12548e-06
-1.05807e-07
1.15159e-06
-3.29148e-08
1.13275e-06
1.71624e-07
1.14685e-06
1.45672e-07
1.13376e-06
2.12656e-07
1.13745e-06
2.13037e-07
1.13292e-06
2.2317e-07
1.13259e-06
2.04154e-07
1.13008e-06
2.23187e-07
1.9756e-07
1.12752e-06
1.18974e-06
-1.64189e-08
1.18858e-06
6.16335e-07
1.16255e-06
-8.59942e-07
1.19039e-06
6.42159e-08
1.19264e-06
9.05646e-07
1.17678e-06
2.87723e-07
1.17415e-06
6.06911e-07
1.15508e-06
-8.74652e-07
1.15649e-06
-5.7535e-07
1.16995e-06
-5.36577e-07
1.16992e-06
-1.05783e-07
1.19476e-06
-5.77494e-08
1.18425e-06
1.8213e-07
1.19308e-06
1.36845e-07
1.18579e-06
2.19939e-07
1.18689e-06
2.11942e-07
1.18346e-06
2.26601e-07
1.18211e-06
2.05502e-07
1.17941e-06
2.25884e-07
2.00394e-07
1.17658e-06
1.22739e-06
-2.76309e-08
1.23018e-06
6.13547e-07
1.21211e-06
-8.41868e-07
1.22702e-06
4.92996e-08
1.22913e-06
9.03535e-07
1.2203e-06
2.96559e-07
1.21932e-06
6.07889e-07
1.20678e-06
-8.62114e-07
1.19768e-06
-5.66252e-07
1.2141e-06
-5.52992e-07
1.21517e-06
-1.0685e-07
1.23756e-06
-8.0148e-08
1.23391e-06
1.85782e-07
1.24087e-06
1.29888e-07
1.23665e-06
2.24154e-07
1.23788e-06
2.10719e-07
1.23478e-06
2.29694e-07
1.23334e-06
2.06947e-07
1.23067e-06
2.28558e-07
2.03164e-07
1.2279e-06
1.26813e-06
-3.3405e-08
1.27245e-06
6.09229e-07
1.26203e-06
-8.31449e-07
1.26703e-06
4.42949e-08
1.26767e-06
9.02898e-07
1.26453e-06
2.99702e-07
1.26709e-06
6.05325e-07
1.25867e-06
-8.53697e-07
1.24281e-06
-5.50393e-07
1.25844e-06
-5.68617e-07
1.26014e-06
-1.08555e-07
1.2805e-06
-1.00499e-07
1.28076e-06
1.85519e-07
1.28796e-06
1.22684e-07
1.28545e-06
2.26671e-07
1.28753e-06
2.08639e-07
1.28504e-06
2.32184e-07
1.28369e-06
2.08293e-07
1.28146e-06
2.3079e-07
2.05693e-07
1.27893e-06
1.312e-06
-3.51254e-08
1.31622e-06
6.05005e-07
1.31263e-06
-8.27852e-07
1.31101e-06
4.59101e-08
1.30951e-06
9.04402e-07
1.31065e-06
2.98562e-07
1.31705e-06
5.98917e-07
1.31125e-06
-8.47891e-07
1.29132e-06
-5.30468e-07
1.30423e-06
-5.81525e-07
1.30515e-06
-1.09471e-07
1.32387e-06
-1.19222e-07
1.32573e-06
1.83656e-07
1.33369e-06
1.14723e-07
1.33246e-06
2.27906e-07
1.33521e-06
2.05891e-07
1.33368e-06
2.33706e-07
1.33239e-06
2.09584e-07
1.33083e-06
2.3235e-07
2.07912e-07
1.32861e-06
1.35878e-06
-3.388e-08
1.36209e-06
6.01694e-07
1.36421e-06
-8.29974e-07
1.35879e-06
5.13249e-08
1.35521e-06
9.07989e-07
1.35934e-06
2.94427e-07
1.36889e-06
5.89372e-07
1.36484e-06
-8.43847e-07
1.34265e-06
-5.08272e-07
1.35213e-06
-5.91004e-07
1.35114e-06
-1.08486e-07
1.36817e-06
-1.36249e-07
1.37028e-06
1.81548e-07
1.37855e-06
1.06446e-07
1.37849e-06
2.27968e-07
1.38153e-06
2.02852e-07
1.38121e-06
2.3403e-07
1.37995e-06
2.1084e-07
1.37914e-06
2.33156e-07
2.09773e-07
1.37728e-06
1.40817e-06
-3.03989e-08
1.41037e-06
5.99498e-07
1.41701e-06
-8.36614e-07
1.40978e-06
5.85488e-08
1.4047e-06
9.13072e-07
1.41078e-06
2.88351e-07
1.42241e-06
5.77742e-07
1.41963e-06
-8.41068e-07
1.39632e-06
-4.84968e-07
1.40234e-06
-5.97023e-07
1.39901e-06
-1.05154e-07
1.41398e-06
-1.5122e-07
1.41565e-06
1.79881e-07
1.42344e-06
9.86569e-08
1.42445e-06
2.26959e-07
1.42743e-06
1.99869e-07
1.42842e-06
2.3304e-07
1.42729e-06
2.11969e-07
1.42729e-06
2.33154e-07
2.11165e-07
1.4259e-06
1.46002e-06
-2.51769e-08
1.46129e-06
5.98237e-07
1.47115e-06
-8.46481e-07
1.46334e-06
6.63655e-08
1.45762e-06
9.18787e-07
1.46482e-06
2.8115e-07
1.47756e-06
5.65e-07
1.47566e-06
-8.39162e-07
1.45198e-06
-4.61294e-07
1.45486e-06
-5.99904e-07
1.44925e-06
-9.95383e-08
1.46185e-06
-1.63827e-07
1.46284e-06
1.78894e-07
1.4693e-06
9.2195e-08
1.47122e-06
2.25042e-07
1.47382e-06
1.9727e-07
1.4761e-06
2.30761e-07
1.47526e-06
2.12809e-07
1.47613e-06
2.32287e-07
2.11917e-07
1.47537e-06
1.51435e-06
-1.86586e-08
1.51504e-06
5.97548e-07
1.52666e-06
-8.58098e-07
1.51899e-06
7.40403e-08
1.5136e-06
9.24174e-07
1.52131e-06
2.73442e-07
1.53443e-06
5.51882e-07
1.53293e-06
-8.37664e-07
1.50937e-06
-4.37732e-07
1.50959e-06
-6.00125e-07
1.50202e-06
-9.19664e-08
1.51217e-06
-1.73984e-07
1.51262e-06
1.78448e-07
1.51707e-06
8.77425e-08
1.5197e-06
2.22413e-07
1.52158e-06
1.95392e-07
1.52493e-06
2.27406e-07
1.52451e-06
2.13236e-07
1.52622e-06
2.30568e-07
2.11877e-07
1.52626e-06
1.57133e-06
-1.13744e-08
1.57186e-06
5.97015e-07
1.58352e-06
-8.69762e-07
1.57655e-06
8.10148e-08
1.57241e-06
9.28312e-07
1.58019e-06
2.65667e-07
1.59316e-06
5.38906e-07
1.59147e-06
-8.35966e-07
1.56837e-06
-4.14632e-07
1.56644e-06
-5.98202e-07
1.55735e-06
-8.28718e-08
1.56516e-06
-1.81799e-07
1.56555e-06
1.78065e-07
1.56762e-06
8.56696e-08
1.57078e-06
2.19251e-07
1.57162e-06
1.94553e-07
1.57567e-06
2.23355e-07
1.57566e-06
2.13249e-07
1.57808e-06
2.28145e-07
2.11007e-07
1.57895e-06
1.63113e-06
-3.96275e-09
1.63191e-06
5.96234e-07
1.64179e-06
-8.79639e-07
1.63607e-06
8.67317e-08
1.63394e-06
9.30447e-07
1.64152e-06
2.58082e-07
1.654e-06
5.26424e-07
1.6514e-06
-8.33367e-07
1.62903e-06
-3.92254e-07
1.62543e-06
-5.94602e-07
1.6153e-06
-7.27456e-08
1.62091e-06
-1.87412e-07
1.62193e-06
1.7705e-07
1.62164e-06
8.59574e-08
1.62526e-06
2.15632e-07
1.62487e-06
1.9494e-07
1.62916e-06
2.19071e-07
1.62944e-06
2.12961e-07
1.6323e-06
2.25293e-07
2.09418e-07
1.63388e-06
1.69387e-06
2.91665e-09
1.69527e-06
5.94839e-07
1.70162e-06
-8.85997e-07
1.69773e-06
9.06203e-08
1.69808e-06
9.30101e-07
1.70538e-06
2.50784e-07
1.71716e-06
5.14645e-07
1.71302e-06
-8.29229e-07
1.69152e-06
-3.7075e-07
1.68662e-06
-5.89704e-07
1.67601e-06
-6.21406e-08
1.67944e-06
-1.90841e-07
1.68183e-06
1.74663e-07
1.67951e-06
8.82695e-08
1.68367e-06
2.11476e-07
1.6821e-06
1.9651e-07
1.68621e-06
2.14961e-07
1.68666e-06
2.12516e-07
1.68962e-06
2.22327e-07
2.07337e-07
1.6917e-06
1.75951e-06
8.72263e-09
1.76182e-06
5.92529e-07
1.76332e-06
-8.87494e-07
1.76174e-06
9.21933e-08
1.76474e-06
9.27106e-07
1.77175e-06
2.43778e-07
1.78277e-06
5.0362e-07
1.77669e-06
-8.23146e-07
1.75608e-06
-3.50137e-07
1.75013e-06
-5.83757e-07
1.73968e-06
-5.16868e-08
1.74075e-06
-1.91917e-07
1.7451e-06
1.70312e-07
1.74125e-06
9.21216e-08
1.74615e-06
2.06575e-07
1.74371e-06
1.98955e-07
1.7474e-06
2.11271e-07
1.74792e-06
2.11991e-07
1.75075e-06
2.19496e-07
2.05017e-07
1.75307e-06
1.82791e-06
1.31461e-08
1.83134e-06
5.89102e-07
1.82724e-06
-8.83396e-07
1.82827e-06
9.11653e-08
1.83381e-06
9.21561e-07
1.84053e-06
2.37064e-07
1.85091e-06
4.93236e-07
1.8428e-06
-8.15031e-07
1.82297e-06
-3.30313e-07
1.81607e-06
-5.76854e-07
1.80645e-06
-4.20705e-08
1.8049e-06
-1.90365e-07
1.81149e-06
1.63726e-07
1.80656e-06
9.70455e-08
1.81242e-06
2.00718e-07
1.80959e-06
2.01784e-07
1.8128e-06
2.08058e-07
1.81344e-06
2.11349e-07
1.81602e-06
2.1692e-07
2.02658e-07
1.81838e-06
1.8989e-06
1.6141e-08
1.90352e-06
5.84488e-07
1.89376e-06
-8.73637e-07
1.89741e-06
8.75145e-08
1.90525e-06
9.13723e-07
1.91162e-06
2.30694e-07
1.92159e-06
4.83262e-07
1.91162e-06
-8.05058e-07
1.89246e-06
-3.11149e-07
1.8845e-06
-5.68893e-07
1.8764e-06
-3.39743e-08
1.87196e-06
-1.85927e-07
1.8807e-06
1.54991e-07
1.87505e-06
1.02689e-07
1.88192e-06
1.93846e-07
1.87924e-06
2.04467e-07
1.88205e-06
2.05255e-07
1.8829e-06
2.1049e-07
1.88524e-06
2.14587e-07
2.00366e-07
1.88753e-06
1.97238e-06
1.78683e-08
1.97811e-06
5.78756e-07
1.96318e-06
-8.58709e-07
1.96924e-06
8.14547e-08
1.97906e-06
9.03903e-07
1.985e-06
2.24757e-07
1.99484e-06
4.73423e-07
1.98329e-06
-7.93514e-07
1.96475e-06
-2.92603e-07
1.95544e-06
-5.59591e-07
1.94946e-06
-2.7987e-08
1.94203e-06
-1.78502e-07
1.95255e-06
1.44477e-07
1.94641e-06
1.08824e-07
1.95413e-06
1.86125e-07
1.95201e-06
2.06584e-07
1.95451e-06
2.02757e-07
1.95568e-06
2.09328e-07
1.95786e-06
2.12407e-07
1.98167e-07
1.96005e-06
2.04832e-06
1.85932e-08
2.05501e-06
5.72073e-07
2.03572e-06
-8.39422e-07
2.04383e-06
7.33451e-08
2.05534e-06
8.92396e-07
2.06078e-06
2.19316e-07
2.0707e-06
4.63499e-07
2.05782e-06
-7.80635e-07
2.04003e-06
-2.74811e-07
2.02898e-06
-5.4854e-07
2.02553e-06
-2.45342e-08
2.01524e-06
-1.68217e-07
2.02703e-06
1.32688e-07
2.02057e-06
1.15282e-07
2.02877e-06
1.77929e-07
2.02746e-06
2.07893e-07
2.0297e-06
2.00517e-07
2.03119e-06
2.07838e-07
2.03333e-06
2.10268e-07
1.96044e-07
2.03545e-06
2.12684e-06
1.85904e-08
2.13429e-06
5.64629e-07
2.11153e-06
-8.16661e-07
2.12127e-06
6.36007e-08
2.13422e-06
8.79447e-07
2.13918e-06
2.1435e-07
2.14931e-06
4.53377e-07
2.13517e-06
-7.66501e-07
2.11847e-06
-2.58112e-07
2.10524e-06
-5.35305e-07
2.10452e-06
-2.38207e-08
2.09173e-06
-1.55424e-07
2.10428e-06
1.20134e-07
2.09769e-06
1.2188e-07
2.10589e-06
1.69729e-07
2.10548e-06
2.08301e-07
2.10743e-06
1.9856e-07
2.10919e-06
2.06081e-07
2.11139e-06
2.08073e-07
1.93965e-07
2.11347e-06
2.20808e-06
1.8092e-08
2.21616e-06
5.5655e-07
2.1907e-06
-7.912e-07
2.20165e-06
5.26492e-08
2.21585e-06
8.65245e-07
2.22047e-06
2.09733e-07
2.2308e-06
4.43045e-07
2.21532e-06
-7.51018e-07
2.2002e-06
-2.42995e-07
2.18442e-06
-5.19524e-07
2.18642e-06
-2.58179e-08
2.17163e-06
-1.40631e-07
2.1845e-06
1.07258e-07
2.178e-06
1.28383e-07
2.18574e-06
1.61994e-07
2.18623e-06
2.07807e-07
2.18785e-06
1.9694e-07
2.18974e-06
2.04192e-07
2.1921e-06
2.05714e-07
1.91896e-07
2.19417e-06
2.29221e-06
1.72799e-08
2.30091e-06
5.47845e-07
2.27334e-06
-7.63631e-07
2.28505e-06
4.09383e-08
2.30038e-06
8.49921e-07
2.30484e-06
2.05267e-07
2.31536e-06
4.3253e-07
2.29831e-06
-7.33966e-07
2.28531e-06
-2.29998e-07
2.26678e-06
-5.00999e-07
2.27129e-06
-3.03272e-08
2.25504e-06
-1.24379e-07
2.26786e-06
9.44369e-08
2.26174e-06
1.34507e-07
2.26861e-06
1.55122e-07
2.26997e-06
2.06448e-07
2.27124e-06
1.95666e-07
2.27303e-06
2.02405e-07
2.27569e-06
2.03052e-07
1.89786e-07
2.2778e-06
2.37936e-06
1.6306e-08
2.3888e-06
5.384e-07
2.35956e-06
-7.34386e-07
2.37154e-06
2.89584e-08
2.38789e-06
8.33567e-07
2.39242e-06
2.0074e-07
2.40312e-06
4.21829e-07
2.38423e-06
-7.15071e-07
2.37383e-06
-2.19604e-07
2.35257e-06
-4.79733e-07
2.35926e-06
-3.70216e-08
2.34207e-06
-1.07187e-07
2.35446e-06
8.20471e-08
2.34902e-06
1.39948e-07
2.35471e-06
1.49426e-07
2.35684e-06
2.0432e-07
2.35774e-06
1.9477e-07
2.35919e-06
2.00953e-07
2.3624e-06
1.99837e-07
1.87579e-07
2.36461e-06
2.46967e-06
1.53152e-08
2.48005e-06
5.2802e-07
2.44948e-06
-7.03819e-07
2.4612e-06
1.72444e-08
2.4785e-06
8.16259e-07
2.48326e-06
1.95987e-07
2.49422e-06
4.10861e-07
2.47323e-06
-6.94071e-07
2.46576e-06
-2.12141e-07
2.44197e-06
-4.55944e-07
2.45042e-06
-4.54729e-08
2.43278e-06
-8.95473e-08
2.44435e-06
7.04841e-08
2.43986e-06
1.44435e-07
2.44417e-06
1.45115e-07
2.44696e-06
2.01537e-07
2.4469e-06
1.94824e-07
2.4481e-06
1.99757e-07
2.45239e-06
1.95545e-07
1.85243e-07
2.45473e-06
2.56326e-06
1.44565e-08
2.57479e-06
5.16493e-07
2.54324e-06
-6.72278e-07
2.55414e-06
6.34521e-09
2.57233e-06
7.98073e-07
2.57738e-06
1.9094e-07
2.58879e-06
3.99452e-07
2.5655e-06
-6.70781e-07
2.56109e-06
-2.07737e-07
2.53512e-06
-4.29977e-07
2.54488e-06
-5.52302e-08
2.52726e-06
-7.19234e-08
2.5376e-06
6.01385e-08
2.53425e-06
1.47793e-07
2.53705e-06
1.42311e-07
2.54041e-06
1.98175e-07
2.54471e-06
1.9053e-07
2.54782e-06
1.96646e-07
2.54571e-06
1.97654e-07
1.82812e-07
2.54814e-06
2.66026e-06
1.38797e-08
2.6731e-06
5.03652e-07
2.64097e-06
-6.40154e-07
2.65055e-06
-3.23228e-09
2.66953e-06
7.79095e-07
2.67482e-06
1.85644e-07
2.68692e-06
3.87356e-07
2.66125e-06
-6.45106e-07
2.65982e-06
-2.06312e-07
2.6321e-06
-4.02256e-07
2.64268e-06
-6.58139e-08
2.62557e-06
-5.48076e-08
2.63431e-06
5.13913e-08
2.6322e-06
1.49912e-07
2.63388e-06
1.40628e-07
2.63579e-06
1.9626e-07
2.63549e-06
1.90827e-07
2.63679e-06
1.95346e-07
2.64245e-06
1.91997e-07
1.80265e-07
2.645e-06
2.76081e-06
1.37203e-08
2.77504e-06
4.89426e-07
2.74276e-06
-6.0788e-07
2.75062e-06
-1.10872e-08
2.77029e-06
7.59429e-07
2.7757e-06
1.80231e-07
2.78872e-06
3.74333e-07
2.76074e-06
-6.17123e-07
2.76193e-06
-2.07507e-07
2.73303e-06
-3.7335e-07
2.74381e-06
-7.65953e-08
2.72792e-06
-3.8921e-08
2.73448e-06
4.48311e-08
2.73395e-06
1.50449e-07
2.73443e-06
1.40148e-07
2.7353e-06
1.95389e-07
2.73441e-06
1.91718e-07
2.73534e-06
1.94415e-07
2.74286e-06
1.84475e-07
1.7783e-07
2.74529e-06
2.8651e-06
1.40784e-08
2.88067e-06
4.73859e-07
2.84869e-06
-5.75904e-07
2.85456e-06
-1.69581e-08
2.87483e-06
7.39158e-07
2.88014e-06
1.74926e-07
2.8943e-06
3.6017e-07
2.86421e-06
-5.8703e-07
2.86752e-06
-2.10817e-07
2.838e-06
-3.43832e-07
2.84835e-06
-8.69425e-08
2.83443e-06
-2.50007e-08
2.83824e-06
4.10237e-08
2.83956e-06
1.49123e-07
2.84001e-06
1.39703e-07
2.84754e-06
1.87855e-07
2.85223e-06
1.8703e-07
2.85468e-06
1.91966e-07
2.84714e-06
1.92012e-07
1.7583e-07
2.84914e-06
2.97332e-06
1.5004e-08
2.99007e-06
4.5711e-07
2.95881e-06
-5.44645e-07
2.96258e-06
-2.07327e-08
2.98342e-06
7.18326e-07
2.98834e-06
1.69999e-07
3.00379e-06
3.44717e-07
2.97187e-06
-5.55109e-07
2.97672e-06
-2.15664e-07
2.94708e-06
-3.14188e-07
2.95656e-06
-9.64214e-08
2.94501e-06
-1.34522e-08
2.94603e-06
4.00029e-08
2.94901e-06
1.46139e-07
2.94396e-06
1.44759e-07
2.94581e-06
1.86004e-07
2.94378e-06
1.89055e-07
2.94412e-06
1.91627e-07
2.95508e-06
1.81054e-07
1.73849e-07
2.95706e-06
3.08567e-06
1.6492e-08
3.10336e-06
4.39418e-07
3.07317e-06
-5.14448e-07
3.07486e-06
-2.24221e-08
3.09626e-06
6.96918e-07
3.10053e-06
1.65729e-07
3.11732e-06
3.27937e-07
3.08393e-06
-5.21721e-07
3.08974e-06
-2.21477e-07
3.06036e-06
-2.84811e-07
3.06867e-06
-1.04731e-07
3.05932e-06
-4.10181e-09
3.05862e-06
4.0705e-08
3.06273e-06
1.42026e-07
3.06305e-06
1.44441e-07
3.07216e-06
1.76893e-07
3.07667e-06
1.84549e-07
3.07905e-06
1.89244e-07
3.0672e-06
1.92905e-07
1.72068e-07
3.06898e-06
3.20237e-06
1.84786e-08
3.2207e-06
4.21091e-07
3.19184e-06
-4.85592e-07
3.19151e-06
-2.2092e-08
3.21362e-06
6.74811e-07
3.21692e-06
1.62431e-07
3.23505e-06
3.09806e-07
3.20051e-06
-4.87178e-07
3.20679e-06
-2.27759e-07
3.17795e-06
-2.55968e-07
3.1852e-06
-1.11984e-07
3.17675e-06
4.34999e-09
3.17689e-06
4.05582e-08
3.17961e-06
1.39306e-07
3.18004e-06
1.44016e-07
3.1726e-06
1.8433e-07
3.17085e-06
1.86298e-07
3.17326e-06
1.86837e-07
3.18293e-06
1.83234e-07
1.69427e-07
3.18557e-06
3.32363e-06
2.0863e-08
3.34228e-06
4.02435e-07
3.3149e-06
-4.5821e-07
3.31273e-06
-1.99206e-08
3.33557e-06
6.51973e-07
3.3379e-06
1.60102e-07
3.35697e-06
2.90735e-07
3.32196e-06
-4.52172e-07
3.32786e-06
-2.33659e-07
3.30053e-06
-2.28637e-07
3.30555e-06
-1.16998e-07
3.29954e-06
1.03599e-08
3.29831e-06
4.17898e-08
3.29536e-06
1.42249e-07
3.29086e-06
1.48519e-07
3.29185e-06
1.83341e-07
3.2909e-06
1.87251e-07
3.29273e-06
1.85001e-07
3.30393e-06
1.72031e-07
1.66734e-07
3.30663e-06
3.44963e-06
2.35109e-08
3.46832e-06
3.83746e-07
3.44248e-06
-4.32372e-07
3.43864e-06
-1.60708e-08
3.46223e-06
6.28376e-07
3.46371e-06
1.58627e-07
3.48323e-06
2.71211e-07
3.44849e-06
-4.17435e-07
3.45311e-06
-2.38276e-07
3.42861e-06
-2.04136e-07
3.4296e-06
-1.17986e-07
3.42763e-06
1.23309e-08
3.42073e-06
4.86881e-08
3.43295e-06
1.30027e-07
3.43381e-06
1.47661e-07
3.44128e-06
1.75866e-07
3.44658e-06
1.81956e-07
3.44796e-06
1.83612e-07
3.43051e-06
1.89484e-07
1.65203e-07
3.43204e-06
3.58059e-06
2.62677e-08
3.599e-06
3.65333e-07
3.57483e-06
-4.08195e-07
3.56924e-06
-1.04804e-08
3.59394e-06
6.03667e-07
3.59422e-06
1.58354e-07
3.61439e-06
2.51035e-07
3.57961e-06
-3.82651e-07
3.58366e-06
-2.42327e-07
3.56008e-06
-1.8056e-07
3.56105e-06
-1.18948e-07
3.55681e-06
1.65646e-08
3.55389e-06
5.16134e-08
3.55086e-06
1.33058e-07
3.54715e-06
1.51371e-07
3.54559e-06
1.77421e-07
3.54491e-06
1.82639e-07
3.54812e-06
1.80398e-07
3.56015e-06
1.77452e-07
1.62246e-07
3.56311e-06
3.71664e-06
2.90152e-08
3.7346e-06
3.4737e-07
3.712e-06
-3.85598e-07
3.70487e-06
-3.34932e-09
3.73049e-06
5.78052e-07
3.73008e-06
1.58763e-07
3.75e-06
2.31113e-07
3.7163e-06
-3.48948e-07
3.71864e-06
-2.44668e-07
3.69764e-06
-1.59565e-07
3.69637e-06
-1.17679e-07
3.69382e-06
1.91242e-08
3.69286e-06
5.25712e-08
3.68583e-06
1.40091e-07
3.68219e-06
1.55011e-07
3.68041e-06
1.79196e-07
3.6793e-06
1.83746e-07
3.68196e-06
1.77747e-07
3.69602e-06
1.63386e-07
1.59395e-07
3.69887e-06
3.85797e-06
3.16385e-08
3.87532e-06
3.30018e-07
3.85424e-06
-3.64523e-07
3.84575e-06
5.14144e-09
3.87194e-06
5.51862e-07
3.87154e-06
1.59167e-07
3.8902e-06
2.12452e-07
3.85886e-06
-3.17607e-07
3.85786e-06
-2.43676e-07
3.84215e-06
-1.43852e-07
3.8323e-06
-1.07823e-07
3.83553e-06
1.58878e-08
3.82457e-06
6.35371e-08
3.84451e-06
1.20144e-07
3.8481e-06
1.51427e-07
3.85523e-06
1.72068e-07
3.86067e-06
1.78301e-07
3.86025e-06
1.78165e-07
3.8386e-06
1.85037e-07
1.58722e-07
3.83927e-06
4.00478e-06
3.40154e-08
4.02127e-06
3.13529e-07
4.00193e-06
-3.45184e-07
3.99178e-06
1.52921e-08
4.01906e-06
5.24584e-07
4.01784e-06
1.60387e-07
4.03661e-06
1.93677e-07
4.00504e-06
-2.86037e-07
4.00519e-06
-2.43825e-07
3.98682e-06
-1.25478e-07
3.98475e-06
-1.05756e-07
3.98604e-06
1.45923e-08
3.98459e-06
6.49882e-08
3.97073e-06
1.34008e-07
3.96774e-06
1.54416e-07
3.96566e-06
1.74146e-07
3.96481e-06
1.79149e-07
3.96886e-06
1.74123e-07
3.98283e-06
1.71065e-07
1.55319e-07
3.98623e-06
4.15719e-06
3.61082e-08
4.1728e-06
2.97916e-07
4.15505e-06
-3.27433e-07
4.14369e-06
2.66576e-08
4.17122e-06
4.9705e-07
4.17032e-06
1.61289e-07
4.18773e-06
1.76265e-07
4.15767e-06
-2.55973e-07
4.15701e-06
-2.43172e-07
4.13898e-06
-1.07445e-07
4.13706e-06
-1.03832e-07
4.12553e-06
2.61161e-08
4.12007e-06
7.0449e-08
4.11987e-06
1.34208e-07
4.11891e-06
1.55377e-07
4.11696e-06
1.76097e-07
4.11596e-06
1.80149e-07
4.11914e-06
1.70942e-07
4.13496e-06
1.5525e-07
1.52127e-07
4.13815e-06
4.31543e-06
3.7869e-08
4.33013e-06
2.83214e-07
4.31386e-06
-3.11166e-07
4.30175e-06
3.87658e-08
4.32855e-06
4.70257e-07
4.32941e-06
1.60424e-07
4.3434e-06
1.62274e-07
4.31752e-06
-2.30093e-07
4.3123e-06
-2.37945e-07
4.3004e-06
-9.55505e-08
4.28502e-06
-8.84515e-08
4.30119e-06
9.95154e-09
4.29897e-06
7.26643e-08
4.30574e-06
1.27437e-07
4.31013e-06
1.50987e-07
4.31904e-06
1.67184e-07
4.32491e-06
1.74282e-07
4.32172e-06
1.74129e-07
4.29538e-06
1.81591e-07
1.52872e-07
4.29464e-06
4.47976e-06
3.91959e-08
4.49323e-06
2.69742e-07
4.47887e-06
-2.96806e-07
4.46557e-06
5.20683e-08
4.49254e-06
4.43288e-07
4.49311e-06
1.59852e-07
4.50755e-06
1.47832e-07
4.47966e-06
-2.02203e-07
4.47829e-06
-2.36571e-07
4.46075e-06
-7.80137e-08
4.45968e-06
-8.73853e-08
4.44689e-06
2.27489e-08
4.44235e-06
7.71977e-08
4.43771e-06
1.32075e-07
4.43862e-06
1.50085e-07
4.43687e-06
1.68926e-07
4.43669e-06
1.74469e-07
4.44102e-06
1.69801e-07
4.45599e-06
1.66615e-07
1.49731e-07
4.45913e-06
4.65028e-06
4.01206e-08
4.66273e-06
2.57291e-07
4.64977e-06
-2.83847e-07
4.63632e-06
6.552e-08
4.66164e-06
4.17968e-07
4.66447e-06
1.57027e-07
4.67562e-06
1.36679e-07
4.65082e-06
-1.77403e-07
4.64696e-06
-2.3271e-07
4.62957e-06
-6.06261e-08
4.61843e-06
-7.62405e-08
4.61528e-06
2.5898e-08
4.61439e-06
7.80885e-08
4.60616e-06
1.40301e-07
4.60781e-06
1.4844e-07
4.60676e-06
1.69973e-07
4.60598e-06
1.75245e-07
4.6096e-06
1.66189e-07
4.62633e-06
1.49881e-07
1.47424e-07
4.62864e-06
4.82728e-06
4.06246e-08
4.83877e-06
2.45802e-07
4.82692e-06
-2.71996e-07
4.8141e-06
7.83377e-08
4.83617e-06
3.95905e-07
4.84379e-06
1.49407e-07
4.84793e-06
1.32534e-07
4.8315e-06
-1.6097e-07
4.81633e-06
-2.17545e-07
4.81786e-06
-6.2155e-08
4.79151e-06
-4.98897e-08
4.80181e-06
1.55965e-08
4.79742e-06
8.24784e-08
4.81943e-06
1.18298e-07
4.8274e-06
1.40463e-07
4.83923e-06
1.58149e-07
4.84439e-06
1.70082e-07
4.838e-06
1.72575e-07
4.80756e-06
1.80326e-07
1.51918e-07
4.80306e-06
5.01111e-06
4.05891e-08
5.02124e-06
2.35667e-07
5.01095e-06
-2.61709e-07
4.99798e-06
9.13141e-08
5.01945e-06
3.7443e-07
5.02571e-06
1.43149e-07
5.03308e-06
1.25166e-07
5.01133e-06
-1.39224e-07
5.0014e-06
-2.0761e-07
4.99169e-06
-5.2449e-08
4.97584e-06
-3.40368e-08
4.97306e-06
1.83804e-08
4.97102e-06
8.45098e-08
4.96647e-06
1.22853e-07
4.96526e-06
1.41677e-07
4.96796e-06
1.55447e-07
4.96541e-06
1.72629e-07
4.96892e-06
1.69062e-07
4.98608e-06
1.63166e-07
1.5082e-07
4.98718e-06
5.20179e-06
4.01138e-08
5.21104e-06
2.26417e-07
5.20151e-06
-2.52177e-07
5.18966e-06
1.03161e-07
5.20865e-06
3.55438e-07
5.21545e-06
1.36347e-07
5.22436e-06
1.16255e-07
5.19858e-06
-1.13444e-07
5.19455e-06
-2.03579e-07
5.17986e-06
-3.77589e-08
5.16761e-06
-2.17831e-08
5.16056e-06
2.54312e-08
5.16088e-06
8.4192e-08
5.15651e-06
1.27219e-07
5.156e-06
1.42188e-07
5.15731e-06
1.54137e-07
5.16177e-06
1.68174e-07
5.16723e-06
1.63602e-07
5.1738e-06
1.56591e-07
1.47127e-07
5.17749e-06
5.39972e-06
3.91698e-08
5.40806e-06
2.18076e-07
5.39916e-06
-2.43276e-07
5.38912e-06
1.13207e-07
5.40431e-06
3.40247e-07
5.41347e-06
1.27181e-07
5.42006e-06
1.09671e-07
5.3966e-06
-8.99907e-08
5.38686e-06
-1.9384e-07
5.37828e-06
-2.91741e-08
5.36344e-06
-6.94777e-09
5.3574e-06
3.14722e-08
5.35666e-06
8.4932e-08
5.35471e-06
1.29176e-07
5.35356e-06
1.43335e-07
5.35581e-06
1.51886e-07
5.36154e-06
1.6244e-07
5.36747e-06
1.57681e-07
5.37029e-06
1.53763e-07
1.4274e-07
5.37468e-06
5.60519e-06
3.77134e-08
5.61254e-06
2.10726e-07
5.60427e-06
-2.34997e-07
5.59606e-06
1.21411e-07
5.60829e-06
3.28015e-07
5.61774e-06
1.17737e-07
5.624e-06
1.03412e-07
5.6014e-06
-6.7399e-08
5.58871e-06
-1.81141e-07
5.58333e-06
-2.37954e-08
5.56791e-06
8.46941e-09
5.56173e-06
3.76485e-08
5.56053e-06
8.61323e-08
5.56046e-06
1.29253e-07
5.55904e-06
1.4475e-07
5.56167e-06
1.49255e-07
5.56608e-06
1.5803e-07
5.56963e-06
1.54138e-07
5.57481e-06
1.48574e-07
1.38158e-07
5.5794e-06
5.81838e-06
3.58141e-08
5.82507e-06
2.04036e-07
5.81691e-06
-2.26837e-07
5.81156e-06
1.26762e-07
5.82008e-06
3.19491e-07
5.82969e-06
1.08128e-07
5.83524e-06
9.78659e-08
5.81399e-06
-4.61503e-08
5.79864e-06
-1.65795e-07
5.79552e-06
-2.06722e-08
5.78062e-06
2.33684e-08
5.77425e-06
4.40157e-08
5.77273e-06
8.76592e-08
5.7737e-06
1.2828e-07
5.77253e-06
1.45916e-07
5.77506e-06
1.46731e-07
5.77978e-06
1.53312e-07
5.78484e-06
1.49071e-07
5.78751e-06
1.45906e-07
1.33851e-07
5.79182e-06
6.03965e-06
3.34624e-08
6.0457e-06
1.97987e-07
6.03756e-06
-2.18697e-07
6.03521e-06
1.29111e-07
6.04045e-06
3.14249e-07
6.04917e-06
9.94064e-08
6.05454e-06
9.24965e-08
6.0345e-06
-2.61107e-08
6.01722e-06
-1.48513e-07
6.0154e-06
-1.88551e-08
6.00199e-06
3.67811e-08
5.9951e-06
5.09087e-08
5.99302e-06
8.97421e-08
5.99471e-06
1.26584e-07
5.99441e-06
1.46221e-07
5.99626e-06
1.44876e-07
5.99955e-06
1.50025e-07
6.00196e-06
1.46663e-07
6.00843e-06
1.39437e-07
1.29939e-07
6.01234e-06
6.26929e-06
3.06781e-08
6.2748e-06
1.92473e-07
6.26648e-06
-2.1038e-07
6.26684e-06
1.2875e-07
6.26969e-06
3.11401e-07
6.27666e-06
9.24418e-08
6.28224e-06
8.69097e-08
6.2633e-06
-7.17054e-09
6.24476e-06
-1.2997e-07
6.24351e-06
-1.76028e-08
6.2319e-06
4.83825e-08
6.22427e-06
5.85422e-08
6.22208e-06
9.19354e-08
6.22419e-06
1.24475e-07
6.22466e-06
1.45746e-07
6.22591e-06
1.43626e-07
6.23062e-06
1.45314e-07
6.23608e-06
1.41206e-07
6.23782e-06
1.37696e-07
1.26405e-07
6.24136e-06
6.50759e-06
2.74949e-08
6.51261e-06
1.87453e-07
6.50409e-06
-2.01866e-07
6.5067e-06
1.26148e-07
6.5081e-06
3.09996e-07
6.51266e-06
8.78858e-08
6.51873e-06
8.08314e-08
6.50096e-06
1.06005e-08
6.48147e-06
-1.10472e-07
6.47998e-06
-1.61134e-08
6.47061e-06
5.7747e-08
6.46256e-06
6.65915e-08
6.46028e-06
9.42215e-08
6.46207e-06
1.22679e-07
6.46329e-06
1.44529e-07
6.46438e-06
1.42532e-07
6.46718e-06
1.42518e-07
6.46926e-06
1.39132e-07
6.47602e-06
1.30935e-07
1.23079e-07
6.47934e-06
6.7549e-06
2.39383e-08
6.75948e-06
1.82866e-07
6.75069e-06
-1.93069e-07
6.75518e-06
1.21655e-07
6.75592e-06
3.09255e-07
6.75798e-06
8.58295e-08
6.76413e-06
7.46763e-08
6.74786e-06
2.68714e-08
6.72766e-06
-9.02707e-08
6.72551e-06
-1.39615e-08
6.71831e-06
6.49466e-08
6.71e-06
7.48996e-08
6.70745e-06
9.6768e-08
6.70885e-06
1.21281e-07
6.71114e-06
1.42243e-07
6.71238e-06
1.41295e-07
6.71592e-06
1.38974e-07
6.72097e-06
1.34083e-07
6.72296e-06
1.28938e-07
1.19778e-07
6.72626e-06
7.01154e-06
2.00481e-08
7.01563e-06
1.78771e-07
7.00668e-06
-1.84119e-07
7.0127e-06
1.15638e-07
7.01344e-06
3.0852e-07
7.01306e-06
8.62065e-08
7.0189e-06
6.88403e-08
7.00434e-06
4.14272e-08
6.98352e-06
-6.94517e-08
6.98037e-06
-1.08122e-08
6.97515e-06
7.01706e-08
6.96716e-06
8.28859e-08
6.9644e-06
9.95249e-08
6.9655e-06
1.20186e-07
6.96836e-06
1.39383e-07
6.96947e-06
1.4018e-07
6.97151e-06
1.36938e-07
6.97387e-06
1.31725e-07
6.97929e-06
1.23514e-07
1.16116e-07
6.98295e-06
7.27788e-06
1.58556e-08
7.28142e-06
1.75239e-07
7.27246e-06
-1.7516e-07
7.27969e-06
1.08401e-07
7.28271e-06
3.05506e-07
7.2785e-06
9.04185e-08
7.28336e-06
6.39802e-08
7.27057e-06
5.42175e-08
7.24955e-06
-4.84362e-08
7.2452e-06
-6.45791e-09
7.24169e-06
7.36787e-08
7.23418e-06
9.03919e-08
7.23118e-06
1.02522e-07
7.23185e-06
1.19522e-07
7.23471e-06
1.36525e-07
7.2364e-06
1.38485e-07
7.2395e-06
1.33843e-07
7.24383e-06
1.27397e-07
7.24572e-06
1.21618e-07
1.12285e-07
7.24955e-06
7.55426e-06
1.14269e-08
7.55729e-06
1.72212e-07
7.54818e-06
-1.66048e-07
7.5568e-06
9.97736e-08
7.56336e-06
2.9895e-07
7.55342e-06
1.00361e-07
7.55799e-06
5.94095e-08
7.54696e-06
6.52443e-08
7.526e-06
-2.74812e-08
7.52022e-06
-6.72665e-10
7.51812e-06
7.57804e-08
7.51151e-06
9.69989e-08
7.50827e-06
1.05758e-07
7.50862e-06
1.1918e-07
7.51139e-06
1.33749e-07
7.51377e-06
1.36109e-07
7.5156e-06
1.32014e-07
7.51742e-06
1.25576e-07
7.52222e-06
1.16818e-07
1.08536e-07
7.52597e-06
7.84102e-06
6.85867e-09
7.84422e-06
1.69017e-07
7.83389e-06
-1.55716e-07
7.84429e-06
8.93714e-08
7.84315e-06
3.00086e-07
7.83758e-06
1.05935e-07
7.84351e-06
5.34781e-08
7.83373e-06
7.50239e-08
7.81317e-06
-6.91848e-09
7.80606e-06
6.4329e-09
7.80488e-06
7.69568e-08
7.79925e-06
1.02634e-07
7.79592e-06
1.09087e-07
7.79615e-06
1.18953e-07
7.79863e-06
1.31262e-07
7.80139e-06
1.33347e-07
7.80397e-06
1.29438e-07
7.80778e-06
1.21764e-07
7.80947e-06
1.1513e-07
1.05178e-07
7.81283e-06
8.13859e-06
2.23131e-09
8.14165e-06
1.65956e-07
8.1302e-06
-1.44265e-07
8.1436e-06
7.59691e-08
8.15341e-06
2.90278e-07
8.15195e-06
1.07395e-07
8.14334e-06
6.20848e-08
8.13101e-06
8.73521e-08
8.11166e-06
1.2433e-08
8.10324e-06
1.48521e-08
8.10248e-06
7.7716e-08
8.09805e-06
1.07071e-07
8.09471e-06
1.12426e-07
8.09481e-06
1.18846e-07
8.09679e-06
1.29289e-07
8.09962e-06
1.30512e-07
8.10147e-06
1.27589e-07
8.10373e-06
1.19512e-07
8.10765e-06
1.11204e-07
1.01975e-07
8.11086e-06
8.44745e-06
-2.45491e-09
8.44963e-06
1.6377e-07
8.43946e-06
-1.34088e-07
8.45159e-06
6.38371e-08
8.45906e-06
2.82802e-07
8.44448e-06
1.21978e-07
8.4456e-06
6.09688e-08
8.43971e-06
9.32414e-08
8.42159e-06
3.05527e-08
8.41207e-06
2.43652e-08
8.41135e-06
7.84415e-08
8.40814e-06
1.10282e-07
8.4048e-06
1.15764e-07
8.40488e-06
1.18764e-07
8.40642e-06
1.27747e-07
8.40937e-06
1.27563e-07
8.41216e-06
1.24803e-07
8.41575e-06
1.15925e-07
8.41738e-06
1.09568e-07
9.89471e-08
8.42041e-06
8.76785e-06
-7.0235e-09
8.77013e-06
1.61495e-07
8.75906e-06
-1.23018e-07
8.76968e-06
5.32141e-08
8.77572e-06
2.76758e-07
8.76377e-06
1.33936e-07
8.76343e-06
6.13055e-08
8.7597e-06
9.6972e-08
8.74342e-06
4.68352e-08
8.73304e-06
3.47408e-08
8.73195e-06