/*--------------------------------*- C++ -*----------------------------------*\
| =========                 |                                                 |
| \\      /  F ield         | OpenFOAM: The Open Source CFD Toolbox           |
|  \\    /   O peration     | Version:  v2012                                 |
|   \\  /    A nd           | Website:  www.openfoam.com                      |
|    \\/     M anipulation  |                                                 |
\*---------------------------------------------------------------------------*/
FoamFile
{
    version     2.0;
    format      ascii;
    class       volVectorField;
    location    "8.2";
    object      U;
}
// * * * * * * * * * * * * * * * * * * * * * * * * * * * * * * * * * * * * * //

dimensions      [0 1 -1 0 0 0 0];


internalField   nonuniform List<vector> 
7000
(
(0.908122 0.00185412 0)
(1.18338 0.00394434 0)
(0.832186 -0.0116857 0)
(1.03482 0.00560763 0)
(1.03959 0.0115458 0)
(1.0205 0.000274807 0)
(0.921848 0.0118828 0)
(1.10093 -0.0224581 0)
(0.796711 -0.00568776 0)
(1.22912 -0.0162809 0)
(0.728167 0.000614519 0)
(1.27001 -9.52178e-05 0)
(0.735927 0.00370809 0)
(1.24422 0.00912203 0)
(0.778418 0.00495717 0)
(1.20231 0.0148101 0)
(0.824626 0.00828784 0)
(1.1692 0.0169523 0)
(0.86131 0.0115915 0)
(1.14088 0.0184384 0)
(0.912465 0.00141245 0)
(1.17438 0.00447008 0)
(0.848697 -0.0110249 0)
(1.03444 0.00463012 0)
(1.04138 0.0115094 0)
(1.02049 0.0014909 0)
(0.932286 0.0111032 0)
(1.08399 -0.0207398 0)
(0.810497 -0.00767398 0)
(1.20752 -0.0148985 0)
(0.742768 -0.00055784 0)
(1.24778 0.000589942 0)
(0.757295 0.00367834 0)
(1.21548 0.00893418 0)
(0.812663 0.00537118 0)
(1.16115 0.0141181 0)
(0.878852 0.00907911 0)
(1.10731 0.0156691 0)
(0.939735 0.0130311 0)
(1.05289 0.0167612 0)
(0.921273 0.000979057 0)
(1.15706 0.00492422 0)
(0.873907 -0.010462 0)
(1.03152 0.0034726 0)
(1.04434 0.0116414 0)
(1.02019 0.00224538 0)
(0.949361 0.01047 0)
(1.06408 -0.0195221 0)
(0.837949 -0.00934027 0)
(1.17285 -0.0136307 0)
(0.781384 -0.00172497 0)
(1.20435 0.000961702 0)
(0.811841 0.00363104 0)
(1.15822 0.00840633 0)
(0.879847 0.00618275 0)
(1.09269 0.0128203 0)
(0.946811 0.0103151 0)
(1.03994 0.0140438 0)
(0.991201 0.0144087 0)
(1.00618 0.0156158 0)
(0.933696 0.000626868 0)
(1.13323 0.00522337 0)
(0.903799 -0.00997978 0)
(1.02525 0.00254185 0)
(1.04607 0.0117447 0)
(1.01889 0.00288632 0)
(0.968017 0.0101186 0)
(1.04276 -0.0184214 0)
(0.874584 -0.0105978 0)
(1.12797 -0.0127698 0)
(0.839339 -0.00245106 0)
(1.14606 0.000806305 0)
(0.884133 0.00403188 0)
(1.09171 0.00746393 0)
(0.945571 0.00727569 0)
(1.03385 0.0115253 0)
(0.988028 0.0113505 0)
(1.00308 0.0130455 0)
(1.00544 0.0151787 0)
(0.991922 0.0153316 0)
(0.948268 0.00033257 0)
(1.10547 0.00542325 0)
(0.93404 -0.00954111 0)
(1.01683 0.00181019 0)
(1.04428 0.0117809 0)
(1.01623 0.00342583 0)
(0.983911 0.00996222 0)
(1.02399 -0.0175478 0)
(0.912432 -0.0114978 0)
(1.08069 -0.012368 0)
(0.900397 -0.00277742 0)
(1.08897 0.00018195 0)
(0.948306 0.00482009 0)
(1.04228 0.00647972 0)
(0.988348 0.00831202 0)
(1.00586 0.0107651 0)
(1.00394 0.0119618 0)
(0.994452 0.0127503 0)
(1.00531 0.0155174 0)
(0.992124 0.0154733 0)
(0.963262 9.6691e-05 0)
(1.07695 0.00553448 0)
(0.960629 -0.00916063 0)
(1.00843 0.00123974 0)
(1.03828 0.0117798 0)
(1.01236 0.0038395 0)
(0.994844 0.00994041 0)
(1.01091 -0.0169109 0)
(0.943978 -0.0120033 0)
(1.04026 -0.012359 0)
(0.948838 -0.0028357 0)
(1.04712 -0.000629657 0)
(0.990019 0.00561065 0)
(1.01966 0.00579178 0)
(1.00914 0.00905798 0)
(1.00306 0.0105005 0)
(1.00948 0.0122997 0)
(0.999676 0.0127689 0)
(1.00534 0.0157061 0)
(0.998006 0.0157013 0)
(0.977114 -7.57347e-05 0)
(1.05068 0.00557013 0)
(0.981092 -0.00885595 0)
(1.00195 0.000840156 0)
(1.0292 0.0117567 0)
(1.00772 0.00412473 0)
(1.00086 0.00998843 0)
(1.00437 -0.0164747 0)
(0.965986 -0.0121599 0)
(1.01201 -0.0126098 0)
(0.97869 -0.00282002 0)
(1.02344 -0.00141947 0)
(1.0101 0.00612997 0)
(1.01549 0.00540378 0)
(1.01724 0.0094912 0)
(1.01023 0.0104431 0)
(1.01335 0.0125254 0)
(1.00814 0.0128389 0)
(1.00863 0.0158792 0)
(1.00531 0.0159178 0)
(0.988789 -0.000188743 0)
(1.02879 0.00555548 0)
(0.994875 -0.0086341 0)
(0.998227 0.000606368 0)
(1.01925 0.0117252 0)
(1.00285 0.00429723 0)
(1.00341 0.0100368 0)
(1.00295 -0.016183 0)
(0.979526 -0.0120554 0)
(0.995728 -0.0129795 0)
(0.992764 -0.00283406 0)
(1.01219 -0.00212391 0)
(1.01619 0.00635034 0)
(1.01726 0.00514304 0)
(1.01967 0.00971562 0)
(1.01694 0.0103971 0)
(1.01681 0.0127001 0)
(1.0147 0.0129066 0)
(1.01298 0.0160573 0)
(1.01138 0.0161259 0)
(0.997923 -0.000252855 0)
(1.01204 0.00551666 0)
(1.00293 -0.00849361 0)
(0.997015 0.000506418 0)
(1.01051 0.0117043 0)
(0.998396 0.00437801 0)
(1.00426 0.0100355 0)
(1.00432 -0.0159867 0)
(0.987527 -0.011776 0)
(0.988007 -0.013363 0)
(0.997114 -0.0028826 0)
(1.00647 -0.00275953 0)
(1.01535 0.00637889 0)
(1.0178 0.00487861 0)
(1.01937 0.00984156 0)
(1.01968 0.0103049 0)
(1.01863 0.0128418 0)
(1.01779 0.0129874 0)
(1.01587 0.0162234 0)
(1.01482 0.0163311 0)
(1.0047 -0.000279948 0)
(0.999984 0.00547342 0)
(1.00693 -0.00842732 0)
(0.997443 0.000499828 0)
(1.0042 0.0117084 0)
(0.994895 0.00438759 0)
(1.00468 0.00996534 0)
(1.00652 -0.0158531 0)
(0.992633 -0.0113883 0)
(0.985215 -0.0136996 0)
(0.996923 -0.00292769 0)
(1.00233 -0.00335049 0)
(1.01171 0.00632296 0)
(1.01548 0.00457462 0)
(1.01715 0.00991995 0)
(1.0187 0.0101753 0)
(1.01812 0.0129494 0)
(1.01766 0.0130823 0)
(1.01629 0.0163563 0)
(1.01546 0.016524 0)
(1.00956 -0.000279995 0)
(0.991573 0.00543701 0)
(1.00853 -0.0084245 0)
(0.998567 0.000549303 0)
(1.00043 0.0117425 0)
(0.992642 0.00434578 0)
(1.00524 0.00983212 0)
(1.00846 -0.0157619 0)
(0.996393 -0.0109386 0)
(0.984851 -0.0139616 0)
(0.995263 -0.00293226 0)
(0.99857 -0.00389381 0)
(1.0071 0.00624762 0)
(1.01114 0.00424745 0)
(1.01337 0.00995467 0)
(1.01527 0.0100293 0)
(1.01554 0.0130032 0)
(1.01525 0.0131795 0)
(1.01452 0.0164405 0)
(1.01393 0.0166917 0)
(1.01293 -0.000259972 0)
(0.985761 0.00541152 0)
(1.00894 -0.00847341 0)
(0.999677 0.000627204 0)
(0.998612 0.0118017 0)
(0.991626 0.00426879 0)
(1.00594 0.00965322 0)
(1.0098 -0.0157005 0)
(0.999388 -0.0104567 0)
(0.985539 -0.0141413 0)
(0.993495 -0.00287378 0)
(0.995169 -0.00438091 0)
(1.00236 0.0061836 0)
(1.00596 0.00392685 0)
(1.0085 0.00993912 0)
(1.01049 0.00988285 0)
(1.01152 0.0129821 0)
(1.01148 0.0132695 0)
(1.01136 0.0164687 0)
(1.01113 0.0168236 0)
(1.01506 -0.000224345 0)
(0.9819 0.00539635 0)
(1.00882 -0.00856164 0)
(1.00036 0.000716236 0)
(0.997986 0.011875 0)
(0.991657 0.00416942 0)
(1.00656 0.00944752 0)
(1.01062 -0.01566 0)
(1.00164 -0.00996101 0)
(0.986633 -0.0142417 0)
(0.992003 -0.0027499 0)
(0.9923 -0.00479807 0)
(0.997959 0.00614543 0)
(1.00079 0.00364493 0)
(1.00317 0.00987557 0)
(1.00517 0.00974956 0)
(1.00671 0.0128804 0)
(1.007 0.0133429 0)
(1.00749 0.0164387 0)
(1.00771 0.0169098 0)
(1.01601 -0.00017652 0)
(0.979788 0.0053884 0)
(1.0084 -0.00867532 0)
(1.00044 0.000806531 0)
(0.997957 0.0119498 0)
(0.992502 0.00405814 0)
(1.00692 0.0092302 0)
(1.01113 -0.0156322 0)
(1.00298 -0.00946261 0)
(0.987876 -0.0142733 0)
(0.990749 -0.0025679 0)
(0.990027 -0.00514117 0)
(0.994203 0.00613033 0)
(0.996216 0.00343055 0)
(0.998015 0.00977362 0)
(0.999931 0.00964523 0)
(1.00169 0.012708 0)
(1.00229 0.0133883 0)
(1.00337 0.0163494 0)
(1.00404 0.0169389 0)
(1.01578 -0.000120248 0)
(0.979466 0.00538383 0)
(1.00769 -0.00879809 0)
(0.999894 0.000891841 0)
(0.998216 0.0120142 0)
(0.993926 0.00394321 0)
(1.00701 0.00901175 0)
(1.01151 -0.0156067 0)
(1.00333 -0.00896959 0)
(0.989175 -0.0142488 0)
(0.989614 -0.00234076 0)
(0.988316 -0.0054119 0)
(0.991215 0.00612489 0)
(0.992606 0.00330604 0)
(0.993591 0.00964339 0)
(0.995303 0.00958707 0)
(0.996989 0.0124864 0)
(0.997778 0.0134011 0)
(0.999354 0.0162045 0)
(1.00039 0.0169007 0)
(1.0144 -6.0324e-05 0)
(0.980948 0.00537894 0)
(1.00667 -0.00891136 0)
(0.998808 0.00096654 0)
(0.998679 0.0120573 0)
(0.99568 0.00383036 0)
(1.00701 0.00879909 0)
(1.01179 -0.0155708 0)
(1.00282 -0.00848844 0)
(0.990443 -0.0141812 0)
(0.988575 -0.0020789 0)
(0.987079 -0.00561465 0)
(0.988981 0.00610676 0)
(0.990119 0.00327978 0)
(0.990276 0.00948833 0)
(0.991721 0.00958691 0)
(0.993108 0.0122431 0)
(0.993899 0.0133877 0)
(0.995806 0.0160186 0)
(0.997044 0.0167974 0)
(1.01206 -2.09345e-06 0)
(0.984003 0.00536985 0)
(1.00537 -0.00899643 0)
(0.997327 0.00102426 0)
(0.999356 0.012071 0)
(0.997497 0.00372209 0)
(1.00711 0.00859713 0)
(1.01197 -0.0155118 0)
(1.00177 -0.00802377 0)
(0.99155 -0.0140804 0)
(0.987748 -0.00179664 0)
(0.986213 -0.00575189 0)
(0.98741 0.00604978 0)
(0.98869 0.0033449 0)
(0.988209 0.00930798 0)
(0.989415 0.00964636 0)
(0.990415 0.0120021 0)
(0.991043 0.0133584 0)
(0.9931 0.0158135 0)
(0.994349 0.0166444 0)
(1.00912 4.94022e-05 0)
(0.988111 0.00535351 0)
(1.00395 -0.00903719 0)
(0.995617 0.00105839 0)
(1.00025 0.0120508 0)
(0.999136 0.0036184 0)
(1.00739 0.00840832 0)
(1.01204 -0.0154192 0)
(1.0006 -0.00757778 0)
(0.992359 -0.013954 0)
(0.987293 -0.00150945 0)
(0.985632 -0.00582255 0)
(0.98638 0.00593024 0)
(0.988063 0.00348079 0)
(0.987273 0.00909884 0)
(0.988348 0.00975619 0)
(0.98903 0.0117784 0)
(0.989419 0.0133206 0)
(0.991487 0.0156132 0)
(0.992603 0.016462 0)
(1.00603 9.05227e-05 0)
(0.99257 0.00532805 0)
(1.00259 -0.00902294 0)
(0.993843 0.00106363 0)
(1.00129 0.0119959 0)
(1.00045 0.0035187 0)
(1.0078 0.00823209 0)
(1.012 -0.0152881 0)
(0.999622 -0.00714909 0)
(0.992799 -0.0138066 0)
(0.987289 -0.00123708 0)
(0.985291 -0.00581957 0)
(0.985762 0.00573259 0)
(0.987898 0.00366282 0)
(0.987153 0.0088531 0)
(0.988219 0.00989772 0)
(0.988768 0.0115784 0)
(0.988946 0.0132694 0)
(0.990955 0.0154359 0)
(0.991873 0.0162738 0)
(1.00322 0.000119941 0)
(0.996704 0.00529195 0)
(1.00145 -0.00895017 0)
(0.992145 0.00103744 0)
(1.00236 0.0119086 0)
(1.0014 0.00342305 0)
(1.00817 0.00806523 0)
(1.01192 -0.0151194 0)
(0.998979 -0.00673647 0)
(0.99291 -0.0136353 0)
(0.987654 -0.000993982 0)
(0.98519 -0.00572609 0)
(0.985429 0.00545785 0)
(0.987893 0.00387578 0)
(0.987457 0.00856418 0)
(0.988588 0.0100475 0)
(0.989213 0.0114116 0)
(0.989277 0.0131911 0)
(0.991211 0.0152707 0)
(0.991942 0.0160943 0)
(1.001 0.000138272 0)
(1.00005 0.00524512 0)
(1.00062 -0.00882182 0)
(0.990633 0.000980812 0)
(1.00333 0.0117926 0)
(1.00205 0.00333241 0)
(1.00838 0.00790335 0)
(1.01182 -0.0149181 0)
(0.998653 -0.0063395 0)
(0.992829 -0.013433 0)
(0.988188 -0.000800028 0)
(0.985339 -0.00553823 0)
(0.985282 0.00511637 0)
(0.987869 0.00411256 0)
(0.987869 0.0082295 0)
(0.989053 0.0101724 0)
(0.98991 0.011289 0)
(0.989959 0.0131017 0)
(0.991829 0.0150973 0)
(0.992425 0.0159136 0)
(0.999468 0.000147398 0)
(1.00243 0.00518874 0)
(1.00008 -0.00864517 0)
(0.989376 0.000897504 0)
(1.00412 0.0116524 0)
(1.0025 0.00324783 0)
(1.00841 0.00774241 0)
(1.0117 -0.0146916 0)
(0.998544 -0.00595543 0)
(0.992718 -0.0131931 0)
(0.988691 -0.000679293 0)
(0.985722 -0.0052614 0)
(0.985273 0.00472217 0)
(0.98779 0.00436983 0)
(0.98823 0.00786634 0)
(0.989386 0.0102387 0)
(0.990545 0.0111866 0)
(0.99063 0.0130226 0)
(0.99245 0.0149345 0)
(0.992964 0.0157359 0)
(0.998565 0.000149674 0)
(1.00394 0.00512451 0)
(0.999792 -0.0084291 0)
(0.988401 0.00079219 0)
(1.00469 0.0114925 0)
(1.00284 0.00317055 0)
(1.00833 0.00757843 0)
(1.01152 -0.0144414 0)
(0.998551 -0.00558897 0)
(0.992709 -0.0129088 0)
(0.989054 -0.000628024 0)
(0.986291 -0.00490133 0)
(0.985395 0.00428861 0)
(0.987712 0.00463359 0)
(0.988529 0.00751165 0)
(0.989556 0.0102529 0)
(0.991009 0.0110755 0)
(0.991131 0.0129268 0)
(0.992905 0.0147754 0)
(0.993369 0.015571 0)
(0.998119 0.000147238 0)
(1.00479 0.00505411 0)
(0.999708 -0.00818225 0)
(0.987696 0.000670358 0)
(1.00503 0.0113162 0)
(1.00312 0.00310006 0)
(1.00824 0.00741067 0)
(1.01123 -0.0141687 0)
(0.998606 -0.00525036 0)
(0.992869 -0.01256 0)
(0.989281 -0.00065252 0)
(0.986978 -0.00447502 0)
(0.985654 0.00384024 0)
(0.987717 0.00488654 0)
(0.988825 0.00717868 0)
(0.989646 0.0102352 0)
(0.991334 0.0109708 0)
(0.991474 0.0128205 0)
(0.993205 0.0146154 0)
(0.993624 0.0154025 0)
(0.997937 0.000141624 0)
(1.00522 0.00497844 0)
(0.999796 -0.00791116 0)
(0.987228 0.000537239 0)
(1.00516 0.0111254 0)
(1.00337 0.00303212 0)
(1.0082 0.0072403 0)
(1.01082 -0.0138673 0)
(0.998668 -0.00495419 0)
(0.993206 -0.0121405 0)
(0.989444 -0.000746233 0)
(0.987728 -0.00400703 0)
(0.98604 0.00339116 0)
(0.987849 0.00512766 0)
(0.989162 0.00686944 0)
(0.989757 0.010179 0)
(0.9916 0.010877 0)
(0.991735 0.012691 0)
(0.993425 0.0144604 0)
(0.993791 0.0152576 0)
(0.997864 0.000134107 0)
(1.0054 0.00489696 0)
(1.00004 -0.00762132 0)
(0.986966 0.000398725 0)
(1.00507 0.0109202 0)
(1.00361 0.00296699 0)
(1.00823 0.00706285 0)
(1.01031 -0.0135324 0)
(0.998707 -0.00469972 0)
(0.993683 -0.0116698 0)
(0.989617 -0.000900489 0)
(0.988501 -0.00349354 0)
(0.986523 0.00294724 0)
(0.988106 0.00534612 0)
(0.989533 0.00660201 0)
(0.989934 0.0100915 0)
(0.991845 0.0108296 0)
(0.991975 0.012557 0)
(0.993634 0.0142316 0)
(0.993933 0.0150836 0)
(0.997802 0.000125933 0)
(1.00545 0.00480846 0)
(1.00041 -0.00731719 0)
(0.98689 0.000261588 0)
(1.00475 0.0106995 0)
(1.00383 0.00290245 0)
(1.00826 0.00688452 0)
(1.00976 -0.0131664 0)
(0.998706 -0.00451792 0)
(0.994236 -0.0111022 0)
(0.989845 -0.00113048 0)
(0.98927 -0.00295542 0)
(0.987059 0.00253998 0)
(0.988454 0.00553256 0)
(0.989906 0.00639023 0)
(0.990174 0.00995319 0)
(0.992068 0.0108008 0)
(0.992188 0.0125067 0)
(0.993824 0.0140272 0)
(0.994071 0.0148715 0)
(0.997709 0.000118348 0)
(1.0054 0.00470983 0)
(1.00089 -0.00699855 0)
(0.986999 0.000127992 0)
(1.00423 0.010471 0)
(1.00403 0.00282513 0)
(1.00825 0.00670716 0)
(1.00921 -0.012749 0)
(0.998667 -0.00441335 0)
(0.994796 -0.0105112 0)
(0.990135 -0.00135826 0)
(0.990007 -0.00243392 0)
(0.987615 0.00217639 0)
(0.988847 0.00565181 0)
(0.990241 0.00626637 0)
(0.990439 0.00979619 0)
(0.99226 0.0107321 0)
(0.992377 0.0124139 0)
(0.993958 0.0138583 0)
(0.994165 0.0147003 0)
(0.997582 0.000112431 0)
(1.00528 0.00459913 0)
(1.00143 -0.00667177 0)
(0.987292 6.11689e-06 0)
(1.00354 0.0102349 0)
(1.0042 0.00274379 0)
(1.00815 0.00651789 0)
(1.0087 -0.0123028 0)
(0.998598 -0.00430602 0)
(0.995297 -0.00991867 0)
(0.99048 -0.00161224 0)
(0.990675 -0.00190029 0)
(0.988165 0.00187192 0)
(0.989258 0.0057205 0)
(0.990528 0.00616505 0)
(0.9907 0.00966431 0)
(0.992387 0.0106792 0)
(0.992524 0.01235 0)
(0.99405 0.0136509 0)
(0.994231 0.0144977 0)
(0.997434 0.000108595 0)
(1.00508 0.00447945 0)
(1.00196 -0.00634763 0)
(0.987765 -8.75275e-05 0)
(1.00275 0.00997382 0)
(1.00434 0.00268612 0)
(1.00793 0.00628513 0)
(1.00826 -0.0117625 0)
(0.998529 -0.00438287 0)
(0.995681 -0.00913733 0)
(0.990863 -0.00195812 0)
(0.991251 -0.00138283 0)
(0.988696 0.00158111 0)
(0.989654 0.00582416 0)
(0.990772 0.00606308 0)
(0.990957 0.00954534 0)
(0.992477 0.010568 0)
(0.992624 0.0123558 0)
(0.994051 0.0134622 0)
(0.994239 0.0142749 0)
(0.997287 0.000112223 0)
(1.00483 0.00433886 0)
(1.00243 -0.00600791 0)
(0.988393 -0.000183828 0)
(1.00191 0.00973511 0)
(1.00446 0.00258074 0)
(1.0076 0.00609196 0)
(1.00787 -0.0112438 0)
(0.998483 -0.00439203 0)
(0.995935 -0.00850843 0)
(0.991262 -0.0022039 0)
(0.991712 -0.000932682 0)
(0.989212 0.00138964 0)
(0.990027 0.00582107 0)
(0.990993 0.00608859 0)
(0.991195 0.00937883 0)
(0.992538 0.0104663 0)
(0.992704 0.0121936 0)
(0.993986 0.0133194 0)
(0.994197 0.0141092 0)
(0.997159 0.000112224 0)
(1.00454 0.0042018 0)
(1.0028 -0.00570057 0)
(0.989138 -0.000216739 0)
(1.00111 0.00944016 0)
(1.00457 0.00253111 0)
(1.00719 0.00580586 0)
(1.00754 -0.0106261 0)
(0.998477 -0.00449109 0)
(0.996039 -0.00778201 0)
(0.991686 -0.00248391 0)
(0.992053 -0.000529952 0)
(0.98969 0.00134055 0)
(0.990376 0.0056939 0)
(0.991198 0.00617581 0)
(0.991438 0.00921663 0)
(0.992605 0.0104235 0)
(0.992798 0.012045 0)
(0.993957 0.013223 0)
(0.994175 0.0139457 0)
(0.997067 0.000123632 0)
(1.00424 0.00404367 0)
(1.00305 -0.00538733 0)
(0.989943 -0.000248596 0)
(1.0004 0.00917262 0)
(1.00466 0.00246737 0)
(1.00675 0.00553975 0)
(1.00725 -0.0100249 0)
(0.998526 -0.00465829 0)
(0.996033 -0.00704435 0)
(0.992091 -0.00274775 0)
(0.992295 -0.000240517 0)
(0.990131 0.00146241 0)
(0.990688 0.0054682 0)
(0.991418 0.00631756 0)
(0.99167 0.00893414 0)
(0.992688 0.0103834 0)
(0.992896 0.0118196 0)
(0.993904 0.0131771 0)
(0.99413 0.0138256 0)
(0.997016 0.000147783 0)
(1.00396 0.00386029 0)
(1.00316 -0.00505592 0)
(0.990755 -0.000296405 0)
(0.999804 0.00893902 0)
(1.00475 0.00235394 0)
(1.00628 0.00534329 0)
(1.00699 -0.0094809 0)
(0.998626 -0.00463737 0)
(0.995935 -0.00654439 0)
(0.992496 -0.00282692 0)
(0.992463 -6.37043e-05 0)
(0.990528 0.00150854 0)
(0.990963 0.00536789 0)
(0.991635 0.00642269 0)
(0.991913 0.00882272 0)
(0.992826 0.010343 0)
(0.99306 0.0116661 0)
(0.993968 0.0130859 0)
(0.99414 0.0136932 0)
(0.997004 0.000145423 0)
(1.0037 0.00372978 0)
(1.00317 -0.00482289 0)
(0.991527 -0.000212643 0)
(0.999346 0.00855138 0)
(1.00482 0.00240437 0)
(1.00584 0.00489898 0)
(1.00672 -0.00863745 0)
(0.99878 -0.00494316 0)
(0.995797 -0.00560958 0)
(0.992879 -0.0031521 0)
(0.992556 0.00032948 0)
(0.990912 0.00126464 0)
(0.991227 0.00551566 0)
(0.991881 0.00632452 0)
(0.992162 0.00899486 0)
(0.992994 0.0101863 0)
(0.993241 0.0117757 0)
(0.994054 0.0128161 0)
(0.994213 0.0133795 0)
(0.997023 0.000177843 0)
(1.00349 0.00354104 0)
(1.00308 -0.00452567 0)
(0.992233 -0.000202319 0)
(0.999013 0.00829824 0)
(1.00488 0.00233605 0)
(1.00544 0.00460995 0)
(1.00646 -0.00808902 0)
(0.998976 -0.00500951 0)
(0.995644 -0.00506806 0)
(0.993241 -0.00323805 0)
(0.992643 0.000429028 0)
(0.991264 0.00151712 0)
(0.991473 0.00527051 0)
(0.992146 0.00641113 0)
(0.99242 0.00878204 0)
(0.993212 0.0102152 0)
(0.99345 0.0115383 0)
(0.994116 0.0127639 0)
(0.994287 0.0132522 0)
(0.99707 0.000213878 0)
(1.00333 0.00334365 0)
(1.00294 -0.00422602 0)
(0.992849 -0.000199826 0)
(0.998791 0.00804565 0)
(1.00493 0.00225361 0)
(1.00506 0.00442765 0)
(1.00619 -0.00759064 0)
(0.999183 -0.00496268 0)
(0.995531 -0.00475927 0)
(0.993572 -0.00298172 0)
(0.992748 0.000214643 0)
(0.991586 0.0018539 0)
(0.99171 0.00502513 0)
(0.992425 0.00665137 0)
(0.992712 0.00865963 0)
(0.993459 0.0102804 0)
(0.993716 0.0113021 0)
(0.994355 0.0126927 0)
(0.994451 0.0131532 0)
(0.997136 0.000201605 0)
(1.00321 0.00324229 0)
(1.00278 -0.00407445 0)
(0.99337 -3.13457e-05 0)
(0.998661 0.00759574 0)
(1.00494 0.00238574 0)
(1.00473 0.00387622 0)
(1.0059 -0.0066332 0)
(0.999416 -0.0052264 0)
(0.995457 -0.00387246 0)
(0.993873 -0.00333774 0)
(0.99286 0.00067049 0)
(0.991922 0.00163413 0)
(0.991971 0.00528823 0)
(0.992723 0.00657191 0)
(0.992988 0.00888811 0)
(0.993721 0.0100104 0)
(0.993977 0.0114831 0)
(0.994561 0.0123376 0)
(0.994632 0.0127816 0)
(0.997208 0.000246032 0)
(1.00313 0.00304826 0)
(1.00262 -0.00380629 0)
(0.993819 9.10209e-06 0)
(0.998592 0.00731295 0)
(1.00493 0.00232903 0)
(1.00443 0.00363663 0)
(1.00561 -0.00619563 0)
(0.999635 -0.00519516 0)
(0.995413 -0.00352748 0)
(0.994176 -0.00310063 0)
(0.993037 0.000647134 0)
(0.992234 0.00197684 0)
(0.992254 0.00501026 0)
(0.993033 0.00664224 0)
(0.99327 0.00864367 0)
(0.993998 0.0100836 0)
(0.994238 0.0111157 0)
(0.994682 0.012269 0)
(0.994801 0.0126732 0)
(0.997289 0.000281738 0)
(1.00307 0.00286674 0)
(1.00246 -0.00355666 0)
(0.994199 4.77798e-05 0)
(0.998568 0.00705414 0)
(1.0049 0.00226425 0)
(1.00413 0.00348665 0)
(1.0053 -0.00582711 0)
(0.999837 -0.00497453 0)
(0.995466 -0.00345322 0)
(0.994433 -0.00258693 0)
(0.993259 0.000212046 0)
(0.992543 0.00244157 0)
(0.992541 0.00475194 0)
(0.993355 0.00682386 0)
(0.993604 0.00841813 0)
(0.994265 0.0101146 0)
(0.994529 0.010778 0)
(0.995007 0.0122267 0)
(0.995011 0.0126375 0)
(0.997381 0.000255492 0)
(1.003 0.0027925 0)
(1.00235 -0.00347364 0)
(0.994518 0.00031179 0)
(0.998587 0.00654063 0)
(1.00484 0.00244611 0)
(1.00387 0.00291535 0)
(1.00499 -0.00484179 0)
(1.00003 -0.00524636 0)
(0.99553 -0.00259226 0)
(0.994686 -0.00303788 0)
(0.993521 0.0007352 0)
(0.992896 0.00216914 0)
(0.992862 0.0052558 0)
(0.993689 0.0066192 0)
(0.993912 0.00882766 0)
(0.994555 0.00978721 0)
(0.994829 0.0111401 0)
(0.995265 0.0117966 0)
(0.995242 0.0121651 0)
(0.997461 0.000299574 0)
(1.00295 0.002611 0)
(1.00224 -0.00323846 0)
(0.99481 0.000380582 0)
(0.998617 0.00625093 0)
(1.00475 0.00235658 0)
(1.00363 0.00278442 0)
(1.00467 -0.00452775 0)
(1.00021 -0.00511125 0)
(0.99562 -0.00235703 0)
(0.994942 -0.00263859 0)
(0.993838 0.000631821 0)
(0.993246 0.00238165 0)
(0.9932 0.00502537 0)
(0.994034 0.00665155 0)
(0.994229 0.00850959 0)
(0.994821 0.00987377 0)
(0.99505 0.0107855 0)
(0.995316 0.0118428 0)
(0.99538 0.0121244 0)
(0.997544 0.000335798 0)
(1.0029 0.0024507 0)
(1.00216 -0.00303036 0)
(0.995074 0.000430531 0)
(0.99866 0.00602063 0)
(1.00468 0.0022557 0)
(1.00338 0.00269272 0)
(1.00438 -0.00424179 0)
(1.00035 -0.00478267 0)
(0.995779 -0.00230287 0)
(0.995153 -0.00211478 0)
(0.994173 0.000189386 0)
(0.993611 0.0028038 0)
(0.993564 0.00476019 0)
(0.994385 0.00680504 0)
(0.994608 0.00817849 0)
(0.995127 0.00999198 0)
(0.9954 0.0105074 0)
(0.995699 0.0119735 0)
(0.995597 0.012231 0)
(0.997635 0.000272991 0)
(1.00283 0.00243024 0)
(1.00211 -0.00303495 0)
(0.995297 0.000807988 0)
(0.998723 0.00543885 0)
(1.00457 0.00247462 0)
(1.00316 0.00216416 0)
(1.00407 -0.00325856 0)
(1.00052 -0.0051634 0)
(0.995924 -0.00136911 0)
(0.995355 -0.00244547 0)
(0.994532 0.000913258 0)
(0.994011 0.00246335 0)
(0.993928 0.00532382 0)
(0.994755 0.00631852 0)
(0.994987 0.00861482 0)
(0.995452 0.0096295 0)
(0.99569 0.0110576 0)
(0.995923 0.0114828 0)
(0.995768 0.0117 0)
(0.997704 0.000348275 0)
(1.00278 0.00223652 0)
(1.00207 -0.00279509 0)
(0.995522 0.000790425 0)
(0.998775 0.00530347 0)
(1.00447 0.00219652 0)
(1.00297 0.0022508 0)
(1.00378 -0.00314359 0)
(1.00066 -0.00479174 0)
(0.996095 -0.00144163 0)
(0.995577 -0.00175599 0)
(0.994899 0.000781952 0)
(0.994408 0.00268307 0)
(0.994281 0.00503774 0)
(0.995122 0.00619765 0)
(0.995379 0.00811751 0)
(0.995798 0.00952566 0)
(0.995943 0.0106436 0)
(0.995928 0.0116021 0)
(0.99589 0.0118676 0)
(0.997774 0.000333901 0)
(1.00272 0.0021509 0)
(1.00202 -0.00267457 0)
(0.995754 0.000923734 0)
(0.99882 0.00503617 0)
(1.0044 0.00208767 0)
(1.00274 0.00224235 0)
(1.00351 -0.00303945 0)
(1.00078 -0.00426201 0)
(0.996323 -0.00155084 0)
(0.99576 -0.000929164 0)
(0.995263 0.000271326 0)
(0.994809 0.00306813 0)
(0.994639 0.00456294 0)
(0.995489 0.00628947 0)
(0.995833 0.00747843 0)
(0.996187 0.0095445 0)
(0.996371 0.0102043 0)
(0.996385 0.0119764 0)
(0.996065 0.0122988 0)
(0.997865 0.000284533 0)
(1.00264 0.00212913 0)
(1.00201 -0.00269109 0)
(0.995952 0.00123578 0)
(0.998877 0.00462411 0)
(1.0043 0.00215579 0)
(1.00256 0.00186261 0)
(1.00324 -0.0022098 0)
(1.00092 -0.00440482 0)
(0.996562 -0.00098753 0)
(0.995922 -0.000804644 0)
(0.995602 0.000685668 0)
(0.995226 0.00292343 0)
(0.994988 0.00487018 0)
(0.995841 0.00611356 0)
(0.996275 0.00749022 0)
(0.996625 0.00923461 0)
(0.996809 0.0103273 0)
(0.996728 0.0115921 0)
(0.996179 0.0119299 0)
(0.997951 0.000369261 0)
(1.00255 0.0019436 0)
(1.002 -0.00247546 0)
(0.996174 0.00119213 0)
(0.998912 0.00456729 0)
(1.0042 0.00184552 0)
(1.00242 0.00192743 0)
(1.00296 -0.00188723 0)
(1.00104 -0.00425272 0)
(0.996823 -0.000778765 0)
(0.996116 -0.000403585 0)
(0.995942 0.000954425 0)
(0.995659 0.00287018 0)
(0.995356 0.00497267 0)
(0.99617 0.0061246 0)
(0.996704 0.00742209 0)
(0.997064 0.00908902 0)
(0.997198 0.0101612 0)
(0.997015 0.0111897 0)
(0.996308 0.011555 0)
(0.998035 0.000271871 0)
(1.00246 0.00196157 0)
(1.002 -0.0024441 0)
(0.996391 0.00138684 0)
(0.99894 0.00427434 0)
(1.00412 0.00183888 0)
(1.00228 0.00175079 0)
(1.0027 -0.0014786 0)
(1.00117 -0.00394521 0)
(0.997122 -0.000607213 0)
(0.996302 5.71785e-05 0)
(0.996242 0.00103699 0)
(0.99608 0.00282396 0)
(0.995743 0.00495841 0)
(0.996506 0.00623739 0)
(0.997138 0.00736219 0)
(0.997507 0.00893986 0)
(0.997582 0.00992818 0)
(0.997309 0.0108902 0)
(0.996454 0.0112481 0)
(0.998117 0.000310748 0)
(1.00236 0.001859 0)
(1.00199 -0.0023693 0)
(0.996614 0.0014415 0)
(0.99896 0.00422964 0)
(1.00403 0.00163491 0)
(1.00217 0.00163602 0)
(1.00246 -0.001016 0)
(1.00128 -0.00364991 0)
(0.997437 -0.000539542 0)
(0.996492 0.000446297 0)
(0.996527 0.00119475 0)
(0.996526 0.0029425 0)
(0.996178 0.00502327 0)
(0.996846 0.0063668 0)
(0.997531 0.00727373 0)
(0.997926 0.00872712 0)
(0.997949 0.00966167 0)
(0.997589 0.0105361 0)
(0.996591 0.0108753 0)
(0.9982 0.000274892 0)
(1.00227 0.00180755 0)
(1.00199 -0.00227453 0)
(0.996844 0.00150387 0)
(0.998965 0.00409171 0)
(1.00394 0.00150195 0)
(1.00208 0.00159461 0)
(1.00222 -0.000652381 0)
(1.00139 -0.00336153 0)
(0.997781 -0.000463356 0)
(0.996702 0.000875692 0)
(0.996807 0.00142935 0)
(0.996963 0.00301249 0)
(0.996602 0.0049006 0)
(0.997166 0.00636739 0)
(0.997904 0.00720631 0)
(0.998346 0.00852432 0)
(0.99831 0.00937134 0)
(0.997862 0.0101468 0)
(0.996734 0.0105 0)
(0.998283 0.000253271 0)
(1.00217 0.00176529 0)
(1.002 -0.00218771 0)
(0.997068 0.00148541 0)
(0.998974 0.00406145 0)
(1.00385 0.00140535 0)
(1.00202 0.00147583 0)
(1.00199 -0.000310558 0)
(1.00147 -0.00292857 0)
(0.998147 -0.000421393 0)
(0.996928 0.0011642 0)
(0.99705 0.00160989 0)
(0.997367 0.00306106 0)
(0.997061 0.00484181 0)
(0.997547 0.00646541 0)
(0.998268 0.00717949 0)
(0.998724 0.00820485 0)
(0.998636 0.00900435 0)
(0.998131 0.00975348 0)
(0.996907 0.0101907 0)
(0.998366 0.000237286 0)
(1.00207 0.001708 0)
(1.002 -0.00210927 0)
(0.997307 0.00148015 0)
(0.998976 0.00405551 0)
(1.00375 0.00129394 0)
(1.00199 0.00137704 0)
(1.0018 3.87977e-05 0)
(1.00154 -0.00251241 0)
(0.998498 -0.000412767 0)
(0.997172 0.00144539 0)
(0.997304 0.00192528 0)
(0.997786 0.00320783 0)
(0.997536 0.00480892 0)
(0.997896 0.00638152 0)
(0.998537 0.0069864 0)
(0.999063 0.00791545 0)
(0.998999 0.00878822 0)
(0.998457 0.00951702 0)
(0.997121 0.00997961 0)
(0.998448 0.000201624 0)
(1.00197 0.00167391 0)
(1.00201 -0.00201748 0)
(0.997539 0.00143112 0)
(0.998978 0.00401718 0)
(1.00366 0.00126921 0)
(1.00197 0.00128607 0)
(1.00161 0.00037323 0)
(1.00158 -0.00213099 0)
(0.998877 -0.000371813 0)
(0.997466 0.00169117 0)
(0.997533 0.00217522 0)
(0.99814 0.00322843 0)
(0.997971 0.00465821 0)
(0.998259 0.00623243 0)
(0.998866 0.00700782 0)
(0.999469 0.00789124 0)
(0.999375 0.0086283 0)
(0.998756 0.00921996 0)
(0.997307 0.00969091 0)
(0.998531 0.000177976 0)
(1.00187 0.0016273 0)
(1.00201 -0.00192128 0)
(0.997785 0.00135421 0)
(0.998984 0.00403586 0)
(1.00355 0.001239 0)
(1.00198 0.00117398 0)
(1.00146 0.000641815 0)
(1.00161 -0.00167056 0)
(0.999237 -0.000298045 0)
(0.997763 0.00183797 0)
(0.997754 0.00239366 0)
(0.998498 0.00331907 0)
(0.99844 0.00465031 0)
(0.998691 0.00620285 0)
(0.999197 0.00702575 0)
(0.999765 0.00766202 0)
(0.999652 0.00824459 0)
(0.999052 0.00885447 0)
(0.997546 0.0093884 0)
(0.998609 0.00014398 0)
(1.00177 0.00159079 0)
(1.00202 -0.00182787 0)
(0.998028 0.00126841 0)
(0.99899 0.00399262 0)
(1.00343 0.00130638 0)
(1.00201 0.00108811 0)
(1.00134 0.000892965 0)
(1.00162 -0.0012357 0)
(0.999597 -0.000221347 0)
(0.998108 0.0019324 0)
(0.997986 0.00265632 0)
(0.998824 0.00347364 0)
(0.998876 0.0046517 0)
(0.99909 0.00604637 0)
(0.999475 0.00686474 0)
(1.00005 0.00745127 0)
(1 0.00807417 0)
(0.999419 0.00870798 0)
(0.997796 0.00916182 0)
(0.998688 0.00011509 0)
(1.00167 0.00156473 0)
(1.00201 -0.00174 0)
(0.998279 0.00119221 0)
(0.999009 0.00394639 0)
(1.00331 0.00134608 0)
(1.00204 0.00102749 0)
(1.00124 0.00115026 0)
(1.00162 -0.000764107 0)
(0.999927 -9.00119e-05 0)
(0.998465 0.00199443 0)
(0.998232 0.00287061 0)
(0.999141 0.00357209 0)
(0.999291 0.00458341 0)
(0.999506 0.00587499 0)
(0.999812 0.00679333 0)
(1.00037 0.00743539 0)
(1.00033 0.00800293 0)
(0.999708 0.00847888 0)
(0.998009 0.00881875 0)
(0.998762 5.83193e-05 0)
(1.00157 0.00155528 0)
(1.00201 -0.0016667 0)
(0.99852 0.00112349 0)
(0.999029 0.00384444 0)
(1.00319 0.00157888 0)
(1.0021 0.000905849 0)
(1.00117 0.00127713 0)
(1.00159 -0.000371654 0)
(1.00023 4.4408e-05 0)
(0.998848 0.0020422 0)
(0.99848 0.00306032 0)
(0.999411 0.00366614 0)
(0.999679 0.0045619 0)
(0.999939 0.0057808 0)
(1.00017 0.00668953 0)
(1.00067 0.00732007 0)
(1.00061 0.00775237 0)
(0.999964 0.00812139 0)
(0.998247 0.00846208 0)
(0.998836 4.5894e-05 0)
(1.00147 0.00149561 0)
(1.002 -0.00150748 0)
(0.998778 0.000901449 0)
(0.99908 0.00385833 0)
(1.00304 0.00156599 0)
(1.00214 0.000929217 0)
(1.00115 0.00149624 0)
(1.0016 6.15243e-05 0)
(1.00053 0.000233967 0)
(0.999246 0.0020447 0)
(0.998751 0.00317748 0)
(0.999692 0.00378578 0)
(1.00007 0.00458978 0)
(1.00035 0.0056891 0)
(1.00052 0.00652433 0)
(1.00094 0.00716779 0)
(1.00084 0.00751992 0)
(1.00021 0.00793735 0)
(0.99851 0.00826388 0)
(0.998904 -1.47461e-06 0)
(1.00138 0.00148487 0)
(1.00199 -0.00141133 0)
(0.999026 0.000791848 0)
(0.999115 0.00375851 0)
(1.00291 0.00159836 0)
(1.00223 0.00103407 0)
(1.00113 0.00175041 0)
(1.00155 0.000497525 0)
(1.00077 0.000474944 0)
(0.999646 0.00208414 0)
(0.999048 0.00332319 0)
(0.999959 0.00393892 0)
(1.00042 0.00459794 0)
(1.00075 0.00560142 0)
(1.00089 0.00637372 0)
(1.00124 0.00704465 0)
(1.00113 0.00740541 0)
(1.00051 0.00785865 0)
(0.99876 0.00805916 0)
(0.998972 -4.2482e-05 0)
(1.00128 0.00148135 0)
(1.00196 -0.00132692 0)
(0.999273 0.000683368 0)
(0.999191 0.00358462 0)
(1.00278 0.00192245 0)
(1.00228 0.00102122 0)
(1.00114 0.00178209 0)
(1.00152 0.000834448 0)
(1.00099 0.000715373 0)
(1.00004 0.00210585 0)
(0.999358 0.00339486 0)
(1.00021 0.00404258 0)
(1.00076 0.00459684 0)
(1.00115 0.00554349 0)
(1.00126 0.00623033 0)
(1.00156 0.00691765 0)
(1.00141 0.00726458 0)
(1.00073 0.00765037 0)
(0.998959 0.00776977 0)
(0.999034 -7.33642e-05 0)
(1.00118 0.00144379 0)
(1.00193 -0.00115947 0)
(0.999514 0.000532749 0)
(0.999281 0.00353034 0)
(1.00265 0.00203166 0)
(1.00234 0.00101708 0)
(1.00118 0.00183633 0)
(1.00151 0.00117404 0)
(1.00117 0.000973903 0)
(1.00042 0.00213093 0)
(0.99969 0.00341246 0)
(1.00047 0.00412718 0)
(1.00107 0.00458088 0)
(1.00151 0.00546191 0)
(1.00162 0.00606617 0)
(1.00187 0.00675598 0)
(1.00167 0.00705305 0)
(1.00095 0.00743818 0)