/*--------------------------------*- C++ -*----------------------------------*\
| =========                 |                                                 |
| \\      /  F ield         | OpenFOAM: The Open Source CFD Toolbox           |
|  \\    /   O peration     | Version:  v2012                                 |
|   \\  /    A nd           | Website:  www.openfoam.com                      |
|    \\/     M anipulation  |                                                 |
\*---------------------------------------------------------------------------*/
FoamFile
{
    version     2.0;
    format      ascii;
    class       volScalarField;
    location    "7.4";
    object      p;
}
// * * * * * * * * * * * * * * * * * * * * * * * * * * * * * * * * * * * * * //

dimensions      [0 2 -2 0 0 0 0];


internalField   nonuniform List<scalar> 
7000
(
-7.09744e-11
0.00155279
0.00124085
0.00117175
-0.000141278
0.00150713
0.000704457
-0.00101471
0.000401819
0.00227187
0.00658184
0.00921836
0.0116594
0.014356
0.0166368
0.0198307
0.0220849
0.0257877
0.029435
0.0359999
6.90052e-07
0.00155118
0.00123685
0.0011708
-0.000133651
0.00151081
0.000698872
-0.000923085
0.000410572
0.00227105
0.00658477
0.0092
0.0116661
0.0143322
0.0166377
0.0197834
0.0220898
0.0257303
0.0294614
0.0357015
1.66286e-06
0.00154803
0.00123176
0.00117079
-0.000124641
0.00151434
0.000693002
-0.000872456
0.000419008
0.00226579
0.00658296
0.00917376
0.0116711
0.0142947
0.0166301
0.0197305
0.0220805
0.0256576
0.0294621
0.0352151
2.91273e-06
0.00154535
0.00122661
0.00117133
-0.000115531
0.00151797
0.000686637
-0.000826977
0.000425577
0.0022576
0.00657875
0.00914457
0.0116696
0.0142531
0.0166158
0.0196747
0.022062
0.0255832
0.0294149
0.0347118
4.66419e-06
0.00154342
0.00122113
0.00117237
-0.000105717
0.00152182
0.000679259
-0.000783844
0.000432171
0.00224843
0.00657547
0.00911249
0.0116677
0.0142067
0.0166041
0.0196132
0.0220473
0.0254969
0.0293264
0.034227
7.00279e-06
0.00154187
0.00121535
0.00117415
-9.48338e-05
0.00152541
0.000670752
-0.000741218
0.000439566
0.00223881
0.00657315
0.00907813
0.0116676
0.0141561
0.0165958
0.0195458
0.022036
0.025394
0.0291896
0.0337613
9.88988e-06
0.00154054
0.00120957
0.00117682
-8.2689e-05
0.00152827
0.000661379
-0.000697999
0.000447797
0.0022287
0.00657173
0.00904165
0.0116684
0.0141012
0.0165886
0.0194736
0.022023
0.0252781
0.029052
0.0333071
1.3259e-05
0.00153944
0.00120405
0.0011805
-6.91187e-05
0.00153
0.000651535
-0.000653752
0.000457193
0.00221834
0.00657197
0.00900254
0.0116701
0.014042
0.0165818
0.0193975
0.0220042
0.0251522
0.0288868
0.0328589
1.70563e-05
0.00153863
0.00119888
0.00118527
-5.40405e-05
0.00153031
0.000641677
-0.000608183
0.000468574
0.00220811
0.00657454
0.0089603
0.0116723
0.0139784
0.0165746
0.0193177
0.0219769
0.0250172
0.0286927
0.0324135
2.1239e-05
0.00153812
0.00119403
0.00119108
-3.75158e-05
0.00152905
0.000632337
-0.000560963
0.000482919
0.00219837
0.00657969
0.00891476
0.0116746
0.013911
0.0165655
0.0192344
0.0219386
0.0248733
0.0284695
0.0319676
2.57589e-05
0.00153787
0.00118941
0.00119771
-1.97308e-05
0.00152626
0.000624142
-0.000511792
0.000501232
0.00218969
0.00658747
0.00886604
0.0116763
0.01384
0.0165526
0.0191478
0.0218868
0.0247199
0.0282183
0.0315176
3.05417e-05
0.00153779
0.00118491
0.00120486
-9.10183e-07
0.00152214
0.000617767
-0.000460415
0.000524558
0.00218323
0.00659777
0.00881429
0.0116767
0.0137658
0.0165336
0.0190563
0.0218191
0.024556
0.0279406
0.031061
3.54771e-05
0.00153777
0.00118054
0.00121219
1.87708e-05
0.00151702
0.00061381
-0.00040665
0.000553203
0.00218083
0.00661034
0.00875954
0.011675
0.0136889
0.0165071
0.0189636
0.0217342
0.0243802
0.0276382
0.0305956
4.04294e-05
0.00153771
0.00117637
0.0012194
3.9229e-05
0.00151129
0.000612735
-0.00035046
0.000590229
0.00218466
0.00662486
0.0087017
0.011671
0.01361
0.0164713
0.0188666
0.0216309
0.0241912
0.0273129
0.0301196
4.52624e-05
0.00153754
0.00117254
0.00122627
6.04798e-05
0.00150526
0.000614921
-0.000292014
0.000635206
0.00219669
0.00664115
0.00864075
0.0116642
0.01353
0.0164251
0.0187641
0.0215088
0.0239877
0.0269663
0.0296323
4.98681e-05
0.00153724
0.00116923
0.00123264
8.26292e-05
0.00149906
0.000620596
-0.000231676
0.00068817
0.002218
0.00665914
0.00857694
0.011654
0.0134497
0.0163674
0.0186554
0.0213674
0.0237681
0.0266002
0.0291331
5.41883e-05
0.00153677
0.00116661
0.00123845
0.000105827
0.00149263
0.000629777
-0.00017
0.000748576
0.00224844
0.00667874
0.00851089
0.0116396
0.0133702
0.0162978
0.0185408
0.0212063
0.0235314
0.0262166
0.0286222
5.82215e-05
0.00153614
0.00116478
0.00124368
0.000130219
0.00148582
0.000642399
-0.00010767
0.000815436
0.00228662
0.00669957
0.0084437
0.0116196
0.0132924
0.0162151
0.0184197
0.0210266
0.0232772
0.0258163
0.0280996
6.20137e-05
0.00153533
0.0011638
0.00124831
0.000155947
0.00147841
0.000658366
-4.53559e-05
0.00088766
0.00233038
0.0067209
0.008377
0.0115925
0.0132174
0.0161182
0.018291
0.0208295
0.0230053
0.0254002
0.0275662
6.5643e-05
0.00153431
0.0011637
0.00125234
0.000183142
0.00147016
0.000677519
1.6374e-05
0.000964257
0.00237752
0.00674184
0.00831254
0.0115564
0.0131456
0.016007
0.0181537
0.0206156
0.0227155
0.0249703
0.0270232
6.9202e-05
0.00153306
0.00116445
0.00125577
0.000211921
0.00146083
0.000699668
7.71041e-05
0.00104435
0.00242645
0.00676129
0.00825208
0.0115101
0.0130762
0.0158815
0.0180073
0.020385
0.0224068
0.0245281
0.0264726
7.27836e-05
0.00153152
0.00116606
0.00125859
0.000242392
0.00145024
0.00072457
0.000136618
0.00112715
0.00247637
0.00677799
0.00819704
0.0114524
0.0130086
0.0157422
0.0178509
0.0201386
0.0220786
0.0240747
0.0259162
7.6472e-05
0.00152962
0.00116854
0.00126075
0.000274655
0.00143822
0.000751955
0.000194828
0.00121193
0.00252725
0.00679072
0.00814825
0.0113823
0.0129418
0.0155906
0.0176825
0.0198776
0.021732
0.0236101
0.0253543
8.03407e-05
0.00152727
0.00117191
0.00126221
0.000308783
0.00142467
0.000781617
0.000251841
0.00129773
0.0025796
0.00679824
0.00810636
0.0112994
0.012874
0.0154276
0.0175002
0.0196031
0.021369
0.0231355
0.0247878
8.4454e-05
0.00152439
0.0011762
0.00126295
0.000344832
0.00140949
0.000813284
0.000308126
0.00138331
0.00263412
0.00679915
0.00807164
0.0112044
0.0128026
0.0152541
0.0173023
0.0193152
0.020992
0.0226526
0.0242171
8.88626e-05
0.00152087
0.00118148
0.00126293
0.000382819
0.00139276
0.000846543
0.000364261
0.00146742
0.0026916
0.00679221
0.00804329
0.0110984
0.012725
0.0150718
0.0170878
0.0190128
0.0206047
0.0221637
0.0236418
9.36074e-05
0.0015166
0.00118783
0.00126208
0.000422758
0.00137454
0.000881058
0.00042097
0.00154881
0.00275228
0.00677685
0.0080202
0.0109825
0.0126383
0.0148802
0.0168607
0.0186945
0.0202032
0.0216737
0.023065
9.87492e-05
0.00151144
0.00119535
0.00126035
0.000464653
0.00135493
0.000916386
0.000479145
0.00162671
0.00281591
0.00675225
0.00800111
0.0108595
0.0125409
0.0146777
0.0166199
0.0183667
0.0197865
0.0211753
0.0224907
0.000104333
0.00150529
0.00120408
0.00125776
0.00050833
0.00133435
0.00095175
0.00053967
0.0017001
0.00288291
0.00671892
0.00798349
0.0107311
0.0124322
0.0144664
0.0163584
0.0180375
0.0193667
0.0206526
0.0219116
0.000110386
0.00149805
0.00121408
0.00125432
0.000553627
0.00131319
0.000986061
0.000603789
0.00176777
0.00295284
0.00667801
0.00796689
0.0105962
0.0123111
0.0142421
0.0160833
0.0176956
0.0189354
0.0201417
0.021333
0.00011702
0.00148955
0.0012255
0.00125007
0.000600351
0.0012921
0.00101814
0.000671693
0.00183042
0.00302482
0.00662887
0.00794851
0.0104583
0.0121769
0.0140046
0.0157911
0.0173377
0.018506
0.0196421
0.0207495
0.000124204
0.00147973
0.00123826
0.00124518
0.000648072
0.00127195
0.00104764
0.000742877
0.00188819
0.00309794
0.00657499
0.00792167
0.0103175
0.0120318
0.0137613
0.0154795
0.0169686
0.0180782
0.0191063
0.020163
0.000132034
0.00146845
0.00125254
0.00123955
0.000696767
0.00125305
0.00107439
0.00081745
0.00194135
0.0031684
0.00652032
0.00788628
0.0101727
0.0118743
0.0135057
0.0151658
0.0165837
0.0176112
0.0185934
0.0196062
0.000140841
0.00145538
0.00126877
0.00123339
0.000745624
0.00123678
0.0010969
0.000895361
0.00199248
0.00323431
0.00646328
0.00784264
0.0100294
0.0117004
0.013244
0.0148341
0.0161938
0.0171531
0.0180082
0.0190386
0.000150232
0.00144091
0.00128551
0.00122795
0.000792841
0.0012247
0.00111453
0.000976716
0.0020365
0.00329878
0.00640478
0.00779068
0.00987921
0.0115199
0.0129705
0.0144639
0.0157816
0.0167112
0.0174931
0.0184709
0.000160466
0.00142468
0.0013036
0.00122259
0.000839161
0.00121628
0.00112875
0.00105884
0.00207666
0.00335955
0.00634434
0.00773231
0.00971652
0.0113323
0.012672
0.0140843
0.0153523
0.0162584
0.017057
0.0179303
0.000172238
0.00140598
0.00132536
0.00121711
0.000884204
0.00121216
0.00113959
0.00113908
0.00212767
0.00340433
0.00628357
0.00766583
0.00954646
0.0111285
0.0123783
0.0136927
0.0149328
0.0158152
0.0164535
0.0173635
0.000184669
0.00138599
0.00134451
0.00121465
0.000924497
0.00121426
0.0011463
0.00121949
0.00217225
0.00344553
0.00621964
0.00759077
0.00937033
0.0109022
0.0120722
0.0132955
0.014494
0.0153648
0.0159567
0.01682
0.000198182
0.00136412
0.00136409
0.00121413
0.000961561
0.00122077
0.00115067
0.00129722
0.00221214
0.00348454
0.00614578
0.00751135
0.00918436
0.0106556
0.0117437
0.0129009
0.0140292
0.0149003
0.0155926
0.0163157
0.000213833
0.0013392
0.00139282
0.00121472
0.000996384
0.00122999
0.00115553
0.00136576
0.00227694
0.00349859
0.0060669
0.00742253
0.0089866
0.010414
0.01143
0.012489
0.0135723
0.0144366
0.0149766
0.0157713
0.000230199
0.00131355
0.00140946
0.00122135
0.00102455
0.00124552
0.00115891
0.00143016
0.00233308
0.00351597
0.00598498
0.00732188
0.00877909
0.0101459
0.0110991
0.0120675
0.0131042
0.013964
0.0144986
0.0152642
0.000247648
0.0012866
0.00142069
0.00123192
0.00104872
0.00126422
0.00116219
0.00149027
0.00237764
0.00353834
0.00588983
0.00720996
0.00855469
0.00985996
0.0107447
0.0116581
0.0126171
0.0134789
0.0141953
0.014805
0.000268054
0.00125642
0.00146265
0.00124398
0.00107239
0.00128102
0.0011708
0.0015378
0.00245226
0.00354244
0.00578341
0.00708969
0.00832623
0.0095611
0.0104128
0.0112408
0.0121357
0.0129661
0.0135494
0.0142922
0.000288844
0.001227
0.00145873
0.0012652
0.00108998
0.00130228
0.0011791
0.00158296
0.00249834
0.00355329
0.00567748
0.0069531
0.0080877
0.00924693
0.0100621
0.0108056
0.0116495
0.0124497
0.0130482
0.0138194
0.000310989
0.00119695
0.00145625
0.00129086
0.00110616
0.00132271
0.00119049
0.00162339
0.00252525
0.00356636
0.00555627
0.00680638
0.00784774
0.00892718
0.00967932
0.0103594
0.0111213
0.0119387
0.0127713
0.0133964
0.000336701
0.00116438
0.00149099
0.00131622
0.00112726
0.0013322
0.00121397
0.00164939
0.00262317
0.00356117
0.00542288
0.00664868
0.00762489
0.0086466
0.00931805
0.00988823
0.0105537
0.0113401
0.0120879
0.0129254
0.000361824
0.0011345
0.00147031
0.00135004
0.00114821
0.0013384
0.00123889
0.00167177
0.00258481
0.00354767
0.00529126
0.00648172
0.00740191
0.00836105
0.00894692
0.00938031
0.00997954
0.0106859
0.0114531
0.0125307
0.00038995
0.00110402
0.00146307
0.00138665
0.00117054
0.00134385
0.00126106
0.00169023
0.0025828
0.00353659
0.00514914
0.00630667
0.00717159
0.00804939
0.00855488
0.00888625
0.00939149
0.0100522
0.0109469
0.0121613
0.00041986
0.00107365
0.00145254
0.00142393
0.0011982
0.00134439
0.00128087
0.00170602
0.00259432
0.00351491
0.00500474
0.00612728
0.00691945
0.00771543
0.00817602
0.00840891
0.00881457
0.00950421
0.010461
0.011708
0.000450313
0.00104569
0.00142821
0.00146178
0.00123095
0.0013434
0.00129723
0.00171563
0.00259358
0.00348902
0.00486408
0.00592844
0.00665087
0.00738116
0.00780276
0.00793618
0.00827809
0.00896689
0.00992487
0.01124
0.000483716
0.00101858
0.00140278
0.00149665
0.00126861
0.00134235
0.00130825
0.00171838
0.00258518
0.00345856
0.00471417
0.00571367
0.00638769
0.00704087
0.00741351
0.00748713
0.00775992
0.00840407
0.00939122
0.0108012
0.000517628
0.000993324
0.00137091
0.0015278
0.00131032
0.00134055
0.00131601
0.00171697
0.00256388
0.0034133
0.00456527
0.00550076
0.00611634
0.00667885
0.00701932
0.00706514
0.00725247
0.00784355
0.00887399
0.0103624
0.000553929
0.000969911
0.00133607
0.00155273
0.00135413
0.00134154
0.00132073
0.00170709
0.00253026
0.00336178
0.00442252
0.00527652
0.00582586
0.00631221
0.00663424
0.00665247
0.00674653
0.00729442
0.00836444
0.00992156
0.000591084
0.000948656
0.00129713
0.00157115
0.00139933
0.0013444
0.00132099
0.00169247
0.00248752
0.00329775
0.00427336
0.00504342
0.00553345
0.00595498
0.00624201
0.0062259
0.00625993
0.00677884
0.00785455
0.00946473
0.000629766
0.000929717
0.00125636
0.00158181
0.00144211
0.00135061
0.00132014
0.00167256
0.00243178
0.00321839
0.00412152
0.00481319
0.00524051
0.00558809
0.00582819
0.00580404
0.00580963
0.00627607
0.0073311
0.0090076
0.000670227
0.000913708
0.00121321
0.00158399
0.0014821
0.00135926
0.00131631
0.001647
0.00236845
0.00312733
0.00396545
0.00458214
0.00493712
0.00521048
0.0054143
0.00539843
0.00537367
0.00577834
0.00681861
0.00855485
0.000710841
0.000901286
0.00116795
0.0015778
0.00151761
0.0013697
0.0013108
0.00161505
0.002297
0.0030242
0.003802
0.00434823
0.00462948
0.00483668
0.00500684
0.00499019
0.00493515
0.00529385
0.00632209
0.0081065
0.000750487
0.000893181
0.00112016
0.00156447
0.00154495
0.00137876
0.00130798
0.00157902
0.00221694
0.00290844
0.00362757
0.00411265
0.00432557
0.00446376
0.00458927
0.00457031
0.00450698
0.00483704
0.00584736
0.00766377
0.000790279
0.000889055
0.00107387
0.00154249
0.00156205
0.00138325
0.00130569
0.0015425
0.00213284
0.00278234
0.003442
0.00387476
0.00402392
0.00408655
0.00416394
0.00415341
0.0040946
0.00440003
0.00538914
0.00722377
0.000830343
0.000889293
0.00103024
0.00150834
0.00157959
0.00138207
0.0012812
0.00150478
0.0020492
0.00265169
0.00324838
0.00363143
0.00372282
0.00371331
0.00374006
0.00373439
0.00368896
0.00397828
0.00494576
0.00679368
0.00086786
0.000895533
0.000986355
0.00146985
0.00158636
0.00136656
0.00125724
0.00146706
0.00196268
0.00251604
0.00304609
0.00337897
0.00342326
0.00334811
0.0033174
0.00330931
0.00328586
0.00356709
0.00452079
0.00637997
0.000903738
0.000906163
0.000946302
0.00142231
0.00157637
0.00135016
0.00123559
0.00142485
0.00186914
0.00237336
0.00283562
0.0031172
0.00312392
0.00298973
0.00289883
0.00287954
0.0028794
0.00316835
0.00411979
0.00598169
0.000937505
0.000921321
0.000911165
0.00136082
0.00155558
0.00133557
0.0012091
0.00137483
0.00176867
0.00222421
0.00262202
0.00284842
0.00282132
0.00263851
0.00248835
0.00244741
0.00247301
0.00278318
0.00373379
0.00559109
0.000968831
0.000939765
0.000879387
0.00129218
0.0015245
0.00131908
0.00117749
0.00131841
0.00166092
0.00207039
0.0024078
0.00257187
0.0025127
0.00229199
0.00208667
0.00201855
0.0020659
0.00239989
0.00335453
0.00521268
0.000997458
0.000959065
0.000852548
0.00121975
0.00148208
0.00129853
0.00114134
0.00125392
0.00154523
0.00190849
0.00219222
0.002291
0.00219732
0.00194758
0.00169594
0.00159649
0.00165576
0.00201589
0.00298417
0.0048468
0.00102331
0.000978807
0.000830964
0.00114402
0.00142792
0.00127262
0.00110051
0.00118231
0.00142102
0.00173617
0.00197659
0.0020115
0.00187552
0.00160335
0.00131582
0.00118317
0.00124514
0.00163093
0.0026195
0.00448898
0.00104631
0.000998072
0.000813879
0.00106661
0.00136298
0.00124033
0.0010551
0.00110386
0.00128994
0.00155284
0.00175784
0.00173544
0.00155034
0.001258
0.000942301
0.000778244
0.000837602
0.00124623
0.00225744
0.00413594
0.00106636
0.00101574
0.000800874
0.000989643
0.001288
0.00120006
0.00100501
0.00101785
0.0011521
0.00135786
0.00153273
0.00146536
0.00122703
0.000911195
0.000572671
0.000382037
0.000436034
0.00086192
0.00189454
0.00378526
0.00108347
0.00103133
0.000791598
0.000914063
0.00120336
0.00115034
0.000949548
0.000924471
0.00100917
0.00115329
0.00129908
0.00120138
0.000907907
0.000561625
0.000205177
-6.54867e-06
4.04394e-05
0.000476914
0.00152959
0.0034374
0.00109766
0.00104435
0.00078516
0.000840803
0.00110995
0.00109019
0.00088822
0.00082442
0.000862316
0.000941217
0.00105348
0.000939132
0.000594527
0.000211195
-0.000160293
-0.000389544
-0.000349906
9.39107e-05
0.00116534
0.00309275
0.00110905
0.00105436
0.000780533
0.000770727
0.00100914
0.00101851
0.000820928
0.000717888
0.00071111
0.000723796
0.000794339
0.000673949
0.000290324
-0.000134285
-0.000522913
-0.000767852
-0.000734815
-0.000284951
0.000802089
0.00274811
0.00111763
0.00106099
0.000776798
0.000704316
0.000902398
0.000934377
0.0007467
0.000604857
0.000555207
0.000504141
0.000522728
0.0004017
-4.14942e-06
-0.000471223
-0.000882374
-0.00114256
-0.00111598
-0.000661142
0.000438702
0.00240295
0.00112351
0.00106403
0.000772824
0.000641708
0.000791266
0.000837545
0.000664338
0.000485785
0.000394175
0.00028503
0.000242465
0.000118328
-0.000292991
-0.000799102
-0.00123845
-0.00151482
-0.00149518
-0.00103551
7.70881e-05
0.00206069
0.00112673
0.00106327
0.00076757
0.000582757
0.000677368
0.000728363
0.000572368
0.000361167
0.000227633
6.75526e-05
-4.24396e-05
-0.00017865
-0.000581886
-0.00111732
-0.0015882
-0.00188322
-0.00187167
-0.00140706
-0.000280969
0.00172104
0.00112739
0.0010586
0.000760137
0.000527027
0.000562162
0.000607709
0.000469931
0.000231191
5.51315e-05
-0.000148688
-0.000327791
-0.000488416
-0.000876556
-0.00142677
-0.0019283
-0.00224499
-0.00224371
-0.00177607
-0.000638206
0.00138101
0.00112557
0.00105002
0.000749644
0.000473833
0.000446864
0.000476707
0.000355969
9.58789e-05
-0.0001236
-0.000364764
-0.000609585
-0.000807568
-0.00118108
-0.00173142
-0.00225792
-0.00259854
-0.00261148
-0.00214447
-0.000996258
0.00104122
0.00112124
0.00103758
0.000736089
0.000422225
0.000332833
0.000337172
0.000229645
-4.51263e-05
-0.000308204
-0.00058219
-0.000885555
-0.00113177
-0.00149736
-0.00203666
-0.00257818
-0.00294285
-0.00297422
-0.00251173
-0.00135443
0.000702189
0.00111441
0.00102142
0.000716347
0.000371163
0.000220747
0.000190636
9.09174e-05
-0.000192238
-0.000498112
-0.000802494
-0.00115523
-0.00145601
-0.00182459
-0.0023469
-0.00289223
-0.00327736
-0.00332871
-0.00287511
-0.00171222
0.00036223
0.001105
0.00100159
0.000691692
0.000319825
0.000111366
3.9053e-05
-5.99334e-05
-0.000346214
-0.000692411
-0.00102737
-0.00141985
-0.00177613
-0.00215962
-0.00266578
-0.00320503
-0.00360333
-0.00367311
-0.00323131
-0.00206684
2.15518e-05
0.00109293
0.000978278
0.000661875
0.000267223
4.48524e-06
-0.000115569
-0.000222138
-0.000507963
-0.000890009
-0.00125727
-0.00168115
-0.00208938
-0.00249791
-0.00299468
-0.00352175
-0.00392467
-0.00400893
-0.00357946
-0.00241691
-0.000318243
0.0010781
0.000951764
0.00062701
0.000212378
-0.000100072
-0.000271467
-0.000394741
-0.000678363
-0.00108986
-0.00149214
-0.00194165
-0.00239474
-0.00283413
-0.00333025
-0.00384493
-0.00424622
-0.00434001
-0.00392215
-0.0027638
-0.000656941
0.00106039
0.000922221
0.000587159
0.000154563
-0.000202649
-0.000426758
-0.000575749
-0.000858625
-0.00129187
-0.00173116
-0.00220397
-0.00269411
-0.00316565
-0.00366768
-0.00417259
-0.00456867
-0.00466751
-0.00425912
-0.00310689
-0.000996642
0.00103972
0.00088986
0.000542597
9.31906e-05
-0.000303797
-0.000580314
-0.000761965
-0.00104878
-0.00149714
-0.00197191
-0.00246976
-0.00299132
-0.00349424
-0.0040067
-0.00450489
-0.00489312
-0.00499245
-0.00458991
-0.00344394
-0.00133486
0.00101607
0.000854964
0.000493658
2.78166e-05
-0.000404243
-0.000731667
-0.000950912
-0.00124745
-0.00170635
-0.00221236
-0.00273711
-0.00328645
-0.00381936
-0.00434691
-0.00484373
-0.00522401
-0.0053207
-0.0049211
-0.00377981
-0.00167152
0.000989081
0.000817713
0.000441385
-4.13137e-05
-0.000503994
-0.000880401
-0.00114159
-0.00145419
-0.00192225
-0.00245352
-0.00300472
-0.00357873
-0.0041384
-0.00468234
-0.00518241
-0.00555876
-0.00565417
-0.0052569
-0.00411939
-0.00201273
0.000958861
0.000778075
0.00038575
-0.00011445
-0.000603274
-0.00102548
-0.0013317
-0.00166587
-0.0021449
-0.00269678
-0.00327323
-0.00387147
-0.00445569
-0.00501606
-0.00552141
-0.00589547
-0.00598985
-0.00559455
-0.00446054
-0.00235667
0.000925128
0.000736426
0.000328796
-0.000189864
-0.000702304
-0.0011676
-0.00152115
-0.00188057
-0.00237339
-0.00294282
-0.00353984
-0.00416138
-0.0047706
-0.00535011
-0.00586447
-0.00623901
-0.00633242
-0.00593795
-0.00480677
-0.0027058
0.000888437
0.000692445
0.000267997
-0.000268105
-0.000799193
-0.00130344
-0.00170732
-0.00209682
-0.00260672
-0.00319341
-0.00380579
-0.00444586
-0.00507764
-0.00567807
-0.00620648
-0.00658729
-0.00668268
-0.00628998
-0.00516146
-0.00306365
0.000847745
0.000647818
0.000209839
-0.00034858
-0.000900291
-0.00144015
-0.00189441
-0.00231506
-0.00284135
-0.00344645
-0.00407333
-0.00472823
-0.00537947
-0.00600068
-0.00654578
-0.00693676
-0.00703898
-0.00665136
-0.00552654
-0.00343199
0.000801304
0.000599052
0.000155511
-0.000415883
-0.000987734
-0.00156714
-0.00207922
-0.00253805
-0.00307779
-0.00369846
-0.00433928
-0.00500768
-0.00567916
-0.00632304
-0.00688611
-0.00728841
-0.00739974
-0.00702402
-0.00591276
-0.00382859
0.000755198
0.000539544
7.5501e-05
-0.000492269
-0.00107305
-0.00168458
-0.00225711
-0.00276505
-0.00331329
-0.00393791
-0.00458765
-0.00526715
-0.00596009
-0.00663071
-0.0072173
-0.00763559
-0.00775518
-0.00738697
-0.00629113
-0.00423575
0.000703537
0.000526712
6.76225e-05
-0.000551583
-0.00118792
-0.00184367
-0.00246948
-0.00301517
-0.00356302
-0.00418407
-0.00483707
-0.00552083
-0.00623075
-0.00692929
-0.00755166
-0.00800132
-0.00813802
-0.00777067
-0.00666874
-0.00461162
0.000582688
0.000392272
2.37169e-05
-0.000516441
-0.00114697
-0.00191118
-0.00265905
-0.00325925
-0.00381173
-0.00442854
-0.00508565
-0.00577762
-0.00650046
-0.00722055
-0.00788154
-0.00838834
-0.00857954
-0.00825882
-0.007187
-0.00512581
0.000651522
0.000454893
-5.64194e-05
-0.000720154
-0.00141859
-0.00214194
-0.00282948
-0.00341035
-0.00394509
-0.00454685
-0.00522487
-0.00594409
-0.00668224
-0.00740477
-0.00805792
-0.00858551
-0.00886746
-0.00868294
-0.00775984
-0.00584922
0.000533247
0.000372197
-0.00013845
-0.000751124
-0.00141724
-0.00221856
-0.002991
-0.00363736
-0.00423507
-0.00484894
-0.0055503
-0.00626654
-0.00699653
-0.00769732
-0.0082888
-0.00866235
-0.00875968
-0.00843339
-0.0074709
-0.00557212
0.000648265
0.000337759
-0.000223845
-0.000918072
-0.00165777
-0.00235019
-0.00298473
-0.00355378
-0.00411799
-0.00477334
-0.00551726
-0.00628888
-0.00710415
-0.00796232
-0.00888433
-0.00975045
-0.0103322
-0.0103582
-0.0098742
-0.00808425
0.000814414
0.00017656
-0.000432998
-0.00116258
-0.00184183
-0.00265135
-0.00338358
-0.00395406
-0.00451941
-0.00523549
-0.00599616
-0.00670148
-0.00715951
-0.00725262
-0.00693073
-0.00628644
-0.00552464
-0.00499024
-0.00474404
-0.00565206
0.000771597
0.000207755
-0.000467805
-0.00114367
-0.00171536
-0.00229961
-0.00285786
-0.0034815
-0.00417942
-0.00497062
-0.00588736
-0.00692049
-0.00800836
-0.00916444
-0.0103543
-0.0114711
-0.0123288
-0.0126793
-0.0122268
-0.0107715
0.00090028
0.000117832
-0.000564011
-0.00126629
-0.00186417
-0.00257286
-0.00336824
-0.00423375
-0.00503385
-0.00563448
-0.00623117
-0.00694798
-0.00764341
-0.0081339
-0.00824363
-0.00796975
-0.00746112
-0.0070316
-0.0070737
-0.00794159
0.000867293
8.115e-05
-0.000602117
-0.00121874
-0.00163638
-0.00213691
-0.00254405
-0.00313608
-0.00389157
-0.00490047
-0.0061723
-0.00775318
-0.00956931
-0.0114641
-0.013222
-0.0146838
-0.0156788
-0.0160083
-0.0154356
-0.0137616
0.0464273
0.0169118
0.0048328
0.00351882
0.00372279
0.0030048
0.00161228
-0.000177552
-0.00250818
-0.00419521
-0.00430859
-0.00409936
-0.00455792
-0.00553324
-0.00671464
-0.00770064
-0.00841569
-0.00907458
-0.00973548
-0.0104767
-0.0113266
-0.0121281
-0.0129337
-0.0138424
-0.0147537
-0.0156262
-0.0165084
-0.0173401
-0.0182336
-0.0193024
-0.0203764
-0.0214266
-0.0224769
-0.0236463
-0.0248555
-0.0261162
-0.0274496
-0.0288317
-0.0302964
-0.0317092
-0.0332721
-0.0348003
-0.0364705
-0.0381619
-0.0398847
-0.0417844
-0.043596
-0.045702
-0.0473825
-0.0491076
0.0453739
0.0169542
0.00486939
0.00353456
0.0037328
0.00301217
0.00161812
-0.000172661
-0.00250431
-0.00419249
-0.00430635
-0.00409724
-0.00455607
-0.00553168
-0.00671336
-0.00769962
-0.00841482
-0.0090738
-0.00973479
-0.0104761
-0.0113261
-0.0121276
-0.0129333
-0.013842
-0.0147533
-0.0156258
-0.0165081
-0.0173398
-0.0182333
-0.0193021
-0.0203761
-0.0214263
-0.0224767
-0.0236461
-0.0248553
-0.026116
-0.0274494
-0.0288315
-0.0302963
-0.031709
-0.0332719
-0.0348002
-0.0364704
-0.0381618
-0.0398846
-0.0417844
-0.0435959
-0.045702
-0.0473824
-0.0491076
0.0445024
0.0170604
0.0049352
0.0035537
0.00374296
0.00301931
0.00162358
-0.000168154
-0.00250102
-0.00419042
-0.00430439
-0.00409511
-0.00455427
-0.00553024
-0.00671222
-0.00769876
-0.00841406
-0.00907311
-0.00973416
-0.0104755
-0.0113256
-0.0121271
-0.0129328
-0.0138416
-0.014753
-0.0156255
-0.0165078
-0.0173395
-0.018233
-0.0193019
-0.0203759
-0.0214261
-0.0224765
-0.023646
-0.0248552
-0.0261158
-0.0274493
-0.0288314
-0.0302962
-0.0317089
-0.0332718
-0.0348001
-0.0364703
-0.0381617
-0.0398845
-0.0417843
-0.0435958
-0.0457019
-0.0473824
-0.0491075
0.0437021
0.0172
0.00503349
0.00358006
0.00375491
0.00302709
0.00162934
-0.000163409
-0.0024977
-0.00418844
-0.00430228
-0.00409269
-0.00455225
-0.00552869
-0.00671103
-0.00769788
-0.00841327
-0.00907238
-0.00973352
-0.0104749
-0.0113251
-0.0121267
-0.0129324
-0.0138412
-0.0147526
-0.0156252
-0.0165075
-0.0173392
-0.0182327
-0.0193016
-0.0203757
-0.0214259
-0.0224763
-0.0236458
-0.024855
-0.0261157
-0.0274491
-0.0288313
-0.030296
-0.0317088
-0.0332717
-0.0348
-0.0364702
-0.0381616
-0.0398844
-0.0417842
-0.0435958
-0.0457019
-0.0473824
-0.0491074
0.0428928
0.0173491
0.00515525
0.00361278
0.00376886
0.0030358
0.00163563
-0.000158158
-0.00249393
-0.00418605
-0.00429963
-0.00408973
-0.00454986
-0.00552684
-0.00670959
-0.00769683
-0.00841235
-0.00907154
-0.00973278
-0.0104743
-0.0113245
-0.0121262
-0.012932
-0.0138408
-0.0147523
-0.0156248
-0.0165072
-0.0173389
-0.0182324
-0.0193014
-0.0203755
-0.0214257
-0.0224761
-0.0236456
-0.0248548
-0.0261155
-0.027449
-0.0288311
-0.0302959
-0.0317087
-0.0332716
-0.0347999
-0.0364701
-0.0381616
-0.0398843
-0.0417842
-0.0435957
-0.0457018
-0.0473825
-0.0491073
0.0420648
0.0175009
0.00529098
0.00364823
0.00378359
0.003045
0.00164222
-0.000152595
-0.00248973
-0.00418301
-0.00429618
-0.00408607
-0.00454698
-0.00552458
-0.00670776
-0.00769546
-0.00841119
-0.00907053
-0.00973193
-0.0104735
-0.0113239
-0.0121256
-0.0129315
-0.0138403
-0.0147519
-0.0156245
-0.0165069
-0.0173386
-0.0182321
-0.0193011
-0.0203752
-0.0214255
-0.0224759
-0.0236454
-0.0248546
-0.0261154
-0.0274488
-0.028831
-0.0302958
-0.0317086
-0.0332715
-0.0347998
-0.03647
-0.0381615
-0.0398842
-0.0417841
-0.0435956
-0.0457018
-0.0473825
-0.0491072
0.041224
0.017653
0.00543535
0.00368393
0.00379789
0.00305415
0.00164871
-0.000147116
-0.0024854
-0.00417938
-0.00429177
-0.00408154
-0.00454351
-0.00552185
-0.00670544
-0.00769366
-0.00840968
-0.00906927
-0.00973093
-0.0104727
-0.0113232
-0.012125
-0.0129309
-0.0138399
-0.0147515
-0.0156241
-0.0165065
-0.0173383
-0.0182318
-0.0193008
-0.020375
-0.0214252
-0.0224756
-0.0236451
-0.0248544
-0.0261152
-0.0274486
-0.0288308
-0.0302957
-0.0317084
-0.0332714
-0.0347997
-0.0364699
-0.0381614
-0.0398841
-0.041784
-0.0435956
-0.0457017
-0.0473826
-0.049107
0.0403752
0.0178032
0.00558637
0.0037189
0.00381111
0.00306287
0.00165483
-0.000142063
-0.00248143
-0.00417557
-0.00428645
-0.00407596
-0.00453935
-0.00551862
-0.00670258
-0.00769133
-0.00840772
-0.00906768
-0.00972972
-0.0104718
-0.0113224
-0.0121243
-0.0129302
-0.0138393
-0.0147511
-0.0156236
-0.0165062
-0.0173379
-0.0182314
-0.0193005
-0.0203748
-0.021425
-0.0224753
-0.0236449
-0.0248542
-0.026115
-0.0274484
-0.0288307
-0.0302955
-0.0317083
-0.0332713
-0.0347996
-0.0364698
-0.0381613
-0.039884
-0.0417839
-0.0435955
-0.0457017
-0.0473827
-0.0491069
0.0395209
0.0179499
0.00574389
0.00375316
0.00382295
0.00307092
0.00166038
-0.000137635
-0.0024782
-0.00417213
-0.0042805
-0.00406927
-0.00453435
-0.00551491
-0.00669928
-0.00768852
-0.00840527
-0.00906567
-0.00972827
-0.0104707
-0.0113215
-0.0121234
-0.0129294
-0.0138386
-0.0147505
-0.0156231
-0.0165058
-0.0173375
-0.0182309
-0.0193002
-0.0203745
-0.0214247
-0.0224751
-0.0236446
-0.0248539
-0.0261147
-0.0274482
-0.0288305
-0.0302953
-0.0317081
-0.0332711
-0.0347995
-0.0364697
-0.0381612
-0.0398839
-0.0417838
-0.0435954
-0.0457016
-0.0473829
-0.0491067
0.0386629
0.0180918
0.0059085
0.00378707
0.00383327
0.00307808
0.00166511
-0.000134016
-0.00247595
-0.00416956
-0.00427437
-0.00406158
-0.00452847
-0.00551074
-0.00669569
-0.00768535
-0.00840235
-0.0090632
-0.00972654
-0.0104694
-0.0113204
-0.0121224
-0.0129284
-0.0138377
-0.0147498
-0.0156226
-0.0165054
-0.017337
-0.0182305
-0.0192998
-0.0203742
-0.0214244
-0.0224748
-0.0236443
-0.0248537
-0.0261145
-0.027448
-0.0288303
-0.0302952
-0.031708
-0.033271
-0.0347993
-0.0364696
-0.038161
-0.0398838
-0.0417837
-0.0435953
-0.0457016
-0.047383
-0.0491065
0.0378029
0.0182281
0.0060808
0.00382104
0.00384194
0.00308415
0.00166868
-0.000131535
-0.00247488
-0.00416823
-0.00426852
-0.00405319
-0.00452176
-0.00550617
-0.00669195
-0.00768204
-0.00839908
-0.0090603
-0.00972448
-0.0104681
-0.0113193
-0.0121213
-0.0129273
-0.0138366
-0.0147488
-0.0156218
-0.016505
-0.0173366
-0.0182299
-0.0192994
-0.0203739
-0.0214242
-0.0224745
-0.023644
-0.0248534
-0.0261142
-0.0274477
-0.02883
-0.0302949
-0.0317078
-0.0332708
-0.0347992
-0.0364694
-0.0381609
-0.0398837
-0.0417835
-0.0435952
-0.0457015
-0.0473832
-0.0491062
0.0369427
0.0183582
0.00626113
0.00385544
0.00384882
0.00308891
0.00167072
-0.000130666
-0.00247522
-0.00416841
-0.00426343
-0.00404459
-0.00451444
-0.0055013
-0.00668817
-0.00767876
-0.00839564
-0.00905703
-0.00972211
-0.0104665
-0.011318
-0.0121201
-0.0129262
-0.0138353
-0.0147475
-0.0156209
-0.0165045
-0.0173362
-0.0182294
-0.019299
-0.0203736
-0.0214239
-0.0224742
-0.0236437
-0.0248531
-0.0261139
-0.0274474
-0.0288297
-0.0302947
-0.0317075
-0.0332706
-0.034799
-0.0364693
-0.0381608
-0.0398835
-0.0417834
-0.0435951
-0.0457014
-0.0473833
-0.049106
0.0360837
0.0184809
0.0064496
0.00389066
0.00385375
0.00309213
0.00167095
-0.000131861
-0.00247722
-0.0041703
-0.00425954
-0.00403635
-0.00450689
-0.00549631