/*--------------------------------*- C++ -*----------------------------------*\
| =========                 |                                                 |
| \\      /  F ield         | OpenFOAM: The Open Source CFD Toolbox           |
|  \\    /   O peration     | Version:  v2012                                 |
|   \\  /    A nd           | Website:  www.openfoam.com                      |
|    \\/     M anipulation  |                                                 |
\*---------------------------------------------------------------------------*/
FoamFile
{
    version     2.0;
    format      ascii;
    class       volScalarField;
    location    "4.4";
    object      p;
}
// * * * * * * * * * * * * * * * * * * * * * * * * * * * * * * * * * * * * * //

dimensions      [0 2 -2 0 0 0 0];


internalField   nonuniform List<scalar> 
7000
(
4.0389e-10
0.00136027
0.00106521
0.001252
0.00159095
0.000291279
0.00202686
0.00314866
0.000395287
0.00211828
-0.00316691
-0.000883659
-0.0038226
-0.00253325
-0.0035057
-0.00236519
-0.00232773
-0.00145937
-0.00113009
5.22199e-05
-5.5522e-07
0.0013637
0.00106553
0.00125362
0.00158445
0.000285611
0.00203301
0.00312874
0.000417447
0.00210456
-0.00314175
-0.000892546
-0.00380397
-0.00253056
-0.00350049
-0.00236331
-0.00232134
-0.00146182
-0.00112843
-1.56924e-05
-9.83272e-07
0.00136743
0.00106594
0.00125384
0.00157568
0.000282842
0.00203329
0.00310319
0.000438046
0.00208159
-0.0031051
-0.000912676
-0.003765
-0.00253742
-0.00347989
-0.00237228
-0.0023014
-0.00147861
-0.00112705
-0.000119986
-1.18467e-06
0.00137047
0.00106679
0.00125336
0.00157048
0.000282564
0.002029
0.00306736
0.000456575
0.00204439
-0.00306054
-0.000940067
-0.00371446
-0.00255534
-0.00344992
-0.00239065
-0.00227701
-0.00150469
-0.00113209
-0.000238896
-1.14381e-06
0.00137302
0.00106859
0.00125325
0.00156841
0.0002843
0.00202161
0.00302424
0.000475626
0.00199294
-0.00300587
-0.000975524
-0.00365594
-0.00258322
-0.0034161
-0.00241434
-0.00225225
-0.0015339
-0.00114445
-0.000353989
-8.31519e-07
0.0013753
0.00107156
0.00125327
0.0015687
0.000287599
0.00201264
0.00297611
0.000496054
0.00192981
-0.00294153
-0.00101956
-0.00359173
-0.00261875
-0.00337983
-0.00244056
-0.00222716
-0.0015637
-0.00116418
-0.000457747
-2.5971e-07
0.00137754
0.00107571
0.00125334
0.00157109
0.000292049
0.00200315
0.00292532
0.000518151
0.00185861
-0.00286927
-0.00107009
-0.00352317
-0.00265884
-0.00334135
-0.00246824
-0.00220201
-0.00159443
-0.00119137
-0.000552283
5.22413e-07
0.00137997
0.00108104
0.00125386
0.00157522
0.000297272
0.0019938
0.00287317
0.000541869
0.00178234
-0.00279056
-0.00112441
-0.00345114
-0.00270107
-0.00330135
-0.00249707
-0.00217843
-0.00162656
-0.00122615
-0.000641996
1.46125e-06
0.00138276
0.00108757
0.00125527
0.00158057
0.000302963
0.00198485
0.00282006
0.00056714
0.00170293
-0.00270625
-0.00118084
-0.00337622
-0.00274423
-0.0032607
-0.00252667
-0.00215833
-0.00165946
-0.00126852
-0.000729295
2.51681e-06
0.00138597
0.00109519
0.00125767
0.00158665
0.000308878
0.00197631
0.0027658
0.000593876
0.00162135
-0.00261682
-0.00123864
-0.00329866
-0.00278788
-0.00321988
-0.00255622
-0.00214294
-0.00169183
-0.00131803
-0.000814833
3.66405e-06
0.00138961
0.00110369
0.00126095
0.00159306
0.000314785
0.00196817
0.00270984
0.000621952
0.00153805
-0.00252271
-0.0012974
-0.00321863
-0.00283169
-0.00317909
-0.00258446
-0.00213295
-0.0017227
-0.00137374
-0.000898963
4.88548e-06
0.00139363
0.0011128
0.00126489
0.00159949
0.000320436
0.00196043
0.00265157
0.000651184
0.00145321
-0.00242442
-0.0013567
-0.00313639
-0.00287507
-0.00313857
-0.00260997
-0.00212888
-0.00175176
-0.00143452
-0.000982368
6.16385e-06
0.00139796
0.00112229
0.00126925
0.0016057
0.000325575
0.00195318
0.00259046
0.000681349
0.00136703
-0.00232264
-0.00141592
-0.00305228
-0.00291665
-0.00309879
-0.00263128
-0.00213112
-0.00177924
-0.00149898
-0.0010657
7.48255e-06
0.00140254
0.001132
0.00127384
0.00161151
0.00032999
0.00194654
0.0025262
0.000712247
0.00127972
-0.00221824
-0.00147417
-0.00296683
-0.00295379
-0.00306042
-0.00264683
-0.00213951
-0.00180563
-0.00156553
-0.00114909
8.83099e-06
0.00140733
0.00114191
0.00127852
0.00161688
0.000333554
0.00194065
0.00245872
0.000743759
0.00119154
-0.00211233
-0.00153036
-0.00288095
-0.0029846
-0.00302402
-0.0026551
-0.00215302
-0.00183141
-0.00163247
-0.00123212
1.02068e-05
0.00141232
0.00115201
0.00128324
0.00162186
0.000336242
0.00193564
0.00238821
0.000775859
0.00110278
-0.00200612
-0.00158325
-0.00279597
-0.00300703
-0.00299006
-0.00265485
-0.00216988
-0.00185682
-0.0016981
-0.00131395
1.16149e-05
0.00141747
0.00116233
0.00128796
0.0016266
0.000338105
0.00193152
0.00231503
0.000808609
0.00101385
-0.00190084
-0.00163165
-0.00271335
-0.00301958
-0.00295925
-0.00264562
-0.00218821
-0.00188205
-0.00176078
-0.00139337
1.30684e-05
0.00142277
0.0011729
0.00129268
0.00163126
0.000339225
0.00192825
0.00223961
0.000842084
0.000925234
-0.0017977
-0.00167444
-0.00263467
-0.00302151
-0.0029324
-0.00262793
-0.00220656
-0.00190753
-0.00181929
-0.00146909
1.45886e-05
0.0014282
0.00118373
0.00129738
0.001636
0.000339674
0.00192567
0.00216238
0.000876257
0.000837587
-0.00169778
-0.0017106
-0.00256165
-0.00301304
-0.00291015
-0.00260301
-0.00222409
-0.00193442
-0.0018732
-0.00153994
1.62032e-05
0.0014337
0.00119487
0.001302
0.0016409
0.000339511
0.00192359
0.00208374
0.000910961
0.000751614
-0.00160218
-0.0017391
-0.00249577
-0.0029951
-0.00289286
-0.00257265
-0.00223978
-0.00196457
-0.00192379
-0.00160509
1.79437e-05
0.00143924
0.00120639
0.00130651
0.00164605
0.000338769
0.00192179
0.00200402
0.000945842
0.000668159
-0.00151216
-0.00175914
-0.00243779
-0.00296874
-0.00288063
-0.00253986
-0.00225212
-0.0019983
-0.00197354
-0.00166526
1.98438e-05
0.00144477
0.00121837
0.00131085
0.00165148
0.000337444
0.00192007
0.00192356
0.000980325
0.000588268
-0.00142886
-0.0017704
-0.00238863
-0.00293475
-0.00287278
-0.00250882
-0.00226157
-0.00203404
-0.00202274
-0.00172225
2.19397e-05
0.00145022
0.00123093
0.00131494
0.00165728
0.00033552
0.0019182
0.0018427
0.00101371
0.000513157
-0.00135344
-0.00177259
-0.0023643
-0.00289474
-0.00286745
-0.00248179
-0.0022706
-0.00207249
-0.00207045
-0.00177551
2.42713e-05
0.00145553
0.00124418
0.00131869
0.00166353
0.000333056
0.00191594
0.00176179
0.00104495
0.00044436
-0.00128707
-0.00176548
-0.00233306
-0.00285121
-0.00286275
-0.00245875
-0.00227945
-0.00211537
-0.0021181
-0.00182396
2.68821e-05
0.00146063
0.00125825
0.001322
0.00167028
0.000330154
0.00191301
0.0016815
0.00107274
0.000383037
-0.00123028
-0.00174953
-0.00230931
-0.00280617
-0.00285746
-0.0024404
-0.0022875
-0.00216198
-0.0021663
-0.00186778
2.9818e-05
0.00146543
0.00127323
0.00132479
0.00167758
0.000326898
0.00190901
0.00160259
0.0010961
0.00032979
-0.00118382
-0.00172508
-0.00229288
-0.00276108
-0.00285056
-0.00242776
-0.00229434
-0.00221077
-0.00221551
-0.00190721
3.31325e-05
0.00146984
0.00128923
0.00132697
0.00168547
0.000323373
0.00190357
0.00152567
0.00111385
0.000285867
-0.00114848
-0.00169337
-0.002282
-0.00271625
-0.00284116
-0.002423
-0.0023009
-0.00225668
-0.00226414
-0.00194491
3.6899e-05
0.00147373
0.00130634
0.0013284
0.00169398
0.000319656
0.00189622
0.00145192
0.00112478
0.000251218
-0.00112301
-0.00165597
-0.00227536
-0.00267922
-0.00282788
-0.0024253
-0.00231169
-0.00229844
-0.00230721
-0.00198061
4.11807e-05
0.00147702
0.0013246
0.00132898
0.00170311
0.00031607
0.001886
0.00138234
0.00112867
0.000225712
-0.00110797
-0.00161301
-0.00227029
-0.00265139
-0.00281286
-0.00243135
-0.00232396
-0.00233817
-0.00234936
-0.00201195
4.60401e-05
0.00147958
0.00134407
0.00132867
0.00171263
0.000313245
0.00187193
0.00131769
0.00112431
0.000210447
-0.00110308
-0.00156845
-0.00226347
-0.0026298
-0.00279883
-0.00244384
-0.00234104
-0.00237334
-0.00237995
-0.00204095
5.16227e-05
0.00148122
0.00136483
0.00132748
0.00172228
0.000311541
0.00185344
0.00125863
0.00111145
0.000203642
-0.00110511
-0.0015247
-0.00225537
-0.00261256
-0.00278364
-0.00246361
-0.0023659
-0.00240733
-0.00239579
-0.00206682
5.79378e-05
0.00148195
0.00138675
0.00132551
0.00173174
0.000311485
0.0018299
0.00120508
0.00109081
0.000203594
-0.00111223
-0.00148355
-0.00224254
-0.00260392
-0.00276955
-0.00247942
-0.00239106
-0.00244332
-0.00243035
-0.00208652
6.50691e-05
0.00148157
0.00140994
0.00132281
0.00174071
0.000313614
0.00180092
0.00115692
0.00106274
0.000210292
-0.00112165
-0.00145311
-0.00221834
-0.00260484
-0.00276134
-0.00250145
-0.00241987
-0.00248145
-0.00245534
-0.00209649
7.33216e-05
0.00147974
0.00143459
0.00131944
0.00174886
0.00031866
0.00176598
0.00111457
0.00102855
0.000222583
-0.00113132
-0.00143124
-0.00218819
-0.0026132
-0.00275544
-0.00252076
-0.00245107
-0.00252284
-0.00252075
-0.00209665
8.24844e-05
0.00147687
0.00145995
0.00131614
0.00175466
0.000328134
0.00172359
0.00107881
0.000986521
0.000238616
-0.00113912
-0.00141253
-0.00216186
-0.00260499
-0.00275344
-0.00255758
-0.00248966
-0.00256193
-0.00254223
-0.00209129
9.27835e-05
0.00147256
0.00148625
0.00131313
0.00175825
0.000341143
0.00167469
0.00104766
0.000940324
0.000255301
-0.00114525
-0.00140301
-0.00213113
-0.00262727
-0.00276765
-0.00260126
-0.00253559
-0.00259447
-0.00250975
-0.00208187
0.000104697
0.00146605
0.00151427
0.00130995
0.0017602
0.00035766
0.00162123
0.00101965
0.000894435
0.000269549
-0.00114666
-0.00140596
-0.00209767
-0.0026014
-0.00278387
-0.00264376
-0.0025727
-0.0026265
-0.00257958
-0.00206489
0.00011764
0.00145863
0.00154202
0.00130836
0.00175714
0.000381039
0.00155979
0.000996503
0.000845083
0.000284436
-0.00114394
-0.00141393
-0.00207442
-0.00261356
-0.00280629
-0.00268714
-0.00261656
-0.00265209
-0.00258031
-0.0020427
0.000132034
0.00144966
0.00156987
0.00130896
0.00174993
0.000407952
0.00149354
0.000974257
0.000796448
0.000296813
-0.00114024
-0.00142656
-0.00205078
-0.00270406
-0.00284375
-0.0027342
-0.00266261
-0.00267158
-0.00250466
-0.00202293
0.00014855
0.00143808
0.00159912
0.00131037
0.00174135
0.000435795
0.00142765
0.000949335
0.000755512
0.000300827
-0.00113383
-0.00144678
-0.00202337
-0.0025731
-0.00287613
-0.00278431
-0.0026959
-0.00270859
-0.0026199
-0.00200067
0.000166117
0.00142607
0.00162611
0.00131571
0.00172555
0.000470735
0.00135634
0.000925799
0.000714421
0.000308302
-0.00112664
-0.00147682
-0.00200974
-0.00265057
-0.00291873
-0.00283542
-0.00274882
-0.00273803
-0.00261555
-0.00196666
0.000185605
0.00141253
0.00165155
0.00132505
0.00170512
0.000506761
0.00128483
0.000900676
0.000671133
0.000319122
-0.00111582
-0.00152363
-0.00201769
-0.00266345
-0.00296685
-0.00288706
-0.00281833
-0.00276137
-0.0024852
-0.00192811
0.000207619
0.00139666
0.00167689
0.00133595
0.00168577
0.000537798
0.00122049
0.000867964
0.000635781
0.000319792
-0.00109907
-0.00155901
-0.00201804
-0.00267179
-0.00300622
-0.00294999
-0.00288922
-0.00284686
-0.00263604
-0.00187343
0.000230697
0.00138133
0.00169756
0.00135185
0.00166058
0.000571294
0.00115817
0.000832628
0.000599901
0.000315834
-0.00107797
-0.00159907
-0.0020219
-0.00269381
-0.00304902
-0.00302237
-0.00297281
-0.0029438
-0.00269897
-0.00179402
0.000256255
0.00136488
0.00171498
0.00137168
0.00163363
0.000602598
0.00109746
0.000799233
0.000557275
0.000308707
-0.0010586
-0.00164268
-0.00203327
-0.00269812
-0.00309209
-0.00309209
-0.00305788
-0.00301567
-0.00270434
-0.00172512
0.000284192
0.00134746
0.00172934
0.00139422
0.00160817
0.000629264
0.0010402
0.000763635
0.000512935
0.000294062
-0.00103941
-0.00168094
-0.00205788
-0.00269578
-0.00312969
-0.0031599
-0.0031348
-0.00307063
-0.00270682
-0.0016535
0.000313644
0.00133075
0.00173826
0.00142011
0.00158283
0.000652809
0.000985306
0.000724945
0.000467374
0.000270937
-0.0010158
-0.00171959
-0.00208995
-0.00269102
-0.0031666
-0.00323258
-0.00320434
-0.00311138
-0.00267697
-0.00157411
0.000345822
0.0013138
0.00174326
0.00144675
0.00156228
0.000671094
0.000931001
0.000686609
0.000419083
0.000239859
-0.000993886
-0.00175235
-0.00212154
-0.00269414
-0.00320768
-0.00330006
-0.00324652
-0.00312649
-0.00265486
-0.00150336
0.000379943
0.00129739
0.00174347
0.00147388
0.00154529
0.000687809
0.000877764
0.00064324
0.000367405
0.000205529
-0.000968682
-0.00177993
-0.00216404
-0.00270325
-0.00323403
-0.00335011
-0.00327998
-0.00314489
-0.00263451
-0.0014341
0.000416125
0.00128164
0.00173926
0.00150048
0.00153216
0.000702786
0.000823415
0.000596597
0.000316806
0.000167033
-0.000947498
-0.00180453
-0.00220851
-0.00270888
-0.00324654
-0.00340519
-0.00332572
-0.00315378
-0.00259559
-0.00135752
0.000454798
0.00126647
0.00173177
0.00152485
0.00152274
0.000716024
0.000770774
0.000548246
0.000263464
0.000121385
-0.000930124
-0.00181656
-0.00225181
-0.00272296
-0.00326063
-0.00346048
-0.00335614
-0.003141
-0.00255859
-0.00128537
0.000495384
0.00125252
0.00172036
0.00154652
0.00151438
0.000730355
0.000719986
0.000495157
0.000207033
7.40375e-05
-0.000910181
-0.00182312
-0.00230366
-0.00274523
-0.0032609
-0.00349298
-0.00338345
-0.00314449
-0.00252611
-0.00120533
0.000538227
0.00123992
0.00170588
0.00156425
0.00150744
0.000744014
0.000670392
0.000442682
0.000151554
2.34464e-05
-0.000899605
-0.00182683
-0.00234664
-0.0027663
-0.00325234
-0.00352586
-0.00343176
-0.00315162
-0.00247501
-0.0011066
0.000583097
0.00122898
0.00168822
0.00157808
0.00150009
0.000757281
0.000625814
0.000390944
9.2934e-05
-3.3952e-05
-0.000894616
-0.00181918
-0.00237963
-0.00280145
-0.00325699
-0.00355652
-0.0034683
-0.00313801
-0.00240921
-0.00101553
0.000629828
0.00122
0.00166753
0.00158773
0.00149279
0.000770144
0.000583221
0.00033792
3.41942e-05
-9.08876e-05
-0.000892964
-0.00180977
-0.00241104
-0.00284543
-0.00325811
-0.00356178
-0.00348747
-0.00313119
-0.0023679
-0.000931382
0.000678271
0.00121367
0.00164404
0.00159242
0.00148412
0.000781473
0.000544324
0.000287001
-2.39233e-05
-0.00014967
-0.000898872
-0.00180099
-0.00243023
-0.00288641
-0.00326336
-0.00356226
-0.0035069
-0.00313598
-0.00232839
-0.000837141
0.000728258
0.00121021
0.00161842
0.00159268
0.00147284
0.000789991
0.0005105
0.000238889
-8.2545e-05
-0.000210094
-0.000909549
-0.00179368
-0.00243775
-0.00292469
-0.00327957
-0.00356126
-0.00351987
-0.00313518
-0.00228749
-0.000743513
0.000779036
0.00121058
0.00159035
0.00158826
0.00145882
0.000792916
0.000479196
0.000194636
-0.000137771
-0.000269425
-0.000922789
-0.00179079
-0.00243887
-0.00295569
-0.00330179
-0.0035622
-0.00352789
-0.00312822
-0.00224587
-0.00065484
0.000830589
0.00121487
0.00156106
0.00157766
0.0014426
0.000790784
0.000447424
0.000153661
-0.000186947
-0.000326412
-0.000937538
-0.00179273
-0.00243612
-0.00297606
-0.00332834
-0.00356737
-0.00352972
-0.00311388
-0.0022037
-0.00056964
0.000883307
0.00122223
0.00153467
0.00156111
0.00142537
0.000785515
0.000405515
0.000114618
-0.000228659
-0.000380106
-0.000951761
-0.00179834
-0.00243427
-0.00298459
-0.00335229
-0.0035735
-0.00353037
-0.00309764
-0.00215954
-0.000485766
0.000935747
0.00123411
0.00150935
0.00153843
0.00141574
0.000771541
0.000358735
7.7322e-05
-0.000261899
-0.000430375
-0.000964304
-0.00180529
-0.00243645
-0.00298314
-0.00336821
-0.00358185
-0.00353314
-0.00308204
-0.00211462
-0.000399818
0.000988374
0.00124953
0.00148446
0.00150957
0.0013648
0.000752939
0.000314609
4.29695e-05
-0.000290179
-0.000479893
-0.000977209
-0.00181062
-0.00244184
-0.00297457
-0.00337548
-0.00359072
-0.00353931
-0.00306923
-0.00206544
-0.000309481
0.00104119
0.00126714
0.00146105
0.00147543
0.00128894
0.000737324
0.000277101
8.35552e-06
-0.000317709
-0.000530647
-0.000990908
-0.00181128
-0.00244168
-0.0029655
-0.00337396
-0.00359442
-0.00354397
-0.00305679
-0.00201548
-0.000220112
0.00109322
0.00128696
0.00143579
0.00143696
0.00126417
0.000725515
0.000242346
-3.06776e-05
-0.000344822
-0.000580826
-0.00100719
-0.0018072
-0.0024545
-0.0029588
-0.00336406
-0.00358904
-0.00354422
-0.00304765
-0.00197192
-0.000133969
0.00114427
0.00130844
0.00141185
0.00139659
0.00123562
0.000714241
0.00020816
-7.34761e-05
-0.000371251
-0.000629384
-0.00102747
-0.00179688
-0.00246692
-0.00295815
-0.00335218
-0.0035769
-0.00353777
-0.00303909
-0.00193378
-5.14543e-05
0.00119387
0.00133132
0.00139031
0.00135436
0.00120169
0.000702546
0.000176907
-0.000118137
-0.000397066
-0.000674732
-0.00105325
-0.0017832
-0.00247422
-0.00296341
-0.00334184
-0.00355903
-0.00352249
-0.00302748
-0.00190002
2.58091e-05
0.00124178
0.00135542
0.00137127
0.00131015
0.00116503
0.000690713
0.000150095
-0.000163814
-0.000423759
-0.000716582
-0.0010855
-0.00176985
-0.00247127
-0.00296959
-0.0033346
-0.00353973
-0.00350044
-0.00300915
-0.00186633
9.80345e-05
0.00128785
0.00138029
0.00135505
0.0012652
0.00112435
0.000677418
0.000127453
-0.000209914
-0.000453273
-0.000753855
-0.0011214
-0.00175997
-0.00245784
-0.00297247
-0.00333172
-0.00352272
-0.00347341
-0.00298217
-0.00183014
0.000164702
0.00133196
0.00140552
0.00134195
0.00122056
0.00107944
0.000661022
0.000109013
-0.000254545
-0.000485877
-0.0007863
-0.00115846
-0.00175833
-0.00243683
-0.00296847
-0.00333048
-0.00350955
-0.003446
-0.00295048
-0.00179075
0.000230212
0.00137406
0.00143073
0.00133199
0.00117685
0.00103118
0.000640958
9.44792e-05
-0.000295886
-0.000521791
-0.000815229
-0.00119458
-0.00173392
-0.00241061
-0.00295588
-0.00332737
-0.00350068
-0.00342134
-0.00291565
-0.001745
0.000298554
0.00141411
0.00145552
0.00132502
0.00113483
0.000980399
0.000616512
8.25017e-05
-0.000332591
-0.000560996
-0.000842626
-0.00123003
-0.00174649
-0.00238646
-0.00293583
-0.00331921
-0.00349334
-0.00339952
-0.00287926
-0.00169513
0.000366824
0.00145217
0.0014795
0.00132073
0.00109432
0.000927802
0.000587152
7.15185e-05
-0.000363645
-0.000602528
-0.000870567
-0.00126238
-0.0017644
-0.00236789
-0.00291114
-0.00330425
-0.00348475
-0.00338146
-0.00284629
-0.0016473
0.000432965
0.00148828
0.00150242
0.00131877
0.00105727
0.000874293
0.00055285
5.99626e-05
-0.000388612
-0.000644923
-0.000900637
-0.00129096
-0.00178468
-0.00235654
-0.00288578
-0.00328321
-0.00347297
-0.00336643
-0.00281877
-0.00160346
0.00049721
0.00152251
0.00152406
0.00131866
0.00102339
0.000820825
0.000514136
4.63191e-05
-0.000408028
-0.000686113
-0.000933543
-0.00131636
-0.00180548
-0.00235267
-0.00286369
-0.00325875
-0.00345705
-0.00335185
-0.00279509
-0.00156398
0.000557518
0.00155495
0.00154431
0.00131977
0.000992797
0.000768344
0.000471708
2.92708e-05
-0.000423
-0.000724178
-0.000969525
-0.00134283
-0.00182539
-0.00235466
-0.00284743
-0.00323413
-0.00343709
-0.00333538
-0.00277383
-0.00153003
0.000611437
0.00158566
0.00156305
0.00132158
0.000965513
0.000717606
0.000426552
7.91016e-06
-0.000435111
-0.000757851
-0.00100825
-0.00136762
-0.00184377
-0.00236015
-0.00283789
-0.00321214
-0.00341465
-0.00331678
-0.002754
-0.00150111
0.000658649
0.00161468
0.00158023
0.00132363
0.0009414
0.000668912
0.000379684
-1.78579e-05
-0.000446447
-0.000786402
-0.00104861
-0.00139479
-0.0018612
-0.00236757
-0.00283463
-0.00319577
-0.00339325
-0.00329725
-0.00273439
-0.00147534
0.000699894
0.00164202
0.00159589
0.00132559
0.000920164
0.000622636
0.000331767
-4.77033e-05
-0.000458641
-0.000810215
-0.00108966
-0.00142541
-0.00187904
-0.00237565
-0.00283638
-0.00318726
-0.00337618
-0.0032783
-0.00271443
-0.00145109
0.000736073
0.00166769
0.00161005
0.00132715
0.000901476
0.000579174
0.000283718
-8.11541e-05
-0.00047349
-0.000829975
-0.00112975
-0.00146002
-0.00189907
-0.00238448
-0.00284143
-0.00318653
-0.00336572
-0.0032628
-0.00269577
-0.00142858
0.000767389
0.00169165
0.00162282
0.0013281
0.000884806
0.000538721
0.000236169
-0.000117539
-0.000492386
-0.000846867
-0.00116708
-0.00149852
-0.00192346
-0.00239578
-0.00284822
-0.00319194
-0.00336356
-0.00325403
-0.00268116
-0.00140913
0.000794135
0.00171391
0.00163431
0.00132831
0.000869688
0.000501109
0.000189551
-0.000156034
-0.000515599
-0.000862952
-0.0012003
-0.00153911
-0.00195303
-0.00241164
-0.00285728
-0.0032026
-0.00337026
-0.00325398
-0.00267346
-0.0013951
0.000815097
0.00173442
0.00164465
0.00132784
0.000855754
0.000466067
0.000144022
-0.000195781
-0.00054372
-0.000881139
-0.00123031
-0.00158035
-0.00198742
-0.00243366
-0.00286984
-0.00321685
-0.00338394
-0.00326252
-0.00267448
-0.00138892
0.000827796
0.00175315
0.00165379
0.00132671
0.000842545
0.000433639
0.000100056
-0.000236623
-0.000575661
-0.000904456
-0.00125948
-0.00162205
-0.0020272
-0.00246366
-0.00288892
-0.00323502
-0.00340317
-0.00327924
-0.00268546
-0.00139244
0.000831552
0.00177014
0.00166192
0.00132479
0.000829969
0.000403465
5.82918e-05
-0.000277323
-0.000610232
-0.000932417
-0.00128922
-0.00166284
-0.00207076
-0.00250246
-0.0029181
-0.00326021
-0.00342914
-0.00330462
-0.00270744
-0.00140797
0.000823231
0.00178516
0.00166896
0.00132272
0.000818162
0.000375321
1.82261e-05
-0.000318983
-0.0006479
-0.000965699
-0.00132176
-0.00170248
-0.00211479
-0.00254709
-0.0029585
-0.00329644
-0.00346506
-0.00333945
-0.00273964
-0.00143503
0.000802099
0.00179827
0.00167517
0.00132023
0.0008067
0.000349532
-1.93416e-05
-0.000360386
-0.000688056
-0.00100414
-0.00136122
-0.00174569
-0.00216
-0.00259375
-0.00300626
-0.00334419
-0.0035148
-0.00338923
-0.00278688
-0.00147681
0.000767416
0.00180912
0.00168091
0.0013175
0.000795557
0.0003229
-5.5893e-05
-0.000401923
-0.000729654
-0.00104472
-0.00140634
-0.00179634
-0.00221161
-0.00264533
-0.00305945
-0.00339932
-0.00357514
-0.00345416
-0.00285339
-0.00154041
0.000710409
0.00181762
0.00168701
0.0013237
0.000787016
0.000299634
-9.05606e-05
-0.000444186
-0.000775272
-0.00108724
-0.0014516
-0.00184962
-0.00227005
-0.00270722
-0.00312413
-0.00346568
-0.00364537
-0.00353025
-0.00293477
-0.00162318
0.000630741
0.00182486
0.00168388
0.0013084
0.000775216
0.000275176
-0.000124697
-0.000486641
-0.000826805
-0.00113769
-0.00149973
-0.00190288
-0.00232934
-0.00277293
-0.00319777
-0.00354618
-0.00373297
-0.00362523
-0.00303597
-0.00172871
0.000524722
0.00182875
0.00170558
0.00132541
0.000774421
0.000254549
-0.000159247
-0.000528055
-0.000880731
-0.00119555
-0.00155456
-0.00196036
-0.00239222
-0.00284025
-0.00327312
-0.00363283
-0.00383184
-0.00373597
-0.00315772
-0.00185949
0.000386034
0.00182355
0.0016579
0.00130428
0.000772718
0.0002436
-0.000192807
-0.000569343
-0.000936465
-0.00125786
-0.00161238
-0.0020205
-0.00246127
-0.00291666
-0.00335616
-0.00372835
-0.0039413
-0.00385927
-0.00329266
-0.00200561
0.000228936
0.0018373
0.00172339
0.00132276
0.000754305
0.000202942
-0.000242536
-0.00062239
-0.000996051
-0.00132727
-0.00167628
-0.00208657
-0.00253785
-0.0030037
-0.00345413
-0.00384162
-0.00407178
-0.00400779
-0.0034558
-0.00217727
5.66638e-05
0.00176695
0.00167833
0.00138174
0.000813476
0.000203559
-0.000280863
-0.000674999
-0.0010505
-0.00139136
-0.00174502
-0.00216348
-0.00262938
-0.00311065
-0.00358355
-0.00399686
-0.00426144
-0.00423059
-0.0037106
-0.00245887
-0.000242249
0.00185721
0.00171661
0.00131173
0.000734667
0.000155844
-0.000337886
-0.00073382
-0.00108929
-0.00140776
-0.00172634
-0.00212142
-0.00258435
-0.00307389
-0.00355669
-0.00399727
-0.00432008
-0.00438652
-0.0039899
-0.00287237
-0.000794898
0.00175907
0.0017062
0.00131491
0.000836992
0.000271903
-0.000371279
-0.000896816
-0.00128985
-0.00164945
-0.00196034
-0.0023482
-0.00279791
-0.00326363
-0.00366055
-0.00395122
-0.00407644
-0.00396438
-0.0034559
-0.00231419
-0.000273022
0.00189627
0.00167369
0.00131842
0.000749117
0.000129246
-0.000377726
-0.000741482
-0.00103155
-0.00135366
-0.00170538
-0.00214453
-0.00266744
-0.00327979
-0.00397262
-0.00468107
-0.0052979
-0.00564651
-0.00549544
-0.00458586
-0.00268301
0.00210877
0.0015827
0.00110174
0.00053947
-2.94163e-07
-0.000613339
-0.00109209
-0.00138313
-0.001707
-0.00214668
-0.00257122
-0.00293521
-0.0030546
-0.00284474
-0.00226227
-0.00139609
-0.00043347
0.000327199
0.000530849
-0.000151906
0.00209419
0.00161945
0.00113489
0.000635489
0.000219903
-0.000171909
-0.000490717
-0.000837876
-0.00123451
-0.00172958
-0.00234047
-0.00310362
-0.00401275
-0.00499127
-0.0059333
-0.00675986
-0.0073365
-0.007447
-0.00680815
-0.00516708
0.00224437
0.00157526
0.00104107
0.000516675
0.000107439
-0.000384285
-0.000897262
-0.00149694
-0.00202819
-0.00235062
-0.00265392
-0.00308055
-0.00345804
-0.00361933
-0.00345807
-0.00298372
-0.00230155
-0.00169738
-0.00155953
-0.00225202
0.00223896
0.00155389
0.00104116
0.000631809
0.000402261
0.000165255
-4.63696e-05
-0.000385617
-0.000855484
-0.001565
-0.00254406
-0.00385788
-0.00543558
-0.00710314
-0.0086331
-0.00984158
-0.0105761
-0.0106611
-0.00987522
-0.0080208
0.00125242
-0.00593938
-0.00846818
-0.00662946
-0.00419443
-0.00202372
-0.000198039
0.00127897
0.00255881
0.00383782
0.00516915
0.00640211
0.00748739
0.00865511
0.0099819
0.0113495
0.0126936
0.0140137
0.0153607
0.0168223
0.0183307
0.0198436
0.0214154
0.0230604
0.0247456
0.0264822
0.0282992
0.0301877
0.0321759
0.0342451
0.0363689
0.0384996
0.0407218
0.0430476
0.0454511
0.0479194
0.0504589
0.0531243
0.0558499
0.058704
0.0615982
0.0646406
0.0677721
0.0710484
0.0744359
0.077848
0.0814545
0.0850092
0.0885455
0.0923416
0.00117638
-0.0058758
-0.0084247
-0.00661302
-0.00418592
-0.002018
-0.000193518
0.0012828
0.00256205
0.0038405
0.00517139
0.00640403
0.00748901
0.00865645
0.00998304
0.0113505
0.0126945
0.0140145
0.0153614
0.0168229
0.0183313
0.0198441
0.0214159
0.0230608
0.0247459
0.0264825
0.0282996
0.030188
0.0321762
0.0342453
0.0363691
0.0384998
0.0407221
0.0430478
0.0454513
0.0479196
0.0504591
0.0531244
0.0558501
0.0587041
0.0615984
0.0646407
0.0677722
0.0710485
0.074436
0.077848
0.0814546
0.0850093
0.0885456
0.0923417
0.00102733
-0.00578208
-0.00835396
-0.00659028
-0.00417583
-0.00201182
-0.000189105
0.00128633
0.002565
0.00384298
0.00517349
0.00640583
0.00749048
0.00865764
0.00998407
0.0113514
0.0126952
0.0140151
0.015362
0.0168235
0.0183318
0.0198445
0.0214163
0.0230612
0.0247463
0.0264828
0.0282998
0.0301883
0.0321764
0.0342456
0.0363693
0.0385
0.0407222
0.0430479
0.0454515
0.0479197
0.0504592
0.0531246
0.0558502
0.0587042
0.0615985
0.0646408
0.0677723
0.0710486
0.0744361
0.0778481
0.0814547
0.0850094
0.0885456
0.0923417
0.000887811
-0.00565346
-0.00824683
-0.00655413
-0.00416087
-0.00200349
-0.000183953
0.00129005
0.00256809
0.00384566
0.0051758
0.00640778
0.00749205
0.00865891
0.00998519
0.0113524
0.0126961
0.0140159
0.0153626
0.016824
0.0183323
0.019845
0.0214167
0.0230615
0.0247466
0.0264831
0.0283001
0.0301885
0.0321767
0.0342458
0.0363696
0.0385002
0.0407224
0.0430481
0.0454516
0.0479199
0.0504593
0.0531247
0.0558503
0.0587044
0.0615986
0.0646409
0.0677724
0.0710487
0.0744361
0.0778482
0.0814548
0.0850094
0.0885457
0.0923418
0.000769595
-0.00549833
-0.00810926
-0.00650392
-0.00413962
-0.00199174
-0.000177283
0.00129431
0.00257156
0.0038488
0.00517856
0.00641011
0.00749392
0.00866044
0.00998654
0.0113535
0.012697
0.0140167
0.0153633
0.0168246
0.0183328
0.0198455
0.0214171
0.0230619
0.024747
0.0264835
0.0283004
0.0301888
0.0321769
0.034246
0.0363698
0.0385004
0.0407226
0.0430483
0.0454518
0.04792
0.0504595
0.0531248
0.0558504
0.0587045
0.0615987
0.064641
0.0677725
0.0710488
0.0744362
0.0778483
0.0814548
0.0850095
0.0885458
0.0923419
0.000657628
-0.00533041
-0.0079542
-0.00644437
-0.00411331
-0.00197654
-0.000168723
0.00129936
0.00257546
0.00385244
0.00518186
0.00641292
0.00749623
0.00866236
0.00998823
0.011355
0.0126982
0.0140176
0.0153641
0.0168253
0.0183335
0.019846
0.0214176
0.0230624
0.0247474
0.0264838
0.0283007
0.0301891
0.0321772
0.0342463
0.03637
0.0385006
0.0407228
0.0430485
0.0454519
0.0479202
0.0504596
0.053125
0.0558506
0.0587046
0.0615988
0.0646411
0.0677726
0.0710489
0.0744363
0.0778484
0.0814549
0.0850096
0.088546
0.092342
0.000542591
-0.00515696
-0.00778907
-0.00637959
-0.00408406
-0.00195873
-0.000158304
0.00130537
0.00257985
0.00385653
0.00518563
0.00641623
0.00749907
0.0086648
0.00999038
0.0113568
0.0126997
0.0140188
0.015365
0.0168261
0.0183342
0.0198467
0.0214182
0.0230629
0.0247479
0.0264842
0.0283011
0.0301894
0.0321775
0.0342465
0.0363703
0.0385008
0.040723
0.0430487
0.0454521
0.0479203
0.0504598
0.0531251
0.0558507
0.0587047
0.0615989
0.0646412
0.0677727
0.071049
0.0744365
0.0778485
0.081455
0.0850097
0.0885462
0.0923423
0.000423736
-0.00497981
-0.00761636
-0.00631151
-0.00405333
-0.00193925
-0.000146344
0.00131235
0.00258476
0.00386097
0.00518974
0.00641992
0.00750242
0.00866783
0.00999307
0.011359
0.0127015
0.0140202
0.0153662
0.016827
0.018335
0.0198474
0.0214189
0.0230636
0.0247484
0.0264847
0.0283015
0.0301898
0.0321778
0.0342468
0.0363706
0.0385011
0.0407232
0.0430489
0.0454523
0.0479205
0.0504599
0.0531253
0.0558508
0.0587049
0.0615991
0.0646413
0.0677729
0.0710491
0.0744366
0.0778486
0.0814551
0.0850099
0.0885464
0.0923425
0.000303347
-0.00479926
-0.00743663
-0.00624079
-0.00402188
-0.00191875
-0.00013323
0.0013202
0.00259014
0.00386567
0.00519403
0.00642385
0.00750617
0.00867141
0.00999632
0.0113617
0.0127036
0.014022
0.0153677
0.0168282
0.0183359
0.0198483
0.0214197
0.0230644
0.0247491
0.0264853
0.0283019
0.0301902
0.0321781
0.0342472
0.0363709
0.0385013
0.0407234
0.0430491
0.0454526
0.0479207
0.0504601
0.0531254
0.055851
0.058705
0.0615992
0.0646415
0.067773
0.0710492
0.0744367
0.0778487
0.0814553
0.08501
0.0885468
0.0923429
0.000183277
-0.00461587
-0.00725004
-0.00616749
-0.00398999
-0.00189757
-0.000119247
0.00132876
0.00259592
0.00387054
0.0051984
0.00642787
0.00751015
0.00867544
0.0100001
0.0113649
0.012706
0.014024
0.0153694
0.0168296
0.018337
0.0198492
0.0214207
0.0230653
0.02475
0.026486
0.0283025
0.0301906
0.0321785
0.0342475
0.0363712
0.0385016
0.0407237
0.0430493
0.0454528
0.0479209
0.0504603
0.0531256
0.0558512
0.0587052
0.0615993
0.0646416
0.0677731
0.0710494
0.0744368
0.0778488
0.0814554
0.0850102
0.0885472
0.0923434
6.43569e-05
-0.00443049
-0.00705659
-0.0060914
-0.00395778
-0.00187586
-0.000104533
0.00133789
0.00260201
0.00387554
0.00520281
0.00643189
0.00751422
0.00867975
0.0100044
0.0113684
0.0127087
0.0140264
0.0153715
0.0168313
0.0183382
0.0198503
0.0214218
0.0230663
0.024751
0.0264869
0.0283032
0.0301911
0.0321789
0.0342479
0.0363716
0.038502
0.040724
0.0430496
0.045453
0.0479212
0.0504605
0.0531258
0.0558514
0.0587053
0.0615995
0.0646417
0.0677732
0.0710495
0.074437
0.077849
0.0814556
0.0850105
0.0885477
0.0923439