/*--------------------------------*- C++ -*----------------------------------*\
| =========                 |                                                 |
| \\      /  F ield         | OpenFOAM: The Open Source CFD Toolbox           |
|  \\    /   O peration     | Version:  v2012                                 |
|   \\  /    A nd           | Website:  www.openfoam.com                      |
|    \\/     M anipulation  |                                                 |
\*---------------------------------------------------------------------------*/
FoamFile
{
    version     2.0;
    format      ascii;
    class       volScalarField;
    location    "10";
    object      p;
}
// * * * * * * * * * * * * * * * * * * * * * * * * * * * * * * * * * * * * * //

dimensions      [0 2 -2 0 0 0 0];


internalField   nonuniform List<scalar> 
7000
(
7.481e-11
-0.00301197
-0.000504012
0.00390972
-0.00180425
0.00234325
0.000133239
0.00424371
0.00462848
0.00614566
0.00793481
0.00925857
0.00991239
0.0121459
0.0134707
0.0165719
0.0184006
0.0219409
0.0251634
0.0312531
-2.2532e-06
-0.00299866
-0.000502296
0.0038734
-0.00173855
0.00233314
0.000144734
0.00424915
0.00461852
0.00615148
0.00792483
0.00926496
0.00990982
0.0121438
0.013477
0.0165568
0.0184169
0.0218999
0.0251963
0.0310026
-4.34612e-06
-0.00298334
-0.000505845
0.00382889
-0.00168798
0.00231995
0.000163501
0.00424884
0.00460626
0.00616354
0.00790904
0.00928071
0.00990304
0.012145
0.0134827
0.0165361
0.0184313
0.0218378
0.0252209
0.0305672
-6.3777e-06
-0.00296878
-0.000509794
0.00378653
-0.00164058
0.00230728
0.000189844
0.00424121
0.0045968
0.00617907
0.00788715
0.00929992
0.00989227
0.0121444
0.013487
0.0165092
0.0184425
0.0217665
0.0252122
0.0301124
-8.97856e-06
-0.00295384
-0.000510115
0.0037463
-0.0015933
0.00229567
0.000226307
0.00422603
0.00458915
0.00619397
0.00785928
0.00931804
0.00988068
0.0121391
0.0134928
0.0164749
0.0184546
0.0216834
0.0251755
0.0296814
-1.24182e-05
-0.00293742
-0.000505996
0.00370824
-0.00154521
0.00228527
0.000273101
0.00420296
0.00458208
0.00620678
0.00782898
0.00933406
0.00987161
0.0121286
0.0135019
0.0164335
0.0184675
0.0215892
0.025116
0.029276
-1.68011e-05
-0.00291867
-0.000497398
0.00367254
-0.0014961
0.00227585
0.00032826
0.00417364
0.0045759
0.00621844
0.00779956
0.00934788
0.00986667
0.012113
0.0135149
0.0163852
0.0184798
0.0214859
0.0250342
0.0288881
-2.21013e-05
-0.00289672
-0.000484298
0.00363851
-0.00144613
0.00226682
0.000389478
0.0041409
0.00457114
0.00622982
0.00777231
0.00935912
0.00986594
0.0120921
0.0135314
0.0163301
0.0184897
0.0213751
0.0249286
0.0285113
-2.81507e-05
-0.00287082
-0.00046703
0.00360498
-0.00139562
0.00225752
0.000455232
0.00410727
0.00456779
0.0062408
0.00774719
0.00936703
0.00986887
0.0120658
0.0135507
0.0162686
0.018495
0.0212581
0.024798
0.0281414
-3.46977e-05
-0.0028405
-0.00044627
0.00357093
-0.00134484
0.00224742
0.000524818
0.00407428
0.00456567
0.0062507
0.00772367
0.00937065
0.00987473
0.0120335
0.0135715
0.0162017
0.0184934
0.0211362
0.024642
0.0277754
-4.14989e-05
-0.00280572
-0.000422736
0.00353563
-0.00129393
0.00223613
0.000597947
0.0040426
0.00456475
0.00625885
0.00770129
0.00936907
0.00988294
0.0119951
0.0135929
0.0161306
0.0184827
0.0210096
0.0244607
0.0274106
-4.83807e-05
-0.00276674
-0.000397006
0.00349869
-0.00124283
0.00222343
0.000674387
0.0040124
0.00456513
0.0062647
0.00767993
0.0093616
0.00989317
0.0119509
0.0136133
0.0160566
0.0184607
0.0208787
0.024255
0.0270438
-5.52552e-05
-0.00272412
-0.000369503
0.0034599
-0.0011913
0.00220918
0.000753845
0.00398354
0.0045668
0.00626784
0.00765977
0.00934786
0.00990516
0.0119012
0.0136314
0.0159807
0.0184257
0.0207435
0.0240261
0.026672
-6.2102e-05
-0.00267845
-0.000340511
0.00341922
-0.00113904
0.00219328
0.000835985
0.00395573
0.00456964
0.00626798
0.00764127
0.00932776
0.00991849
0.0118472
0.0136454
0.0159041
0.0183758
0.0206034
0.0237759
0.0262926
-6.89374e-05
-0.00263031
-0.000310213
0.00337665
-0.00108572
0.00217564
0.00092048
0.00392861
0.00457348
0.0062649
0.00762489
0.00930143
0.00993254
0.0117901
0.0136537
0.0158277
0.0183098
0.0204569
0.0235062
0.0259041
-7.57875e-05
-0.0025802
-0.000278725
0.00333225
-0.00103107
0.00215622
0.00100707
0.00390184
0.00457816
0.00625846
0.00761096
0.00926926
0.00994633
0.0117311
0.0136545
0.0157519
0.0182275
0.0203022
0.0232187
0.0255057
-8.26706e-05
-0.00252852
-0.000246134
0.00328609
-0.000974839
0.00213501
0.00109554
0.00387512
0.00458351
0.00624859
0.00759965
0.00923195
0.00995847
0.0116718
0.0136464
0.0156764
0.0181293
0.0201376
0.0229146
0.0250969
-8.95893e-05
-0.00247562
-0.000212515
0.00323827
-0.00091681
0.00211201
0.0011857
0.00384818
0.00458946
0.00623527
0.00759087
0.00919049
0.00996732
0.0116134
0.0136283
0.0156004
0.0180161
0.0199617
0.022595
0.0246776
-9.65296e-05
-0.00242178
-0.000177932
0.00318893
-0.000856799
0.00208722
0.00127733
0.00382078
0.00459596
0.0062186
0.0075841
0.00914616
0.00997127
0.0115565
0.0135999
0.0155223
0.0178883
0.0197739
0.0222614
0.0242478
-0.000103464
-0.00236721
-0.000142436
0.00313817
-0.000794664
0.00206068
0.00137024
0.00379277
0.00460289
0.00619875
0.00757852
0.00909938
0.00996901
0.0115012
0.0135613
0.0154408
0.0177466
0.019573
0.0219154
0.0238083
-0.000110354
-0.00231202
-0.000106047
0.0030861
-0.000730317
0.0020324
0.00146418
0.00376415
0.00460997
0.00617604
0.00757302
0.00905508
0.00995948
0.0114476
0.0135129
0.0153541
0.0175915
0.0193585
0.0215579
0.0233601
-0.000117156
-0.00225626
-6.87547e-05
0.00303281
-0.000663715
0.00200243
0.00155892
0.00373514
0.00461679
0.00615111
0.00756623
0.00901273
0.00994211
0.0113945
0.0134555
0.0152606
0.0174231
0.0191301
0.0211902
0.0229043
-0.000123819
-0.00219993
-3.05245e-05
0.00297836
-0.000594856
0.00197084
0.00165417
0.00370604
0.00462279
0.00612503
0.00755672
0.00897298
0.00991677
0.0113406
0.01339
0.0151588
0.0172418
0.0188877
0.0208134
0.0224423
-0.00013029
-0.00214297
8.68872e-06
0.00292283
-0.000523754
0.00193777
0.00174964
0.00367735
0.00462727
0.00609894
0.00754327
0.00893611
0.00988354
0.0112846
0.0133175
0.0150464
0.017048
0.0186333
0.020428
0.0219745
-0.000136512
-0.00208533
4.89398e-05
0.00286627
-0.000450425
0.00190346
0.00184492
0.00364975
0.00462928
0.00607395
0.007525
0.0089021
0.00984283
0.0112244
0.0132405
0.0149221
0.016838
0.01837
0.0200379
0.0215008
-0.000142419
-0.002027
9.02847e-05
0.00280878
-0.000374932
0.0018683
0.0019395
0.00362422
0.00462773
0.00605079
0.00750145
0.00887075
0.00979622
0.0111559
0.0131589
0.0147911
0.0166071
0.0180931
0.01965
0.0210244
-0.000147949
-0.00196798
0.000132743
0.00275049
-0.000297371
0.0018327
0.00203269
0.00360182
0.00462178
0.00602984
0.0074724
0.00884115
0.00974596
0.0110788
0.013067
0.0146572
0.0163627
0.0177945
0.0192622
0.0205506
-0.000153025
-0.00190828
0.00017634
0.00269153
-0.000217762
0.00179715
0.00212373
0.00358335
0.00461072
0.00601159
0.00743815
0.00881051
0.00969374
0.0109929
0.0129651
0.0145116
0.0161117
0.0174826
0.0188691
0.0200781
-0.000157561
-0.001848
0.00022115
0.00263199
-0.000136307
0.0017625
0.00221166
0.00356948
0.00459396
0.00599621
0.00739943
0.00877627
0.00964035
0.0108959
0.0128553
0.0143559
0.0158538
0.017166
0.0184472
0.019603
-0.000161486
-0.00178717
0.000267074
0.0025722
-5.34729e-05
0.00172933
0.00229577
0.00356088
0.00457091
0.00598366
0.00735641
0.00874294
0.00958413
0.010793
0.0127248
0.0141934
0.0155857
0.0168333
0.0180495
0.0191296
-0.000164652
-0.00172593
0.000314131
0.0025122
3.06845e-05
0.00169848
0.00237478
0.00355843
0.00454131
0.00597315
0.00731039
0.0087185
0.00952856
0.0106811
0.0125823
0.0140148
0.0153023
0.0164926
0.017685
0.0186594
-0.000167008
-0.00166428
0.000362326
0.00245222
0.00011552
0.00167098
0.00244768
0.00356266
0.00450516
0.00596303
0.00726465
0.00868316
0.00947591
0.0105591
0.0124301
0.0138329
0.0150042
0.0161407
0.0172108
0.0181886
-0.000168513
-0.00160232
0.000411288
0.00239287
0.000200079
0.00164691
0.00251487
0.00357263
0.00446355
0.00595108
0.00722189
0.00858405
0.00942265
0.0104381
0.0122445
0.0136455
0.014702
0.0157463
0.0169024
0.0177511
-0.00016879
-0.00154038
0.000461197
0.00233394
0.000284959
0.00162733
0.00257529
0.00358756
0.0044177
0.00593642
0.00718254
0.00843534
0.00936942
0.01031
0.0120548
0.0134357
0.0144292
0.0153218
0.0163148
0.0173302
-0.000167997
-0.00147822
0.000511766
0.00227618
0.000367892
0.00161337
0.00262781
0.00360914
0.00436587
0.00591929
0.00714616
0.00839633
0.00930381
0.0101821
0.0118479
0.0131873
0.0141149
0.0149642
0.0158692
0.0168603
-0.000166075
-0.0014161
0.000562392
0.00222072
0.000447336
0.0016047
0.00267269
0.00363739
0.00431089
0.00589518
0.00711583
0.00830986
0.0092203
0.0100548
0.0116055
0.0129395
0.0137674
0.0146418
0.015648
0.0164006
-0.000162324
-0.00135451
0.000613333
0.00216685
0.000526666
0.00160099
0.00271186
0.00366525
0.00426007
0.00586015
0.00709219
0.00818157
0.00912678
0.00992551
0.0113781
0.0126608
0.0135018
0.0141482
0.0150114
0.0160135
-0.000157236
-0.00129268
0.000663814
0.00211602
0.000601609
0.00160367
0.00274322
0.00369726
0.0042071
0.00581786
0.00706868
0.00807618
0.00900875
0.00978005
0.0111348
0.0123728
0.013198
0.0137785
0.0145151
0.0155673
-0.000150758
-0.00123096
0.000713141
0.0020695
0.000670555
0.00161272
0.00276665
0.00373404
0.00415614
0.00576461
0.00704366
0.00798929
0.00887793
0.00960287
0.010868
0.0120869
0.0128165
0.0135703
0.0144233
0.0150788
-0.000141906
-0.0011699
0.00076162
0.00202593
0.000740068
0.00162503
0.00278841
0.00376192
0.00411862
0.00569304
0.00702011
0.00785396
0.00873601
0.00948116
0.0106208
0.0117742
0.0124941
0.0129947
0.0137191
0.0147048
-0.000131528
-0.00110826
0.000808026
0.0019874
0.000803747
0.00164309
0.00280385
0.00379132
0.00408007
0.00561676
0.00699022
0.00777666
0.00857691
0.00929127
0.0103655
0.0114491
0.0121627
0.0125448
0.0132562
0.0142681
-0.000119589
-0.00104628
0.000851557
0.0019549
0.000859667
0.00166734
0.00281306
0.00382142
0.004045
0.00553681
0.00694542
0.00753111
0.00836233
0.00909494
0.0100933
0.0111178
0.0117848
0.012448
0.0131229
0.013761
-0.000104822
-0.000984763
0.00089313
0.00192576
0.000918935
0.00169108
0.00282583
0.00383748
0.00402211
0.00543856
0.00689772
0.00748971
0.0081944
0.00888669
0.00983961
0.010807
0.0114102
0.0117909
0.012375
0.0134054
-8.87277e-05
-0.000921904
0.000930682
0.00190341
0.000971712
0.00171925
0.00283309
0.00385488
0.00399672
0.00533609
0.00683564
0.00737807
0.00799719
0.00866755
0.00956644
0.0104666
0.0110095
0.0113648
0.0119508
0.0130188
-7.08291e-05
-0.00085813
0.000963734
0.00188749
0.00101815
0.00175112
0.00283446
0.00387612
0.00397104
0.00522968
0.00675483
0.00724439
0.0077627
0.00843492
0.00925946
0.0100742
0.0105856
0.0111411
0.0118596
0.0125531
-4.98219e-05
-0.000794393
0.00099416
0.00187372
0.0010729
0.00177556
0.00284313
0.00388315
0.00395433
0.00511199
0.00667219
0.00722479
0.00758677
0.00818062
0.00897305
0.00975161
0.0101659
0.0105004
0.0110384
0.0121846
-2.79082e-05
-0.000728433
0.00101916
0.00186593
0.00112569
0.00179879
0.00284937
0.00388351
0.00394173
0.00498586
0.00657109
0.00711858
0.0073879
0.00789867
0.00864476
0.00927417
0.0096563
0.00994099
0.0106355
0.0119261
-3.66133e-06
-0.00066124
0.00103991
0.00186239
0.00117674
0.00182334
0.00284737
0.00388392
0.0039287
0.00485435
0.00644631
0.00702761
0.00718358
0.00761736
0.00828136
0.00889088
0.00920337
0.00951053
0.0102277
0.0115619
2.29667e-05
-0.000592758
0.00105674
0.00185998
0.00123301
0.00184622
0.00283907
0.00387745
0.00391792
0.00472195
0.00630038
0.00692603
0.00700062
0.00732945
0.00791508
0.00851412
0.00881158
0.00908411
0.00977305
0.0111625
5.09198e-05
-0.000522412
0.00106966
0.0018588
0.0012914
0.00186933
0.00282473
0.0038612
0.00391154
0.00459023
0.00613088
0.00681455
0.0068233
0.00700442
0.00754174
0.00813678
0.00842658
0.00865489
0.00933132
0.0107756
8.1289e-05
-0.00045072
0.0010806
0.00185594
0.00135146
0.00189514
0.00280357
0.0038348
0.00390776
0.00446067
0.00594319
0.00668973
0.00664938
0.00672294
0.00716421
0.00774432
0.00804784
0.00825531
0.00891083
0.0103986
0.000113545
-0.000377481
0.0010893
0.00185026
0.00141344
0.00192293
0.00277698
0.00379824
0.0039037
0.00433719
0.00573942
0.00654477
0.00647829
0.00645231
0.00678689
0.00733819
0.007669
0.00787963
0.00853113
0.0100324
0.000147934
-0.000303378
0.00109783
0.00184196
0.00147227
0.00195388
0.00274939
0.00375023
0.00389529
0.00422178
0.00552143
0.00637828
0.00630956
0.00619171
0.00641536
0.00691897
0.00728541
0.00752879
0.00817146
0.00967866
0.000184392
-0.000227944
0.0011061
0.00182901
0.00152864
0.00198923
0.00271952
0.00368984
0.00388183
0.0041168
0.00529221
0.00618894
0.00614005
0.00594011
0.00605286
0.0064914
0.0068903
0.00718577
0.00784842
0.00934474
0.000223078
-0.000151713
0.00111455
0.00181238
0.00158028
0.002027
0.00269006
0.00362015
0.00385947
0.0040202
0.0050564
0.00597669
0.00596552
0.00569714
0.00570207
0.00606259
0.0064885
0.00684966
0.00753778
0.00902773
0.000264096
-7.4728e-05
0.00112362
0.00179282
0.00162439
0.00206553
0.00266309
0.00354195
0.00382526
0.00393252
0.00482132
0.00574194
0.00577996
0.00545938
0.00536643
0.00564109
0.00607794
0.00650456
0.00724155
0.00872766
0.00030721
3.36915e-06
0.00113314
0.00177193
0.00166125
0.00210016
0.00263732
0.00345696
0.0037788
0.00385316
0.00459096
0.00548401
0.00558118
0.00522762
0.00504789
0.00523299
0.00566147
0.00614803
0.0069393
0.00844151
0.00035186
8.28261e-05
0.00114209
0.00175051
0.00168787
0.00213021
0.00261905
0.00336593
0.0037173
0.00377701
0.00436845
0.00520711
0.00536636
0.00499889
0.0047432
0.00483814
0.00524022
0.00577463
0.00663584
0.00816794
0.000398969
0.000162329
0.00115392
0.00172693
0.00169615
0.00215609
0.00260842
0.00327291
0.0036436
0.00370261
0.00415767
0.00491558
0.00513144
0.00477035
0.00445002
0.0044561
0.00482171
0.00539845
0.00632183
0.00789524
0.000449068
0.000241303
0.00120128
0.00170039
0.00171284
0.00217291
0.0025705
0.00317922
0.00356557
0.00363039
0.00396149
0.00461542
0.00487565
0.00453902
0.00416704
0.0040933
0.00441362
0.00501833
0.00599701
0.0076132
0.000500358
0.000320655
0.00121888
0.00167695
0.00171202
0.00217278
0.0025374
0.00308971
0.00348012
0.00355434
0.00377993
0.00431327
0.00459837
0.0043001
0.00389247
0.00374807
0.00401361
0.00463081
0.00565469
0.00732419
0.000553608
0.000399432
0.0012382
0.00165632
0.00169472
0.00216368
0.00251198
0.00300049
0.00338124
0.00346643
0.00360916
0.00401473
0.00430128
0.00405313
0.00362437
0.00341584
0.00362201
0.0042392
0.00530748
0.00703484
0.000609065
0.000476717
0.00125821
0.00163418
0.00167264
0.00214801
0.00248597
0.00290992
0.0032699
0.00336611
0.00344814
0.00372772
0.00398989
0.00379483
0.00335989
0.00309672
0.00324378
0.00385154
0.00495881
0.00674229
0.000666117
0.000552153
0.0012777
0.00161418
0.00164635
0.00212368
0.00245611
0.00281948
0.00315021
0.00325322
0.00329261
0.0034554
0.00366851
0.00351977
0.00309609
0.00279073
0.00287992
0.00346901
0.00460845
0.00644568
0.00072472
0.000625399
0.00129633
0.00159629
0.00161655
0.00209012
0.00242155
0.00273028
0.00302364
0.00312571
0.0031359
0.00319717
0.00334247
0.00322807
0.00283198
0.00249844
0.00253188
0.00309394
0.00425669
0.00614728
0.000784555
0.000696216
0.00131383
0.0015806
0.00158434
0.00204735
0.00238062
0.00264118
0.00289194
0.00298509
0.00297443
0.00295226
0.00302054
0.0029242
0.00256421
0.00221628
0.00219929
0.00272802
0.0039047
0.00584669
0.000845452
0.000764744
0.00132952
0.00156674
0.00155111
0.00199589
0.00233326
0.00255196
0.00275775
0.00283363
0.00280494
0.00271779
0.00270711
0.00260992
0.00228628
0.00194004
0.00188354
0.00237577
0.00355627
0.00554431
0.000907067
0.000830756
0.00134317
0.00155447
0.00151772
0.00193621
0.00227589
0.00246116
0.00262193
0.00267323
0.00262655
0.0024895
0.00240325
0.00229015
0.00199852
0.0016679
0.00158477
0.00204026
0.00321472
0.00524047
0.000969127
0.000894364
0.00135468
0.00154309
0.00148453
0.00186928
0.00220832
0.00236786
0.00248572
0.00250657
0.00243933
0.00226381
0.00210979
0.00197069
0.00170216
0.00139481
0.00129874
0.00172203
0.00288381
0.00493761
0.00103132
0.000955573
0.00136385
0.0015319
0.00145209
0.00179652
0.00213016
0.00227074
0.00234887
0.00233542
0.00224453
0.00203867
0.00182535
0.00165373
0.00139852
0.00111805
0.00102268
0.0014216
0.00256786
0.00463963
0.00109326
0.00101437
0.00137072
0.00152025
0.00142049
0.00171898
0.00204161
0.0021677
0.00221065
0.00216203
0.00204342
0.00181236
0.00154807
0.00134109
0.00109193
0.000837721
0.000752927
0.00113702
0.0022688
0.00434888
0.00115458
0.0010709
0.00137528
0.00150721
0.00138969
0.00163804
0.00194318
0.00205727
0.00207056
0.00198748
0.00183703
0.00158437
0.00127734
0.00103421
0.000784934
0.000552392
0.000485345
0.000865416
0.00198572
0.00406677
0.00121494
0.00112514
0.00137763
0.00149205
0.00135922
0.00155517
0.00183567
0.00193823
0.00192747
0.00181239
0.00162745
0.00135473
0.00101229
0.000732758
0.00047773
0.000262699
0.00021876
0.000603167
0.00171593
0.00379435
0.001274
0.00117708
0.00137779
0.00147433
0.00132868
0.00147113
0.00172022
0.00181039
0.00178
0.00163678
0.00141637
0.00112301
0.00075183
0.000436461
0.000171889
-2.88346e-05
-4.88418e-05
0.000345716
0.00145669
0.00353115
0.00133133
0.00122669
0.00137608
0.00145319
0.00129731
0.00138696
0.00159845
0.00167369
0.00162669
0.00146
0.00120526
0.000889503
0.00049515
0.000146238
-0.000130823
-0.000322115
-0.000320004
9.02374e-05
0.00120441
0.0032745
0.00138657
0.00127387
0.00137262
0.00142845
0.00126438
0.00130302
0.00147216
0.0015287
0.00146658
0.00128139
0.000994851
0.000654738
0.000241346
-0.000137459
-0.000430122
-0.000617063
-0.000594917
-0.000166101
0.00095426
0.00302193
0.0014395
0.00131861
0.00136767
0.00139972
0.00122918
0.00121955
0.00134284
0.00137652
0.00129931
0.0010994
0.000784819
0.000419639
-1.0299e-05
-0.000415229
-0.000725733
-0.000912144
-0.000873574
-0.000426135
0.000703791
0.00277218
0.00148977
0.00136065
0.00136159
0.00136716
0.00119057
0.00113646
0.00121215
0.001218
0.0011243
0.000913049
0.000574634
0.000185159
-0.000260148
-0.000687959
-0.00101715
-0.00120653
-0.00115617
-0.000690694
0.00045148
0.00252303
0.00153705
0.00139991
0.00135446
0.00133069
0.00114825
0.00105337
0.0010809
0.00105496
0.000941959
0.000721886
0.000363591
-4.90894e-05
-0.000508441
-0.000955956
-0.00130411
-0.00150029
-0.00144264
-0.000960765
0.000194968
0.00227279
0.00158105
0.0014361
0.0013466
0.0012906
0.00110142
0.00097036
0.000949738
0.000889175
0.000752944
0.000525292
0.000151031
-0.000283868
-0.000755766
-0.00121933
-0.00158627
-0.00179269
-0.00173241
-0.00123752
-6.75918e-05
0.00202
0.00162156
0.00146898
0.00133801
0.00124738
0.00104985
0.000886162
0.000819157
0.000722413
0.000557705
0.000322711
-6.29175e-05
-0.000519942
-0.00100378
-0.00147982
-0.0018633
-0.0020816
-0.00202332
-0.00151996
-0.000336974
0.0017624
0.00165836
0.0014983
0.00132887
0.00120137
0.000993293
0.000800917
0.000688918
0.000556481
0.000358459
0.000113259
-0.0002785
-0.0007572
-0.00125408
-0.00173998
-0.00213657
-0.00236674
-0.00231383
-0.00180636
-0.000612817
0.0014991
0.00169138
0.00152387
0.00131896
0.00115343
0.000931931
0.000713931
0.000558533
0.00039235
0.00015747
-0.000103772
-0.000496304
-0.000994041
-0.00150606
-0.00200129
-0.00240857
-0.00264979
-0.00260396
-0.00209586
-0.000894627
0.00122952
0.00172046
0.00154549
0.00130822
0.00110394
0.000866417
0.000625422
0.000427785
0.000229885
-4.27491e-05
-0.000328757
-0.000718649
-0.0012302
-0.00175908
-0.00226472
-0.00268137
-0.00293176
-0.00289344
-0.00238721
-0.00118114
0.000953948
0.00174541
0.00156299
0.00129656
0.00105418
0.000794919
0.000535055
0.000296447
6.79438e-05
-0.000238817
-0.000558731
-0.000947891
-0.00146608
-0.00201218
-0.00253049
-0.00295731
-0.0032156
-0.00318463
-0.00268187
-0.00147346
0.000670884
0.00176603
0.00157664
0.00128357
0.00100401
0.000724755
0.000444152
0.000164905
-9.57848e-05
-0.000430047
-0.000789212
-0.0011845
-0.00170291
-0.0022635
-0.00279595
-0.00323529
-0.00350267
-0.00347948
-0.00298145
-0.00177319
0.000377467
0.00178214
0.00158621
0.00127038
0.000954823
0.000645719
0.000351127
3.44531e-05
-0.000263207
-0.000619722
-0.00101712
-0.00142756
-0.00194275
-0.00251379
-0.00306048
-0.00351396
-0.00379169
-0.00377714
-0.00328442
-0.00207826
7.46271e-05
0.00179388
0.00159092
0.00125446
0.000910851
0.000577043
0.000258715
-9.2757e-05
-0.000431976
-0.000809897
-0.00124151
-0.00167531
-0.002188
-0.00276581
-0.00332592
-0.00379581
-0.00408628
-0.00408027
-0.00359268
-0.00238752
-0.000231618
0.00180086
0.00159309
0.00123645
0.000858321
0.000501233
0.000164622
-0.000218027
-0.000602116
-0.00100291
-0.00146078
-0.00192296
-0.00243691
-0.00301777
-0.00358887
-0.00407588
-0.00438319
-0.0043908
-0.00391264
-0.00271327
-0.00055995
0.00180067
0.00159541
0.00122977
0.000833992
0.000425569
5.63043e-05
-0.000353023
-0.000781574
-0.0012067
-0.00168048
-0.0021699
-0.00268949
-0.0032706
-0.00384982
-0.0043529
-0.0046794
-0.00470353
-0.00423982
-0.00305277
-0.000910324
0.00179803
0.00156033
0.00118444
0.00079764
0.000419239
5.08767e-06
-0.000455298
-0.000938603
-0.00140097
-0.00188675
-0.00239835
-0.00293187
-0.00351812
-0.00410774
-0.00462855
-0.00497654
-0.00502025
-0.00457284
-0.00339714
-0.00126107
0.00178749
0.00161708
0.00121296
0.000737722
0.000243401
-0.000173748
-0.000645163
-0.00115012
-0.00162373
-0.00210044
-0.00261779
-0.00316634
-0.00376547
-0.00437248
-0.00491674
-0.00528831
-0.00535038
-0.00491665
-0.00375115
-0.00162293
0.00172349
0.0014885
0.00119689
0.00084817
0.000436706
-9.75744e-05
-0.000754399
-0.0013675
-0.00187017
-0.00233051
-0.00284107
-0.00340216
-0.00401837
-0.00465094
-0.00522929
-0.00564186
-0.00573681
-0.00533381
-0.00419723
-0.00209384
0.00179534
0.00160726
0.00117429
0.000632271
7.27775e-05
-0.000414915
-0.000929764
-0.00144341
-0.00193098
-0.0024087
-0.00293322
-0.00350749
-0.00412823
-0.00476431
-0.00536322
-0.00583342
-0.0060357
-0.00575547
-0.00473995
-0.00275569
0.00174976
0.00156719
0.00110324
0.000695457
0.000201647
-0.000449811
-0.00109162
-0.00163486
-0.0021778
-0.00268658
-0.00325153
-0.00384235
-0.00445231
-0.00501392
-0.00548054
-0.00577981
-0.00582781
-0.00545497
-0.00442173
-0.00246679
0.00188014
0.00155528
0.00105583
0.000508457
-5.14281e-05
-0.000570204
-0.00105835
-0.00151723
-0.00201916
-0.00255095
-0.00315869
-0.00382921
-0.0045735
-0.00539962
-0.00625475
-0.00701346
-0.00749369
-0.00746179
-0.00665718
-0.00484301
0.00208406
0.00143413
0.000883947
0.000309582
-0.000205053
-0.000830284
-0.00145544
-0.00193528
-0.00242136
-0.00301791
-0.00362783
-0.00417462
-0.00447649
-0.00444693
-0.00404612
-0.00334849
-0.00253001
-0.001895
-0.00181217
-0.00262051
0.00205003
0.00147394
0.000886394
0.000393835
-5.09519e-05
-0.000497658
-0.000918604
-0.00139173
-0.00196347
-0.00265812
-0.00347883
-0.00442247
-0.00548316
-0.00660347
-0.00770706
-0.00869049
-0.00940347
-0.00963628
-0.00911973
-0.00760461
0.00221331
0.00141524
0.000788651
0.000258754
-0.000168276
-0.000737245
-0.0013876
-0.00214928
-0.00284674
-0.00333345
-0.00383295
-0.00445108
-0.00501337
-0.00535503
-0.00535975
-0.00503851
-0.00451136
-0.00405318
-0.00403757
-0.00482284
0.00219018
0.00138649
0.000782371
0.000356171
7.23343e-05
-0.000241211
-0.000576284
-0.00104424
-0.00167638
-0.00256764
-0.00376033
-0.00527844
-0.00703168
-0.00885497
-0.0105419
-0.0119161
-0.0128018
-0.0130129
-0.0123328
-0.0105737
0.0407883
0.0161422
0.00609371
0.00420121
0.00364299
0.00305902
0.00255725
0.0022433
0.00201251
0.00165525
0.00116618
0.000795816
0.000615467
0.000425231
0.000137427
-0.000155732
-0.000411577
-0.000808803
-0.00128677
-0.00153717
-0.00167492
-0.0018944
-0.00208125
-0.00225898
-0.00249906
-0.00273821
-0.00294866
-0.00319701
-0.00347813
-0.003721
-0.00396999
-0.00421983
-0.00454515
-0.00487553
-0.00522374
-0.00549435
-0.0057621
-0.00610034
-0.00647728
-0.00689169
-0.00725751
-0.00769663
-0.00813574
-0.00865172
-0.00921348
-0.00972394
-0.0103687
-0.0109469
-0.0118182
-0.0128316
0.039854
0.0161893
0.00613917
0.00421953
0.00365183
0.00306432
0.00256102
0.00224628
0.00201505
0.0016575
0.00116812
0.000797449
0.000616897
0.00042654
0.000138614
-0.000154689
-0.000410644
-0.000807956
-0.00128605
-0.00153656
-0.00167437
-0.00189391
-0.00208081
-0.00225858
-0.00249869
-0.00273788
-0.00294835
-0.00319672
-0.00347786
-0.00372075
-0.00396975
-0.00421961
-0.00454493
-0.00487532
-0.00522354
-0.00549417
-0.00576193
-0.00610017
-0.00647713
-0.00689156
-0.00725739
-0.00769651
-0.00813564
-0.00865162
-0.00921339
-0.00972386
-0.0103686
-0.0109468
-0.0118182
-0.0128317
0.0390569
0.0162816
0.00620774
0.0042427
0.00366264
0.00307029
0.00256483
0.00224912
0.0020174
0.00165954
0.00116983
0.000798885
0.000618175
0.000427717
0.000139669
-0.000153758
-0.000409791
-0.000807191
-0.00128544
-0.00153603
-0.00167387
-0.00189347
-0.00208043
-0.00225823
-0.00249837
-0.00273759
-0.00294808
-0.00319646
-0.00347762
-0.00372053
-0.00396954
-0.0042194
-0.00454474
-0.00487514
-0.00522337
-0.00549401
-0.00576177
-0.00610002
-0.00647699
-0.00689143
-0.00725727
-0.00769641
-0.00813554
-0.00865154
-0.00921331
-0.00972378
-0.0103686
-0.0109468
-0.0118182
-0.0128317
0.0383394
0.0163964
0.00630452
0.00427785
0.00367954
0.00307921
0.00256985
0.00225247
0.00201997
0.00166166
0.00117161
0.000800377
0.000619484
0.000428898
0.000140725
-0.00015281
-0.0004089
-0.000806402
-0.00128484
-0.00153551
-0.00167335
-0.00189302
-0.00208004
-0.00225786
-0.00249804
-0.0027373
-0.0029478
-0.0031962
-0.00347739
-0.00372032
-0.00396934
-0.0042192
-0.00454455
-0.00487496
-0.00522321
-0.00549386
-0.00576161
-0.00609988
-0.00647686
-0.00689131
-0.00725716
-0.00769631
-0.00813545
-0.00865145
-0.00921323
-0.00972371
-0.0103685
-0.0109467
-0.0118181
-0.0128317
0.037628
0.0165172
0.00642403
0.00432593
0.00370478
0.00309299
0.00257726
0.00225696
0.00202309
0.00166412
0.0011737
0.000802142
0.000620955
0.000430156
0.00014185
-0.000151761
-0.000407887
-0.000805507
-0.00128417
-0.00153491
-0.00167276
-0.00189252
-0.00207961
-0.00225746
-0.00249769
-0.00273699
-0.00294751
-0.00319592
-0.00347715
-0.00372009
-0.00396912
-0.004219
-0.00454435
-0.00487477
-0.00522303
-0.0054937
-0.00576145
-0.00609972
-0.00647671
-0.00689119
-0.00725704
-0.0076962
-0.00813535
-0.00865136
-0.00921315
-0.00972363
-0.0103684
-0.0109467
-0.0118181
-0.0128318
0.0369048
0.0166383
0.00655641
0.00438247
0.00373721
0.003112
0.00258759
0.00226289
0.00202687
0.00166702
0.00117627
0.000804342
0.000622658
0.000431491
0.000143037
-0.000150594
-0.000406713
-0.000804454
-0.00128337
-0.00153419
-0.00167207
-0.00189196
-0.00207912
-0.00225701
-0.0024973
-0.00273666
-0.0029472
-0.00319563
-0.00347688
-0.00371985
-0.00396889
-0.00421878
-0.00454415
-0.00487458
-0.00522286
-0.00549353
-0.00576128
-0.00609956
-0.00647656
-0.00689105
-0.00725691
-0.00769608
-0.00813524
-0.00865126
-0.00921306
-0.00972355
-0.0103684
-0.0109466
-0.011818
-0.0128319
0.036172
0.0167571
0.00669536
0.00444293
0.00377408
0.0031352
0.00260066
0.00227023
0.00203132
0.00167041
0.00117947
0.000807126
0.000624672
0.000432909
0.000144263
-0.000149323
-0.000405365
-0.000803194
-0.00128237
-0.00153329
-0.00167124
-0.00189129
-0.00207855
-0.00225649
-0.00249686
-0.00273629
-0.00294685
-0.00319531
-0.00347661
-0.00371959
-0.00396865
-0.00421855
-0.00454394
-0.00487439
-0.00522268
-0.00549336
-0.0057611
-0.00609939
-0.00647641
-0.00689091
-0.00725678
-0.00769595
-0.00813512
-0.00865115
-0.00921297
-0.00972346
-0.0103683
-0.0109465
-0.0118179
-0.012832
0.0354335
0.0168712
0.00683853
0.00450509
0.00381312
0.00316116
0.00261585
0.00227875
0.00203628
0.00167422
0.00118331
0.000810593
0.000627075
0.000434441
0.000145517
-0.000147986
-0.000403872
-0.000801703
-0.00128109
-0.00153212
-0.00167022
-0.0018905
-0.00207789
-0.00225589
-0.00249636
-0.00273587
-0.00294646
-0.00319496
-0.0034763
-0.0037193
-0.00396839
-0.00421831
-0.00454373
-0.0048742
-0.0052225
-0.00549319
-0.00576091
-0.00609921
-0.00647624
-0.00689076
-0.00725663
-0.00769581
-0.00813499
-0.00865103
-0.00921287
-0.00972335
-0.0103682
-0.0109464
-0.0118178
-0.0128322
0.0346918
0.0169794
0.00698565
0.00456839
0.00385314
0.00318883
0.00263255
0.00228815
0.0020416
0.0016783
0.00118772
0.000814743
0.000629916
0.000436133
0.000146813
-0.000146629
-0.00040231
-0.000800013
-0.00127949
-0.0015306
-0.00166895
-0.00188957
-0.00207712
-0.0022552
-0.00249578
-0.00273539
-0.00294603
-0.00319457
-0.00347596
-0.00371899
-0.0039681
-0.00421805
-0.00454351
-0.00487401
-0.00522232
-0.00549301
-0.00576072
-0.00609903
-0.00647607
-0.00689059
-0.00725646
-0.00769566
-0.00813485
-0.0086509
-0.00921276
-0.00972324
-0.0103681
-0.0109462
-0.0118176
-0.0128323
0.033948
0.0170806
0.00713704
0.00463293
0.00389364
0.00321757
0.0026503
0.0022982
0.00204717
0.00168255
0.00119252
0.00081948
0.000633184
0.000438015
0.000148178
-0.000145275
-0.000400774
-0.000798223
-0.00127757
-0.00152867
-0.00166736
-0.00188845
-0.00207625
-0.00225444
-0.00249513
-0.00273484
-0.00294552
-0.00319412
-0.00347558
-0.00371864
-0.00396777
-0.00421775
-0.00454326
-0.00487381
-0.00522213
-0.00549283
-0.00576052
-0.00609884
-0.00647589
-0.00689042
-0.00725629
-0.00769548
-0.00813468
-0.00865075
-0.00921263
-0.00972311
-0.0103679
-0.010946
-0.0118174
-0.0128325
0.0332035
0.0171742
0.00729285
0.00469883
0.00393434
0.00324702
0.00266884
0.00230879
0.00205298
0.00168691
0.00119757
0.000824662
0.000636823
0.000440087
0.000149634
-0.000143923
-0.000399338
-0.000796464
-0.00127545
-0.00152633
-0.00166541
-0.00188711
-0.00207527
-0.00225362
-0.00249441
-0.00273421
-0.00294495
-0.0031936
-0.00347513
-0.00371826
-0.00396742
-0.00421741
-0.00454298
-0.00487358
-0.00522194
-0.00549265
-0.00576031
-0.00609865
-0.00647571
-0.00689024
-0.0072561
-0.00769529
-0.0081345
-0.00865058
-0.00921249
-0.00972295
-0.0103678
-0.0109458
-0.0118171
-0.0128326
0.0324595
0.0172594
0.00745298
0.00476616
0.00397497
0.00327693
0.002688
0.00231985
0.00205902
0.00169138
0.00120277
0.000830153
0.000640762
0.000442323
0.000151178
-0.00014256
-0.00039804
-0.000794851
-0.00127325
-0.00152363
-0.00166308
-0.00188551
-0.00207418
-0.00225278
-0.00249365
-0.00273351
-0.00294431
-0.00319299
-0.0034746
-0.00371783
-0.00396705
-0.00421702
-0.00454263
-0.00487332
-0.00522174
-0.00549247
-0.00576011
-0.00609846
-0.00647553
-0.00689007