/*--------------------------------*- C++ -*----------------------------------*\
| =========                 |                                                 |
| \\      /  F ield         | OpenFOAM: The Open Source CFD Toolbox           |
|  \\    /   O peration     | Version:  v2012                                 |
|   \\  /    A nd           | Website:  www.openfoam.com                      |
|    \\/     M anipulation  |                                                 |
\*---------------------------------------------------------------------------*/
FoamFile
{
    version     2.0;
    format      ascii;
    class       surfaceScalarField;
    location    "10";
    object      phi;
}
// * * * * * * * * * * * * * * * * * * * * * * * * * * * * * * * * * * * * * //

dimensions      [0 3 -1 0 0 0 0];
oriented        oriented;


internalField   nonuniform List<scalar> 
13830
(
9.268e-07
-6.16357e-07
1.02434e-06
-9.51781e-07
1.00587e-06
9.54513e-07
8.84154e-07
5.003e-07
9.61708e-07
-6.96828e-08
9.14677e-07
-7.45561e-07
9.62018e-07
-5.87996e-07
9.56786e-07
2.91392e-07
9.31315e-07
3.30483e-07
9.4313e-07
6.67567e-07
9.23849e-07
9.84713e-08
9.33804e-07
1.77349e-07
9.297e-07
-2.36275e-07
9.29283e-07
-1.93264e-07
9.35431e-07
-3.57939e-07
9.28768e-07
-3.01816e-07
9.39167e-07
-2.85104e-07
9.28289e-07
-3.06141e-07
9.37576e-07
-1.71017e-07
-2.26853e-07
9.14754e-07
9.63547e-07
-6.07372e-07
1.06102e-06
-1.04926e-06
1.04215e-06
9.73391e-07
9.2574e-07
6.16706e-07
9.98185e-07
-1.42128e-07
9.50457e-07
-6.97833e-07
1.00098e-06
-6.38517e-07
9.99709e-07
2.92661e-07
9.66738e-07
3.63454e-07
9.91327e-07
6.42978e-07
9.63369e-07
1.26429e-07
9.82113e-07
1.58605e-07
9.69181e-07
-2.23343e-07
9.75866e-07
-1.99949e-07
9.69672e-07
-3.51745e-07
9.72954e-07
-3.05097e-07
9.69125e-07
-2.81276e-07
9.70705e-07
-3.07721e-07
9.65018e-07
-1.6533e-07
-2.22876e-07
9.6104e-07
1.00163e-06
-5.99549e-07
1.09498e-06
-1.14261e-06
1.0791e-06
9.89268e-07
9.76608e-07
7.19202e-07
1.03598e-06
-2.01504e-07
9.95175e-07
-6.57024e-07
1.03849e-06
-6.81827e-07
1.05002e-06
2.81126e-07
1.00468e-06
4.08796e-07
1.03617e-06
6.11492e-07
1.0061e-06
1.56493e-07
1.02384e-06
1.40868e-07
1.00792e-06
-2.07429e-07
1.01373e-06
-2.05758e-07
1.00221e-06
-3.40217e-07
1.00747e-06
-3.10364e-07
9.99456e-07
-2.73259e-07
1.00458e-06
-3.12845e-07
9.97638e-07
-1.58388e-07
-2.22091e-07
9.96853e-07
1.04003e-06
-5.91807e-07
1.127e-06
-1.22958e-06
1.11718e-06
9.99094e-07
1.03315e-06
8.0323e-07
1.07441e-06
-2.42764e-07
1.04494e-06
-6.27561e-07
1.07503e-06
-7.11913e-07
1.09748e-06
2.58677e-07
1.0477e-06
4.58579e-07
1.07416e-06
5.85023e-07
1.05123e-06
1.79432e-07
1.06202e-06
1.30072e-07
1.04816e-06
-1.93563e-07
1.04994e-06
-2.07538e-07
1.03771e-06
-3.27991e-07
1.04151e-06
-3.1417e-07
1.03295e-06
-2.64698e-07
1.03787e-06
-3.17764e-07
1.03175e-06
-1.52266e-07
-2.21385e-07
1.03105e-06
1.07881e-06
-5.83062e-07
1.15749e-06
-1.30826e-06
1.15644e-06
1.00015e-06
1.09206e-06
8.67608e-07
1.11292e-06
-2.63619e-07
1.09496e-06
-6.09602e-07
1.11067e-06
-7.27626e-07
1.13796e-06
2.3139e-07
1.09564e-06
5.00899e-07
1.11162e-06
5.69039e-07
1.09809e-06
1.92965e-07
1.10257e-06
1.25588e-07
1.09073e-06
-1.81724e-07
1.08961e-06
-2.0641e-07
1.07715e-06
-3.15533e-07
1.07928e-06
-3.16298e-07
1.07043e-06
-2.55854e-07
1.07376e-06
-3.2109e-07
1.06837e-06
-1.46874e-07
-2.19502e-07
1.06648e-06
1.1187e-06
-5.72916e-07
1.18733e-06
-1.37689e-06
1.19627e-06
9.91207e-07
1.15022e-06
9.13654e-07
1.15211e-06
-2.65507e-07
1.14222e-06
-5.99707e-07
1.14667e-06
-7.32076e-07
1.17358e-06
2.0448e-07
1.14633e-06
5.28148e-07
1.15329e-06
5.62072e-07
1.14588e-06
2.00377e-07
1.14697e-06
1.245e-07
1.13537e-06
-1.70127e-07
1.13304e-06
-2.04074e-07
1.11979e-06
-3.02283e-07
1.12065e-06
-3.1716e-07
1.11114e-06
-2.46348e-07
1.11245e-06
-3.22398e-07
1.10733e-06
-1.41752e-07
-2.16132e-07
1.10396e-06
1.16063e-06
-5.61848e-07
1.21754e-06
-1.4338e-06
1.23564e-06
9.73113e-07
1.20547e-06
9.4382e-07
1.19296e-06
-2.52995e-07
1.18669e-06
-5.93439e-07
1.18431e-06
-7.29693e-07
1.20848e-06
1.80311e-07
1.1969e-06
5.39727e-07
1.1993e-06
5.59666e-07
1.19385e-06
2.0583e-07
1.19392e-06
1.24431e-07
1.1814e-06
-1.57607e-07
1.17895e-06
-2.01623e-07
1.16466e-06
-2.87993e-07
1.16463e-06
-3.17135e-07
1.15433e-06
-2.36049e-07
1.15358e-06
-3.21641e-07
1.14843e-06
-1.36608e-07
-2.11269e-07
1.14357e-06
1.20529e-06
-5.50958e-07
1.24912e-06
-1.47763e-06
1.27364e-06
9.48594e-07
1.25689e-06
9.60567e-07
1.23601e-06
-2.32115e-07
1.23012e-06
-5.87546e-07
1.22399e-06
-7.23564e-07
1.24525e-06
1.59049e-07
1.24537e-06
5.39606e-07
1.24714e-06
5.57893e-07
1.24135e-06
2.1162e-07
1.24174e-06
1.24048e-07
1.2282e-06
-1.44065e-07
1.22621e-06
-1.99642e-07
1.21115e-06
-2.72928e-07
1.21044e-06
-3.16423e-07
1.19962e-06
-2.25228e-07
1.19683e-06
-3.18858e-07
1.19165e-06
-1.31424e-07
-2.04945e-07
1.18532e-06
1.25288e-06
-5.41483e-07
1.28284e-06
-1.50759e-06
1.31007e-06
9.21362e-07
1.30474e-06
9.65899e-07
1.2812e-06
-2.08575e-07
1.27443e-06
-5.80777e-07
1.26549e-06
-7.14626e-07
1.28429e-06
1.40253e-07
1.29116e-06
5.32735e-07
1.2944e-06
5.54649e-07
1.28799e-06
2.18029e-07
1.28951e-06
1.22527e-07
1.27553e-06
-1.30077e-07
1.27432e-06
-1.98438e-07
1.25905e-06
-2.57652e-07
1.25768e-06
-3.15052e-07
1.24683e-06
-2.14377e-07
1.24208e-06
-3.14113e-07
1.23699e-06
-1.26329e-07
-1.97256e-07
1.2293e-06
1.30313e-06
-5.34335e-07
1.31933e-06
-1.52379e-06
1.34575e-06
8.94943e-07
1.35016e-06
9.61483e-07
1.32816e-06
-1.86572e-07
1.32088e-06
-5.73494e-07
1.30871e-06
-7.02457e-07
1.32501e-06
1.23955e-07
1.33475e-06
5.22991e-07
1.34016e-06
5.49237e-07
1.33391e-06
2.24284e-07
1.33725e-06
1.19183e-07
1.32359e-06
-1.16419e-07
1.32329e-06
-1.98135e-07
1.3084e-06
-2.42757e-07
1.30627e-06
-3.12932e-07
1.29587e-06
-2.0397e-07
1.28927e-06
-3.07516e-07
1.2844e-06
-1.21457e-07
-1.88413e-07
1.27556e-06
1.35556e-06
-5.29878e-07
1.35907e-06
-1.52729e-06
1.38226e-06
8.71753e-07
1.39479e-06
9.48948e-07
1.37663e-06
-1.6841e-07
1.36989e-06
-5.6676e-07
1.35391e-06
-6.86473e-07
1.36716e-06
1.10701e-07
1.37735e-06
5.12805e-07
1.38502e-06
5.4156e-07
1.37984e-06
2.29473e-07
1.38552e-06
1.13498e-07
1.37285e-06
-1.03743e-07
1.37339e-06
-1.98679e-07
1.35931e-06
-2.28683e-07
1.3563e-06
-3.09917e-07
1.34666e-06
-1.94333e-07
1.33838e-06
-2.99231e-07
1.33379e-06
-1.16871e-07
-1.78712e-07
1.32409e-06
1.40971e-06
-5.27938e-07
1.40236e-06
-1.51994e-06
1.42134e-06
8.52773e-07
1.44023e-06
9.30064e-07
1.42656e-06
-1.54746e-07
1.42134e-06
-5.61538e-07
1.40151e-06
-6.6664e-07
1.41124e-06
1.00965e-07
1.42055e-06
5.03498e-07
1.4304e-06
5.31712e-07
1.42684e-06
2.33028e-07
1.43506e-06
1.05278e-07
1.42377e-06
-9.24441e-08
1.42495e-06
-1.99863e-07
1.41194e-06
-2.15672e-07
1.40788e-06
-3.05858e-07
1.39916e-06
-1.85609e-07
1.3894e-06
-2.89475e-07
1.38507e-06
-1.12537e-07
-1.68474e-07
1.37483e-06
1.46529e-06
-5.2798e-07
1.44934e-06
-1.50399e-06
1.46431e-06
8.37801e-07
1.4877e-06
9.06678e-07
1.47812e-06
-1.45172e-07
1.47491e-06
-5.58325e-07
1.45179e-06
-6.43518e-07
1.45809e-06
9.46647e-08
1.46594e-06
4.95652e-07
1.47775e-06
5.19899e-07
1.47593e-06
2.34847e-07
1.48651e-06
9.47019e-08
1.47674e-06
-8.26732e-08
1.47826e-06
-2.01383e-07
1.4664e-06
-2.0382e-07
1.46118e-06
-3.00637e-07
1.45337e-06
-1.77795e-07
1.44238e-06
-2.78488e-07
1.4382e-06
-1.0836e-07
-1.57968e-07
1.4277e-06
1.5222e-06
-5.29302e-07
1.49992e-06
-1.48171e-06
1.51174e-06
8.25984e-07
1.5379e-06
8.8051e-07
1.53155e-06
-1.38824e-07
1.5304e-06
-5.57166e-07
1.50482e-06
-6.17946e-07
1.50835e-06
9.11378e-08
1.51465e-06
4.89356e-07
1.52811e-06
5.06437e-07
1.52778e-06
2.35175e-07
1.54024e-06
8.22426e-08
1.53199e-06
-7.44295e-08
1.5335e-06
-2.02891e-07
1.52283e-06
-1.93149e-07
1.51639e-06
-2.94196e-07
1.50937e-06
-1.70777e-07
1.49739e-06
-2.66505e-07
1.49326e-06
-1.0423e-07
-1.47375e-07
1.48267e-06
1.58051e-06
-5.31198e-07
1.55394e-06
-1.45514e-06
1.5636e-06
8.16321e-07
1.59113e-06
8.52981e-07
1.58712e-06
-1.34812e-07
1.5878e-06
-5.57853e-07
1.56056e-06
-5.90706e-07
1.56224e-06
8.94615e-08
1.56722e-06
4.8438e-07
1.58195e-06
4.91699e-07
1.58273e-06
2.34402e-07
1.59644e-06
6.8533e-08
1.58966e-06
-6.76553e-08
1.59081e-06
-2.04043e-07
1.58132e-06
-1.83657e-07
1.57368e-06
-2.86554e-07
1.56729e-06
-1.64392e-07
1.55454e-06
-2.53747e-07
1.55035e-06
-1.00046e-07
-1.36794e-07
1.53977e-06
1.64039e-06
-5.33042e-07
1.61124e-06
-1.42599e-06
1.61962e-06
8.07939e-07
1.64746e-06
8.25145e-07
1.64505e-06
-1.32402e-07
1.64733e-06
-5.60135e-07
1.61899e-06
-5.62367e-07
1.61964e-06
8.88119e-08
1.6237e-06
4.80314e-07
1.63937e-06
4.76033e-07
1.64089e-06
2.32888e-07
1.65516e-06
5.42568e-08
1.64979e-06
-6.22869e-08
1.65027e-06
-2.04524e-07
1.64194e-06
-1.75319e-07
1.6332e-06
-2.77813e-07
1.62727e-06
-1.58465e-07
1.61395e-06
-2.40424e-07
1.60963e-06
-9.57273e-08
-1.2627e-07
1.5991e-06
1.70205e-06
-5.34343e-07
1.67177e-06
-1.39571e-06
1.67954e-06
8.00171e-07
1.70694e-06
7.97743e-07
1.70554e-06
-1.31001e-07
1.70924e-06
-5.6384e-07
1.68018e-06
-5.33301e-07
1.68032e-06
8.86685e-08
1.68394e-06
4.76694e-07
1.70025e-06
4.59723e-07
1.70227e-06
2.30871e-07
1.71643e-06
4.00934e-08
1.71241e-06
-5.82658e-08
1.71196e-06
-2.0407e-07
1.70471e-06
-1.6807e-07
1.69505e-06
-2.68153e-07
1.68943e-06
-1.52847e-07
1.67572e-06
-2.26716e-07
1.67123e-06
-9.1241e-08
-1.15828e-07
1.66079e-06
1.76574e-06
-5.34765e-07
1.73552e-06
-1.3655e-06
1.74317e-06
7.92527e-07
1.76962e-06
7.71293e-07
1.76872e-06
-1.30106e-07
1.77378e-06
-5.689e-07
1.74427e-06
-5.03789e-07
1.7441e-06
8.8834e-08
1.74771e-06
4.7309e-07
1.76442e-06
4.43012e-07
1.76685e-06
2.28441e-07
1.78025e-06
2.6695e-08
1.77752e-06
-5.55344e-08
1.77593e-06
-2.0248e-07
1.76967e-06
-1.61814e-07
1.7593e-06
-2.57779e-07
1.75387e-06
-1.47424e-07
1.73995e-06
-2.12795e-07
1.7353e-06
-8.65854e-08
-1.05505e-07
1.72497e-06
1.83171e-06
-5.34136e-07
1.8025e-06
-1.33629e-06
1.81036e-06
7.84666e-07
1.83549e-06
7.46162e-07
1.83466e-06
-1.29275e-07
1.84107e-06
-5.75315e-07
1.81141e-06
-4.74125e-07
1.8109e-06
8.93405e-08
1.81481e-06
4.69181e-07
1.83168e-06
4.26146e-07
1.83457e-06
2.25549e-07
1.84661e-06
1.46597e-08
1.8451e-06
-5.40292e-08
1.84227e-06
-1.99643e-07
1.83687e-06
-1.56423e-07
1.82599e-06
-2.46893e-07
1.82068e-06
-1.42113e-07
1.80671e-06
-1.9883e-07
1.80191e-06
-8.17837e-08
-9.53617e-08
1.79177e-06
1.9002e-06
-5.32432e-07
1.87261e-06
-1.3087e-06
1.88089e-06
7.76384e-07
1.90448e-06
7.22569e-07
1.90336e-06
-1.28159e-07
1.91112e-06
-5.83073e-07
1.88165e-06
-4.44654e-07
1.88067e-06
9.03217e-08
1.88508e-06
4.64768e-07
1.9018e-06
4.09425e-07
1.90534e-06
2.22014e-07
1.91553e-06
4.47332e-09
1.91515e-06
-5.36554e-08
1.91107e-06
-1.95564e-07
1.90639e-06
-1.51736e-07
1.89517e-06
-2.35679e-07
1.88992e-06
-1.36856e-07
1.87606e-06
-1.84977e-07
1.87115e-06
-7.68722e-08
-8.54833e-08
1.86127e-06
1.97141e-06
-5.29742e-07
1.94569e-06
-1.28297e-06
1.95446e-06
7.67614e-07
1.97646e-06
7.00564e-07
1.97484e-06
-1.2654e-07
1.98384e-06
-5.92071e-07
1.95494e-06
-4.15751e-07
1.95336e-06
9.19008e-08
1.95838e-06
4.59749e-07
1.97459e-06
3.93211e-07
1.97905e-06
2.17554e-07
1.98705e-06
-3.5298e-09
1.98767e-06
-5.42668e-08
1.98246e-06
-1.90354e-07
1.9783e-06
-1.47577e-07
1.96692e-06
-2.24307e-07
1.96169e-06
-1.3162e-07
1.94807e-06
-1.71362e-07
1.9431e-06
-7.18979e-08
-7.59649e-08
1.93358e-06
2.04552e-06
-5.26208e-07
2.02156e-06
-1.25902e-06
2.03077e-06
7.58405e-07
2.05133e-06
6.80004e-07
2.04914e-06
-1.24349e-07
2.05911e-06
-6.02039e-07
2.03113e-06
-3.87777e-07
2.02892e-06
9.41145e-08
2.03463e-06
4.54039e-07
2.04992e-06
3.77921e-07
2.05561e-06
2.11863e-07
2.06127e-06
-9.19351e-09
2.06268e-06
-5.5678e-08
2.05654e-06
-1.84212e-07
2.05272e-06
-1.43752e-07
2.04135e-06
-2.12937e-07
2.03611e-06
-1.2638e-07
2.02283e-06
-1.58086e-07
2.01784e-06
-6.69054e-08
-6.6899e-08
2.00877e-06
2.1226e-06
-5.21973e-07
2.10011e-06
-1.23652e-06
2.10965e-06
7.48865e-07
2.12908e-06
6.6057e-07
2.12636e-06
-1.21628e-07
2.13683e-06
-6.12514e-07
2.1101e-06
-3.61047e-07
2.10733e-06
9.68841e-08
2.11389e-06
4.47487e-07
2.12782e-06
3.63987e-07
2.13491e-06
2.04774e-07
2.13831e-06
-1.25963e-08
2.14031e-06
-5.76767e-08
2.13348e-06
-1.77386e-07
2.12981e-06
-1.40073e-07
2.11856e-06
-2.0169e-07
2.11332e-06
-1.21138e-07
2.10045e-06
-1.45222e-07
2.09547e-06
-6.19286e-08
-5.83669e-08
2.08694e-06
2.20275e-06
-5.17135e-07
2.1813e-06
-1.21507e-06
2.19107e-06
7.39089e-07
2.20982e-06
6.41826e-07
2.20667e-06
-1.18476e-07
2.217e-06
-6.2285e-07
2.19177e-06
-3.35816e-07
2.18862e-06
1.00032e-07
2.19629e-06
4.3982e-07
2.20848e-06
3.51801e-07
2.21702e-06
1.96232e-07
2.21834e-06
-1.39184e-08
2.22069e-06
-6.00239e-08
2.21345e-06
-1.70145e-07
2.20973e-06
-1.36355e-07
2.19867e-06
-1.90634e-07
2.19346e-06
-1.1592e-07
2.18104e-06
-1.32803e-07
2.17612e-06
-5.70108e-08
-5.04277e-08
2.16818e-06
2.28599e-06
-5.11733e-07
2.26521e-06
-1.19429e-06
2.2752e-06
7.29102e-07
2.29373e-06
6.23295e-07
2.29025e-06
-1.14997e-07
2.29968e-06
-6.32278e-07
2.27616e-06
-3.12295e-07
2.27286e-06
1.03336e-07
2.282e-06
4.30679e-07
2.29221e-06
3.41587e-07
2.30209e-06
1.86357e-07
2.30157e-06
-1.33997e-08
2.30398e-06
-6.24383e-08
2.29659e-06
-1.6275e-07
2.29268e-06
-1.32451e-07
2.28182e-06
-1.79773e-07
2.27663e-06
-1.10728e-07
2.26466e-06
-1.20836e-07
2.25989e-06
-5.22429e-08
-4.31078e-08
2.25257e-06
2.37241e-06
-5.05755e-07
2.35199e-06
-1.17388e-06
2.36226e-06
7.18836e-07
2.38103e-06
6.04528e-07
2.3773e-06
-1.11268e-07
2.38501e-06
-6.3999e-07
2.36339e-06
-2.90675e-07
2.36013e-06
1.0659e-07
2.37107e-06
4.19744e-07
2.37934e-06
3.33318e-07
2.39026e-06
1.7544e-07
2.3882e-06
-1.13438e-08
2.39037e-06
-6.46114e-08
2.38304e-06
-1.55416e-07
2.37883e-06
-1.28245e-07
2.36818e-06
-1.69115e-07
2.3628e-06
-1.05349e-07
2.35125e-06
-1.09287e-07
2.34694e-06
-4.79322e-08
-3.63671e-08
2.3402e-06
2.46208e-06
-4.99153e-07
2.4418e-06
-1.1536e-06
2.4525e-06
7.08136e-07
2.47187e-06
5.85153e-07
2.46796e-06
-1.07354e-07
2.4732e-06
-6.45228e-07
2.45365e-06
-2.71123e-07
2.45057e-06
1.09667e-07
2.46355e-06
4.06763e-07
2.47004e-06
3.26827e-07
2.48164e-06
1.63838e-07
2.47842e-06
-8.11896e-09
2.48004e-06
-6.62288e-08
2.47296e-06
-1.48337e-07
2.46827e-06
-1.23562e-07
2.45797e-06
-1.58815e-07
2.45165e-06
-9.90249e-08
2.44054e-06
-9.81798e-08
2.4374e-06
-4.47857e-08
-3.00708e-08
2.4311e-06
2.55511e-06
-4.91868e-07
2.53482e-06
-1.1333e-06
2.54615e-06
6.968e-07
2.56639e-06
5.64912e-07
2.56237e-06
-1.03327e-07
2.5645e-06
-6.47358e-07
2.54717e-06
-2.53799e-07
2.54426e-06
1.12575e-07
2.55943e-06
3.91598e-07
2.56442e-06
3.2184e-07
2.57632e-06
1.5193e-07
2.57235e-06
-4.1497e-09
2.57313e-06
-6.70032e-08
2.56641e-06
-1.41619e-07
2.56118e-06
-1.18331e-07
2.55127e-06
-1.48905e-07
2.54935e-06
-9.71062e-08
2.54085e-06
-8.96798e-08
2.53143e-06
-3.53673e-08
-2.40687e-08
2.52543e-06
2.65166e-06
-4.83848e-07
2.63122e-06
-1.11287e-06
2.6434e-06
6.84619e-07
2.66463e-06
5.43681e-07
2.66061e-06
-9.93011e-08
2.65916e-06
-6.45913e-07
2.6442e-06
-2.38835e-07
2.64134e-06
1.15438e-07
2.65867e-06
3.74264e-07
2.66251e-06
3.18001e-07
2.67434e-06
1.40102e-07
2.67012e-06
6.50522e-11
2.6698e-06
-6.6684e-08
2.66344e-06
-1.35255e-07
2.65832e-06
-1.13212e-07
2.64636e-06
-1.36942e-07
2.63993e-06
-9.06768e-08
2.63056e-06
-8.03113e-08
2.62856e-06
-3.33714e-08
-1.88568e-08
2.62335e-06
2.75187e-06
-4.75065e-07
2.73121e-06
-1.09221e-06
2.74442e-06
6.71413e-07
2.76663e-06
5.21475e-07
2.76274e-06
-9.54175e-08
2.75748e-06
-6.40648e-07
2.74493e-06
-2.26285e-07
2.74194e-06
1.1842e-07
2.76123e-06
3.54977e-07
2.76443e-06
3.14803e-07
2.77565e-06
1.28885e-07
2.77196e-06
3.75211e-09
2.77e-06
-6.47218e-08
2.76451e-06
-1.29765e-07
2.75908e-06
-1.07788e-07
2.74609e-06
-1.23947e-07
2.73872e-06
-8.33066e-08
2.72979e-06
-7.13852e-08
2.7298e-06
-3.33769e-08
-1.38014e-08
2.72474e-06
2.85591e-06
-4.65518e-07
2.83499e-06
-1.07129e-06
2.84935e-06
6.57053e-07
2.87237e-06
4.98456e-07
2.86883e-06
-9.18771e-08
2.85968e-06
-6.31496e-07
2.84954e-06
-2.16149e-07
2.84627e-06
1.21692e-07
2.86714e-06
3.34106e-07
2.87028e-06
3.11667e-07
2.88031e-06
1.18849e-07
2.87801e-06
6.05333e-09
2.87383e-06
-6.05425e-08
2.86947e-06
-1.25405e-07
2.86506e-06
-1.03379e-07
2.85907e-06
-1.17952e-07
2.85674e-06
-8.09792e-08
2.8492e-06
-6.3842e-08
2.8356e-06
-1.97821e-08
-7.92341e-09
2.82972e-06
2.96397e-06
-4.55244e-07
2.94276e-06
-1.05007e-06
2.95834e-06
6.4147e-07
2.9819e-06
4.74899e-07
2.97892e-06
-8.88981e-08
2.96602e-06
-6.18594e-07
2.95824e-06
-2.08371e-07
2.95451e-06
1.25417e-07
2.97653e-06
3.12087e-07
2.9801e-06
3.08099e-07
2.98862e-06
1.10324e-07
2.98808e-06
6.60285e-09
2.98197e-06
-5.44416e-08
2.97808e-06
-1.2151e-07
2.96909e-06
-9.43877e-08
2.95752e-06
-1.0638e-07
2.94774e-06
-7.12002e-08
2.94072e-06
-5.68295e-08
2.94351e-06
-2.25639e-08
-3.42742e-09
2.93901e-06
3.07621e-06
-4.44299e-07
3.05473e-06
-1.02859e-06
3.07155e-06
6.24657e-07
3.09528e-06
4.51163e-07
3.09308e-06
-8.66999e-08
3.07675e-06
-6.02258e-07
3.07115e-06
-2.02777e-07
3.06692e-06
1.2965e-07
3.08963e-06
2.89381e-07
3.09394e-06
3.03785e-07
3.10098e-06
1.03291e-07
3.10177e-06
5.80504e-09
3.09491e-06
-4.75773e-08
3.09144e-06
-1.18038e-07
3.08801e-06
-9.09639e-08
3.085e-06
-1.0337e-07
3.08159e-06
-6.7784e-08
3.07365e-06
-4.88909e-08
3.05789e-06
-6.80436e-09
2.75324e-09
3.05171e-06
3.19283e-06
-4.3277e-07
3.17111e-06
-1.00687e-06
3.18914e-06
6.06625e-07
3.21261e-06
4.27698e-07
3.21146e-06
-8.55516e-08
3.19199e-06
-5.82789e-07
3.18851e-06
-1.99297e-07
3.18366e-06
1.345e-07
3.20671e-06
2.66334e-07
3.2119e-06
2.98589e-07
3.21786e-06
9.73301e-08
3.21825e-06
5.41783e-09
3.21419e-06
-4.35157e-08
3.20729e-06
-1.11139e-07
3.20459e-06
-8.82645e-08
3.18535e-06
-8.41273e-08
3.17618e-06
-5.86182e-08
3.16988e-06
-4.2585e-08
3.17268e-06
-9.61292e-09
5.67371e-09
3.16976e-06
3.31399e-06
-4.2075e-07
3.2921e-06
-9.84979e-07
3.31128e-06
5.87448e-07
3.33407e-06
4.049e-07
3.3341e-06
-8.55721e-08
3.31199e-06
-5.60682e-07
3.31027e-06
-1.97576e-07
3.3052e-06
1.39565e-07
3.32768e-06
2.4386e-07
3.33488e-06
2.9139e-07
3.3385e-06
9.37089e-08
3.34032e-06
3.59252e-09
3.33619e-06
-3.93842e-08
3.32251e-06
-9.74627e-08
3.31511e-06
-8.08572e-08
3.30472e-06
-7.37366e-08
3.29596e-06
-4.98576e-08
3.28992e-06
-3.65496e-08
3.29407e-06
-1.37594e-08
8.31132e-09
3.29143e-06
3.43987e-06
-4.08341e-07
3.41788e-06
-9.62982e-07
3.43811e-06
5.67211e-07
3.4599e-06
3.8311e-07
3.46108e-06
-8.67526e-08
3.43692e-06
-5.36519e-07
3.43648e-06
-1.97136e-07
3.43182e-06
1.44227e-07
3.45274e-06
2.22941e-07
3.46327e-06
2.80857e-07
3.46282e-06
9.41599e-08
3.46776e-06
-1.34518e-09
3.4586e-06
-3.02279e-08
3.46042e-06
-9.92846e-08
3.45726e-06
-7.76963e-08
3.45552e-06
-7.19898e-08
3.45134e-06
-4.56853e-08
3.44313e-06
-2.83332e-08
3.42322e-06
6.15166e-09
1.48555e-08
3.41667e-06
3.57065e-06
-3.95643e-07
3.54857e-06
-9.40899e-07
3.56991e-06
5.45864e-07
3.5902e-06
3.62822e-07
3.59279e-06
-8.93404e-08
3.56664e-06
-5.10368e-07
3.56771e-06
-1.98205e-07
3.56301e-06
1.48922e-07
3.58324e-06
2.02709e-07
3.59446e-06
2.69646e-07
3.59529e-06
9.33225e-08
3.59568e-06
-1.72777e-09
3.59122e-06
-2.57685e-08
3.57767e-06
-8.57422e-08
3.57006e-06
-7.00851e-08
3.55838e-06
-6.03063e-08
3.55091e-06
-3.82179e-08
3.54552e-06
-2.29443e-08
3.55027e-06
1.40619e-09
1.61742e-08
3.54895e-06
3.70647e-06
-3.82724e-07
3.68436e-06
-9.18791e-07
3.70676e-06
5.23461e-07
3.72537e-06
3.44208e-07
3.72913e-06
-9.30957e-08
3.70169e-06
-4.82928e-07
3.70358e-06
-2.00093e-07
3.69982e-06
1.52684e-07
3.71802e-06
1.84508e-07
3.73167e-06
2.55993e-07
3.73143e-06
9.35658e-08
3.73252e-06
-2.82552e-09
3.73189e-06
-2.5137e-08
3.71289e-06
-6.67384e-08
3.7046e-06
-6.17934e-08
3.69302e-06
-4.87273e-08
3.68531e-06
-3.05097e-08
3.68e-06
-1.76333e-08
3.68581e-06
-4.40666e-09
1.69503e-08
3.68504e-06
3.84751e-06
-3.69646e-07
3.8254e-06
-8.9668e-07
3.84881e-06
5.00049e-07
3.86573e-06
3.27294e-07
3.87028e-06
-9.76464e-08
3.84242e-06
-4.55068e-07
3.84402e-06
-2.01698e-07
3.8428e-06
1.53909e-07
3.85675e-06
1.70551e-07
3.87541e-06
2.37335e-07
3.86818e-06
1.00799e-07
3.8725e-06
-7.15138e-09
3.86335e-06
-1.59846e-08
3.87232e-06
-7.57101e-08
3.86989e-06
-5.93564e-08
3.86954e-06
-4.8385e-08
3.86491e-06
-2.58755e-08
3.85635e-06
-9.07481e-09
3.8318e-06
2.01456e-08
2.42328e-08
3.82452e-06
3.99398e-06
-3.56475e-07
3.97176e-06
-8.74457e-07
3.99642e-06
4.75393e-07
4.01122e-06
3.12493e-07
4.01696e-06
-1.0339e-07
3.98816e-06
-4.26272e-07
3.99075e-06
-2.04285e-07
3.98917e-06
1.55492e-07
4.00429e-06
1.55426e-07
4.01934e-06
2.22285e-07
4.02167e-06
9.84717e-08
4.02284e-06
-8.31741e-09
4.0233e-06
-1.64438e-08
3.99884e-06
-5.12515e-08
3.989e-06
-4.95195e-08
3.97825e-06
-3.76313e-08
3.97145e-06
-1.90742e-08
3.96634e-06
-3.96859e-09
3.9733e-06
1.31829e-08
2.48451e-08
3.97269e-06
4.14603e-06
-3.43227e-07
4.12371e-06
-8.5213e-07
4.14948e-06
4.49622e-07
4.16249e-06
2.99484e-07
4.16882e-06
-1.09721e-07
4.14013e-06
-3.97582e-07
4.1423e-06
-2.06455e-07
4.14226e-06
1.55527e-07
4.15598e-06
1.41705e-07
4.17074e-06
2.07532e-07
4.1745e-06
9.47138e-08
4.1614e-06
4.77647e-09
4.15848e-06
-1.35217e-08
4.14826e-06
-4.10332e-08
4.14018e-06
-4.14377e-08
4.1288e-06
-2.62503e-08
4.12268e-06
-1.29601e-08
4.11732e-06
1.39973e-09
4.12508e-06
5.41895e-09
2.5034e-08
4.12489e-06
4.30389e-06
-3.29927e-07
4.28145e-06
-8.29694e-07
4.30814e-06
4.22937e-07
4.31984e-06
2.87783e-07
4.32593e-06
-1.15813e-07
4.29886e-06
-3.70517e-07
4.29802e-06
-2.0561e-07
4.30332e-06
1.5023e-07
4.31025e-06
1.34769e-07
4.33139e-06
1.86397e-07
4.32315e-06
1.02953e-07
4.33608e-06
-8.15431e-09
4.33621e-06
-1.36503e-08
4.33532e-06
-4.01499e-08
4.33158e-06
-3.76926e-08
4.33303e-06
-2.76964e-08
4.32756e-06
-7.49461e-09
4.31937e-06
9.58828e-09
4.28981e-06
3.49841e-08
3.42798e-08
4.28056e-06
4.4678e-06
-3.16643e-07
4.44499e-06
-8.0688e-07
4.47296e-06
3.94963e-07
4.48282e-06
2.77927e-07
4.48968e-06
-1.22677e-07
4.4623e-06
-3.43136e-07
4.46322e-06
-2.06529e-07
4.46459e-06
1.48856e-07
4.47774e-06
1.21622e-07
4.49079e-06
1.73348e-07
4.49639e-06
9.73522e-08
4.48096e-06
7.27596e-09
4.478e-06
-1.06911e-08
4.46726e-06
-2.94155e-08
4.45982e-06
-3.0246e-08
4.44844e-06
-1.6318e-08
4.44309e-06
-2.1483e-09
4.43868e-06
1.40056e-08
4.44741e-06
2.62466e-08
3.52499e-08
4.44644e-06
4.63793e-06
-3.03361e-07
4.61483e-06
-7.83788e-07
4.64363e-06
3.6617e-07
4.65256e-06
2.68994e-07
4.6588e-06
-1.28921e-07
4.63346e-06
-3.17788e-07
4.63204e-06
-2.05111e-07
4.63531e-06
1.45583e-07
4.64749e-06
1.09445e-07
4.65743e-06
1.63406e-07
4.66146e-06
9.33189e-08
4.6483e-06
2.04371e-08
4.64663e-06
-9.01781e-09
4.63644e-06
-1.92252e-08
4.6292e-06
-2.30074e-08
4.61793e-06
-5.04196e-09
4.61218e-06
3.60055e-09
4.6079e-06
1.82776e-08
4.61733e-06
1.68177e-08
3.60194e-08
4.61656e-06
4.81453e-06
-2.90102e-07
4.79121e-06
-7.60472e-07
4.8204e-06
3.36977e-07
4.82933e-06
2.60073e-07
4.83317e-06
-1.32766e-07
4.81452e-06
-2.99133e-07
4.80354e-06
-1.94139e-07
4.8177e-06
1.31425e-07
4.81609e-06
1.11055e-07
4.84245e-06
1.37051e-07
4.83514e-06
1.00624e-07
4.8478e-06
7.77669e-09
4.84963e-06
-1.08484e-08
4.85223e-06
-2.18282e-08
4.84886e-06
-1.963e-08
4.85194e-06
-8.1281e-09
4.84715e-06
8.39097e-09
4.836e-06
2.94315e-08
4.80265e-06
5.01701e-08
4.81306e-08
4.79054e-06
4.99793e-06
-2.76963e-07
4.974e-06
-7.36535e-07
5.00416e-06
3.0681e-07
5.01202e-06
2.52214e-07
5.01619e-06
-1.36933e-07
4.99645e-06
-2.7939e-07
4.98917e-06
-1.86864e-07
4.99739e-06
1.23206e-07
4.99987e-06
1.0858e-07
5.01487e-06
1.22043e-07
5.01473e-06
1.0077e-07
5.00506e-06
1.74455e-08
5.0011e-06
-6.89103e-09
4.99564e-06
-1.63651e-08
4.98719e-06
-1.11821e-08
4.978e-06
1.06753e-09
4.96998e-06
1.64075e-08
4.96813e-06
3.12831e-08
4.97726e-06
4.10387e-08
4.91467e-08
4.97624e-06
5.18825e-06
-2.63901e-07
5.16412e-06
-7.12409e-07
5.19433e-06
2.766e-07
5.20241e-06
2.44136e-07
5.20531e-06
-1.3983e-07
5.18622e-06
-2.60298e-07
5.18189e-06
-1.82533e-07
5.18447e-06
1.20621e-07
5.19267e-06
1.00382e-07
5.20063e-06
1.14084e-07
5.20442e-06
9.69725e-08
5.19333e-06
2.8542e-08
5.19067e-06
-4.22839e-09
5.18308e-06
-8.78423e-09
5.17774e-06
-5.83607e-09
5.16833e-06
1.04808e-08
5.16641e-06
1.83249e-08
5.16421e-06
3.34848e-08
5.16578e-06
3.94661e-08
4.83286e-08
5.1666e-06
5.38585e-06
-2.50973e-07
5.36154e-06
-6.88103e-07
5.39145e-06
2.46696e-07
5.40071e-06
2.34871e-07
5.40017e-06
-1.39292e-07
5.38531e-06
-2.45433e-07
5.37778e-06
-1.75002e-07
5.38261e-06
1.15787e-07
5.38476e-06
9.82372e-08
5.39619e-06
1.02653e-07
5.39934e-06
9.38226e-08
5.39029e-06
3.75956e-08
5.38586e-06
1.93164e-10
5.37956e-06
-2.48433e-09
5.37434e-06
-6.10876e-10
5.36784e-06
1.6981e-08
5.36498e-06
2.11844e-08
5.36441e-06
3.40549e-08
5.36297e-06
4.09068e-08
4.74454e-08
5.36385e-06
5.59099e-06
-2.38222e-07
5.56648e-06
-6.63594e-07
5.59601e-06
2.17166e-07
5.60663e-06
2.24245e-07
5.60317e-06
-1.35826e-07
5.59002e-06
-2.32286e-07
5.58212e-06
-1.67102e-07
5.58764e-06
1.10271e-07
5.58798e-06
9.78971e-08
5.59871e-06
9.19156e-08
5.60227e-06
9.02634e-08
5.59472e-06
4.51539e-08
5.5889e-06
6.00938e-09
5.58356e-06
2.85638e-09
5.57865e-06
4.29404e-09
5.57367e-06
2.19635e-08
5.56878e-06
2.60754e-08
5.56642e-06
3.64151e-08
5.56774e-06
3.95908e-08
4.64438e-08
5.56874e-06
5.80389e-06
-2.25631e-07
5.77959e-06
-6.39292e-07
5.80804e-06
1.88718e-07
5.82132e-06
2.10956e-07
5.81432e-06
-1.28819e-07
5.80229e-06
-2.20258e-07
5.79369e-06
-1.58502e-07
5.80035e-06
1.0361e-07
5.79941e-06
9.88353e-08
5.80888e-06
8.24485e-08
5.81316e-06
8.5985e-08
5.80679e-06
5.15182e-08
5.80011e-06
1.26888e-08
5.79522e-06
7.74792e-09
5.79065e-06
8.86453e-09
5.78699e-06
2.56248e-08
5.78332e-06
2.97466e-08
5.78332e-06
3.64136e-08
5.78041e-06
4.25047e-08
4.54921e-08
5.78136e-06
6.02491e-06
-2.13246e-07
6.00085e-06
-6.15234e-07
6.02808e-06
1.61491e-07
6.04373e-06
1.95309e-07
6.03447e-06
-1.19559e-07
6.02168e-06
-2.07474e-07
6.01325e-06
-1.50068e-07
6.02081e-06
9.60471e-08
6.01946e-06
1.00185e-07
6.02706e-06
7.48495e-08
6.03216e-06
8.08848e-08
6.02673e-06
5.69541e-08
6.01975e-06
1.96662e-08
6.01507e-06
1.2427e-08
6.01078e-06
1.31541e-08
6.00785e-06
2.85512e-08
6.00253e-06
3.50667e-08
5.99911e-06
3.98414e-08
6.00103e-06
4.05765e-08
4.43436e-08
6.00218e-06
6.25431e-06
-2.01056e-07
6.23067e-06
-5.9159e-07
6.2565e-06
1.35662e-07
6.27361e-06
1.78195e-07
6.26343e-06
-1.09378e-07
6.24959e-06
-1.93639e-07
6.24133e-06
-1.41803e-07
6.2494e-06
8.79821e-08
6.24815e-06
1.0143e-07
6.25369e-06
6.93139e-08
6.25945e-06
7.51222e-08
6.25504e-06
6.1359e-08
6.24804e-06
2.66694e-08
6.24337e-06
1.7102e-08
6.23903e-06
1.74932e-08
6.23699e-06
3.05916e-08
6.23392e-06
3.8136e-08
6.23379e-06
3.99675e-08
6.23037e-06
4.39988e-08
4.35345e-08
6.23118e-06
6.49246e-06
-1.89108e-07
6.46922e-06
-5.68358e-07
6.49359e-06
1.11293e-07
6.51152e-06
1.60265e-07
6.50164e-06
-9.94937e-08
6.48663e-06
-1.78634e-07
6.47828e-06
-1.33455e-07
6.48656e-06
7.97085e-08
6.48582e-06
1.02171e-07
6.48921e-06
6.59229e-08
6.49525e-06
6.90758e-08
6.49198e-06
6.4636e-08
6.48507e-06
3.35721e-08
6.48044e-06
2.17406e-08
6.47613e-06
2.1798e-08
6.47445e-06
3.22757e-08
6.47026e-06
4.23222e-08
6.46694e-06
4.32878e-08
6.46828e-06
4.26552e-08
4.2796e-08
6.46902e-06
6.73962e-06
-1.77385e-07
6.71682e-06
-5.45563e-07
6.73987e-06
8.82424e-08
6.75807e-06
1.42069e-07
6.7491e-06
-9.05299e-08
6.73341e-06
-1.62943e-07
6.7246e-06
-1.24642e-07
6.73264e-06
7.16678e-08
6.73254e-06
1.0227e-07
6.734e-06
6.44646e-08
6.73986e-06
6.32188e-08
6.73805e-06
6.64449e-08
6.7313e-06
4.03239e-08
6.7267e-06
2.63386e-08
6.72222e-06
2.62738e-08
6.72096e-06
3.3538e-08
6.71923e-06
4.40512e-08
6.71902e-06
4.34964e-08
6.71552e-06
4.61634e-08
4.26464e-08
6.71567e-06
6.9962e-06
-1.65931e-07
6.97374e-06
-5.23106e-07
6.9956e-06
6.63783e-08
7.01365e-06
1.24026e-07
7.00637e-06
-8.32567e-08
6.99022e-06
-1.46789e-07
6.98046e-06
-1.14884e-07
6.98807e-06
6.40588e-08
6.98876e-06
1.01578e-07
6.98859e-06
6.46308e-08
6.99372e-06
5.80896e-08
6.99333e-06
6.68392e-08
6.98684e-06
4.68152e-08
6.9824e-06
3.07788e-08
6.97792e-06
3.07478e-08
6.97669e-06
3.47716e-08
6.97414e-06
4.66009e-08
6.97122e-06
4.64125e-08
6.97201e-06
4.53778e-08
4.28016e-08
6.97185e-06
7.26249e-06
-1.54732e-07
7.24029e-06
-5.00901e-07
7.26133e-06
4.53357e-08
7.27884e-06
1.0651e-07
7.27623e-06
-8.0645e-08
7.25754e-06
-1.281e-07
7.24632e-06
-1.03663e-07
7.25323e-06
5.71488e-08
7.25458e-06
1.00229e-07
7.25325e-06
6.5966e-08
7.25722e-06
5.41123e-08
7.25831e-06
6.57581e-08
7.2523e-06
5.28241e-08
7.24799e-06
3.50901e-08
7.24353e-06
3.52043e-08
7.24212e-06
3.61807e-08
7.24146e-06
4.72623e-08
7.24152e-06
4.63488e-08
7.23841e-06
4.84885e-08
4.34975e-08
7.23772e-06
7.53891e-06
-1.43813e-07
7.51719e-06
-4.79179e-07
7.53689e-06
2.56392e-08
7.55418e-06
8.92149e-08
7.55533e-06
-8.17913e-08
7.53375e-06
-1.06518e-07
7.52261e-06
-9.25252e-08
7.52858e-06
5.11762e-08
7.53041e-06
9.84013e-08
7.52841e-06
6.79641e-08
7.53098e-06
5.15462e-08
7.53313e-06
6.3604e-08
7.5278e-06
5.81508e-08
7.52358e-06
3.93134e-08
7.51937e-06
3.9412e-08
7.5177e-06
3.78499e-08
7.51648e-06
4.84885e-08
7.51406e-06
4.87623e-08
7.51477e-06
4.77833e-08
4.4323e-08
7.51394e-06
7.82573e-06
-1.33087e-07
7.80524e-06
-4.58687e-07
7.82238e-06
8.50054e-09
7.84012e-06
7.14691e-08
7.83106e-06
-7.27248e-08
7.81805e-06
-9.35164e-08
7.81012e-06
-8.45946e-08
7.81448e-06
4.68186e-08
7.81658e-06
9.6306e-08
7.81442e-06
7.01236e-08
7.81542e-06
5.05382e-08
7.81826e-06
6.07651e-08
7.81395e-06
6.24612e-08
7.80974e-06
4.35254e-08
7.80584e-06
4.33108e-08
7.80386e-06
3.98339e-08
7.80379e-06
4.85568e-08
7.80406e-06
4.84877e-08
7.80174e-06
5.01058e-08
4.54158e-08
7.80065e-06
8.12349e-06
-1.22612e-07
8.1039e-06
-4.39101e-07
8.11811e-06
-5.7075e-09
8.13853e-06
5.10486e-08
8.14051e-06
-7.47117e-08
8.13534e-06
-8.83418e-08
8.11288e-06
-6.21355e-08
8.11069e-06
4.90053e-08
8.11345e-06
9.35511e-08
8.11155e-06
7.20205e-08
8.11097e-06
5.11228e-08
8.11409e-06
5.76434e-08
8.11096e-06
6.55896e-08
8.1068e-06
4.76833e-08
8.10339e-06
4.67214e-08
8.101e-06
4.22228e-08
8.10043e-06
4.91352e-08
8.09827e-06
5.06404e-08
8.09943e-06
4.8951e-08
4.64647e-08
8.09838e-06
8.43258e-06
-1.12434e-07
8.41279e-06
-4.19304e-07
8.42778e-06
-2.06981e-08
8.44439e-06
3.44402e-08
8.44432e-06
-7.4648e-08
8.42679e-06
-7.08099e-08
8.41608e-06
-5.14264e-08
8.4189e-06
4.61892e-08
8.4218e-06
9.06444e-08
8.42019e-06
7.36343e-08
8.41831e-06
5.30006e-08
8.42108e-06
5.48749e-08
8.41928e-06
6.7393e-08
8.41514e-06
5.18214e-08
8.41215e-06
4.97118e-08
8.40951e-06
4.48637e-08
8.40938e-06
4.92591e-08