/*--------------------------------*- C++ -*----------------------------------*\
| =========                 |                                                 |
| \\      /  F ield         | OpenFOAM: The Open Source CFD Toolbox           |
|  \\    /   O peration     | Version:  v2012                                 |
|   \\  /    A nd           | Website:  www.openfoam.com                      |
|    \\/     M anipulation  |                                                 |
\*---------------------------------------------------------------------------*/
FoamFile
{
    version     2.0;
    format      ascii;
    class       volVectorField;
    location    "10";
    object      U;
}
// * * * * * * * * * * * * * * * * * * * * * * * * * * * * * * * * * * * * * //

dimensions      [0 1 -1 0 0 0 0];


internalField   nonuniform List<vector> 
7000
(
(0.809636 -0.00499263 0)
(1.14688 -0.0079357 0)
(1.04873 0.0097261 0)
(1.09676 0.00470842 0)
(0.802215 1.823e-05 0)
(1.23117 -0.011383 0)
(0.743522 -0.00914996 0)
(1.28476 0.00547465 0)
(0.78336 0.00659833 0)
(1.1818 0.0159768 0)
(0.850982 0.0022174 0)
(1.10726 0.00555677 0)
(0.89508 -0.00825002 0)
(1.0825 -0.00741712 0)
(0.906655 -0.0155413 0)
(1.08475 -0.0148906 0)
(0.901679 -0.0156245 0)
(1.09729 -0.0192812 0)
(0.886306 -0.0119514 0)
(1.10805 -0.0182125 0)
(0.822018 -0.00487936 0)
(1.13902 -0.00896691 0)
(1.04962 0.00970109 0)
(1.09274 0.00635615 0)
(0.822987 -0.00139997 0)
(1.21117 -0.0105897 0)
(0.765338 -0.0101005 0)
(1.26682 0.00540589 0)
(0.814619 0.007178 0)
(1.15301 0.0156238 0)
(0.90113 0.00298853 0)
(1.07054 0.00515368 0)
(0.953567 -0.00787128 0)
(1.03793 -0.00752361 0)
(0.968921 -0.0154908 0)
(1.02619 -0.0148979 0)
(0.972316 -0.0156997 0)
(1.02197 -0.0193766 0)
(0.970465 -0.0115283 0)
(1.01641 -0.0189462 0)
(0.843005 -0.00481236 0)
(1.1232 -0.00991833 0)
(1.05192 0.00992989 0)
(1.08581 0.00775027 0)
(0.85835 -0.0023268 0)
(1.17991 -0.00987164 0)
(0.808902 -0.0109973 0)
(1.2275 0.00538332 0)
(0.872427 0.00810146 0)
(1.10421 0.0149649 0)
(0.957682 0.00384444 0)
(1.03217 0.0045331 0)
(0.99554 -0.00735118 0)
(1.00471 -0.00785104 0)
(0.999605 -0.01507 0)
(0.991201 -0.0151747 0)
(0.998644 -0.0154002 0)
(0.986512 -0.0194645 0)
(0.996976 -0.0114897 0)
(0.984767 -0.0181571 0)
(0.869773 -0.00475794 0)
(1.10014 -0.0107306 0)
(1.05527 0.0101347 0)
(1.0776 0.00881028 0)
(0.900513 -0.00297663 0)
(1.14118 -0.00935532 0)
(0.864537 -0.0116002 0)
(1.17321 0.00510385 0)
(0.934066 0.00916519 0)
(1.05851 0.0142101 0)
(0.995556 0.00454658 0)
(1.01136 0.00405941 0)
(1.0124 -0.00685055 0)
(0.993634 -0.00802484 0)
(1.00505 -0.0145533 0)
(0.98193 -0.015414 0)
(0.99923 -0.0149108 0)
(0.977837 -0.0198284 0)
(0.996714 -0.0110488 0)
(0.977456 -0.0177762 0)
(0.899225 -0.00469337 0)
(1.0728 -0.0114738 0)
(1.05828 0.0101998 0)
(1.06941 0.00965723 0)
(0.941769 -0.00336122 0)
(1.10092 -0.00902817 0)
(0.91789 -0.011932 0)
(1.11713 0.00459116 0)
(0.981541 0.0101634 0)
(1.03078 0.0136629 0)
(1.01411 0.00501818 0)
(1.0073 0.00383246 0)
(1.01605 -0.00642094 0)
(0.995542 -0.0080247 0)
(1.00282 -0.0140237 0)
(0.984059 -0.015541 0)
(0.994292 -0.0144374 0)
(0.978957 -0.0200866 0)
(0.990447 -0.0106044 0)
(0.977847 -0.0175682 0)
(0.928077 -0.00461631 0)
(1.04545 -0.0121436 0)
(1.05907 0.0101538 0)
(1.06185 0.0102956 0)
(0.976248 -0.00348701 0)
(1.06551 -0.0088442 0)
(0.958544 -0.012065 0)
(1.07096 0.00403894 0)
(1.00964 0.0109079 0)
(1.02128 0.0134092 0)
(1.02135 0.00528639 0)
(1.01142 0.00376875 0)
(1.01629 -0.00602046 0)
(1.001 -0.00794057 0)
(1.00127 -0.0134608 0)
(0.988357 -0.0156031 0)
(0.991281 -0.013929 0)
(0.981413 -0.0202222 0)
(0.985667 -0.010221 0)
(0.978759 -0.0173566 0)
(0.953584 -0.00452932 0)
(1.02198 -0.0127137 0)
(1.05606 0.0100176 0)
(1.05469 0.0107306 0)
(1.00112 -0.00339302 0)
(1.03905 -0.00873916 0)
(0.983569 -0.0120699 0)
(1.03943 0.0035515 0)
(1.02189 0.0113132 0)
(1.02201 0.0133327 0)
(1.02397 0.00545305 0)
(1.01662 0.00376522 0)
(1.01683 -0.00560153 0)
(1.00547 -0.00783569 0)
(1.00186 -0.0128525 0)
(0.991546 -0.0156197 0)
(0.991 -0.0133734 0)
(0.982857 -0.0202385 0)
(0.983493 -0.00985793 0)
(0.978597 -0.0170486 0)
(0.974119 -0.00443922 0)
(1.00472 -0.0131654 0)
(1.04877 0.00980044 0)
(1.04723 0.0109909 0)
(1.01639 -0.00315375 0)
(1.02226 -0.00865404 0)
(0.995742 -0.0120004 0)
(1.02056 0.00313562 0)
(1.02434 0.0114143 0)
(1.02478 0.0133013 0)
(1.02477 0.00560464 0)
(1.01963 0.00376788 0)
(1.01772 -0.00514709 0)
(1.00789 -0.00774346 0)
(1.00358 -0.0122035 0)
(0.993384 -0.0156038 0)
(0.992167 -0.0127793 0)
(0.983573 -0.0201263 0)
(0.982935 -0.00949739 0)
(0.977977 -0.0166147 0)
(0.989288 -0.00435579 0)
(0.994026 -0.0134909 0)
(1.0379 0.00953001 0)
(1.03893 0.0111061 0)
(1.02386 -0.0028501 0)
(1.01325 -0.00855674 0)
(0.999997 -0.0118816 0)
(1.00946 0.0027707 0)
(1.02173 0.0113156 0)
(1.02512 0.0132442 0)
(1.02399 0.00577275 0)
(1.01991 0.00374514 0)
(1.01816 -0.00466869 0)
(1.00867 -0.00768086 0)
(1.00526 -0.0115329 0)
(0.994495 -0.0155583 0)
(0.993541 -0.0121699 0)
(0.984263 -0.0198824 0)
(0.982964 -0.0091403 0)
(0.977656 -0.0160559 0)
(0.99964 -0.00428832 0)
(0.98875 -0.0136898 0)
(1.02512 0.00924735 0)
(1.02988 0.0110993 0)
(1.02592 -0.00254708 0)
(1.0092 -0.00844555 0)
(1.00066 -0.0117115 0)
(1.00199 0.00244731 0)
(1.01664 0.0111207 0)
(1.02209 0.0131368 0)
(1.02148 0.00594711 0)
(1.01813 0.00367382 0)
(1.01777 -0.00418986 0)
(1.00855 -0.0076544 0)
(1.00634 -0.0108675 0)
(0.995389 -0.0154747 0)
(0.994506 -0.0115786 0)
(0.985229 -0.0195126 0)
(0.983061 -0.00879066 0)
(0.977865 -0.0153887 0)
(1.0062 -0.00424214 0)
(0.987082 -0.0137698 0)
(1.01236 0.00898715 0)
(1.02081 0.010991 0)
(1.02472 -0.00228508 0)
(1.00772 -0.00833597 0)
(1.00029 -0.0114796 0)
(0.996149 0.00217236 0)
(1.0104 0.010899 0)
(1.01669 0.0129753 0)
(1.01759 0.00610282 0)
(1.0153 0.0035361 0)
(1.01668 -0.00373529 0)
(1.00811 -0.00766461 0)
(1.00678 -0.0102293 0)
(0.996254 -0.0153462 0)
(0.994953 -0.0110291 0)
(0.986381 -0.0190289 0)
(0.983102 -0.00845665 0)
(0.978435 -0.0146398 0)
(1.01006 -0.00421773 0)
(0.987304 -0.0137453 0)
(1.00119 0.00876832 0)
(1.01266 0.0108016 0)
(1.02189 -0.00208076 0)
(1.00726 -0.00824524 0)
(0.999847 -0.0111823 0)
(0.991485 0.00195855 0)
(1.00396 0.0106889 0)
(1.0105 0.0127617 0)
(1.01314 0.00622024 0)
(1.01226 0.00332327 0)
(1.01522 -0.00332206 0)
(1.00766 -0.00770573 0)
(1.00674 -0.00963424 0)
(0.997079 -0.015168 0)
(0.995027 -0.0105279 0)
(0.987489 -0.0184486 0)
(0.983134 -0.00814465 0)
(0.979085 -0.0138388 0)
(1.01211 -0.00421178 0)
(0.988196 -0.0136352 0)
(0.992428 0.00859443 0)
(1.0061 0.0105522 0)
(1.01844 -0.00193354 0)
(1.0071 -0.0081835 0)
(0.999413 -0.0108265 0)
(0.988103 0.00181121 0)
(0.998192 0.0105074 0)
(1.00485 0.0125002 0)
(1.00894 0.00629187 0)
(1.00958 0.00303311 0)
(1.01371 -0.00295923 0)
(1.00737 -0.00776448 0)
(1.00643 -0.00909536 0)
(0.997799 -0.0149305 0)
(0.994935 -0.0100781 0)
(0.988372 -0.0177871 0)
(0.983231 -0.00784862 0)
(0.979619 -0.0130101 0)
(1.01297 -0.00421893 0)
(0.989101 -0.0134594 0)
(0.986194 0.00845886 0)
(1.00132 0.0102628 0)
(1.01493 -0.0018337 0)
(1.00698 -0.00815349 0)
(0.998839 -0.0104226 0)
(0.986005 0.00172374 0)
(0.993651 0.0103599 0)
(1.00047 0.012196 0)
(1.00548 0.00632004 0)
(1.00751 0.00267558 0)
(1.01232 -0.00264888 0)
(1.00724 -0.00782721 0)
(1.00601 -0.00861174 0)
(0.998365 -0.0146334 0)
(0.994846 -0.00967735 0)
(0.988968 -0.0170547 0)
(0.983441 -0.00755693 0)
(0.979974 -0.012172 0)
(1.01301 -0.0042333 0)
(0.989782 -0.0132365 0)
(0.982153 0.00835098 0)
(0.998106 0.00995103 0)
(1.01166 -0.00176928 0)
(1.00687 -0.0081523 0)
(0.99809 -0.0099841 0)
(0.984956 0.00167927 0)
(0.990498 0.0102451 0)
(0.997536 0.0118556 0)
(1.00295 0.00631324 0)
(1.00606 0.00227095 0)
(1.01113 -0.00238956 0)
(1.00721 -0.00788037 0)
(1.0056 -0.0081788 0)
(0.998759 -0.0142776 0)
(0.994863 -0.00931652 0)
(0.989308 -0.0162697 0)
(0.983781 -0.0072594 0)
(0.980183 -0.0113311 0)
(1.01247 -0.00424948 0)
(0.990225 -0.0129829 0)
(0.979854 0.00826053 0)
(0.996119 0.00963086 0)
(1.0088 -0.00172966 0)
(1.00678 -0.00817527 0)
(0.99731 -0.00952378 0)
(0.98462 0.0016594 0)
(0.988579 0.0101551 0)
(0.995886 0.0114902 0)
(1.0013 0.00628069 0)
(1.00515 0.00183965 0)
(1.01015 -0.0021824 0)
(1.00722 -0.00790688 0)
(1.00525 -0.00780108 0)
(0.998981 -0.0138606 0)
(0.995016 -0.00898594 0)
(0.989471 -0.0154529 0)
(0.984239 -0.00694997 0)
(0.980331 -0.0104897 0)
(1.01153 -0.00426303 0)
(0.990496 -0.0127129 0)
(0.97892 0.00817948 0)
(0.995025 0.00931239 0)
(1.00647 -0.00170637 0)
(1.0067 -0.00821968 0)
(0.996725 -0.0090485 0)
(0.984712 0.00165291 0)
(0.987627 0.0100774 0)
(0.995221 0.0111104 0)
(1.0004 0.00623056 0)
(1.00466 0.00140268 0)
(1.00936 -0.00202541 0)
(1.00718 -0.0078965 0)
(1.00498 -0.00747706 0)
(0.999043 -0.0133938 0)
(0.995274 -0.0086725 0)
(0.989547 -0.0146155 0)
(0.984782 -0.00663059 0)
(0.980504 -0.00965304 0)
(1.01036 -0.00427062 0)
(0.990663 -0.0124386 0)
(0.979073 0.00810195 0)
(0.994578 0.00900275 0)
(1.0047 -0.00169259 0)
(1.00659 -0.00828418 0)
(0.996518 -0.00856336 0)
(0.985067 0.00165265 0)
(0.987379 0.0100047 0)
(0.995243 0.0107153 0)
(1.0001 0.00617021 0)
(1.00446 0.000979858 0)
(1.00875 -0.00191725 0)
(1.00703 -0.00784527 0)
(1.00476 -0.00719666 0)
(0.998967 -0.0128932 0)
(0.995571 -0.00836584 0)
(0.989605 -0.0137626 0)
(0.985362 -0.00630401 0)
(0.980768 -0.00882475 0)
(1.00915 -0.00427021 0)
(0.990772 -0.0121701 0)
(0.980062 0.00802374 0)
(0.994582 0.00870686 0)
(1.00347 -0.00168216 0)
(1.00641 -0.008369 0)
(0.996738 -0.00807282 0)
(0.98562 0.00165655 0)
(0.987627 0.00993053 0)
(0.995687 0.0103094 0)
(1.00023 0.00609997 0)
(1.00445 0.00059268 0)
(1.00829 -0.001859 0)
(1.00675 -0.00774904 0)
(1.00456 -0.00695294 0)
(0.998788 -0.0123679 0)
(0.995829 -0.00806389 0)
(0.989692 -0.0128987 0)
(0.985933 -0.00596894 0)
(0.981152 -0.00800944 0)
(1.00805 -0.00426101 0)
(0.99085 -0.0119143 0)
(0.9816 0.00794195 0)
(0.994852 0.00842782 0)
(1.00267 -0.00167014 0)
(1.00611 -0.00847398 0)
(0.997294 -0.007583 0)
(0.98634 0.00166759 0)
(0.988199 0.00984588 0)
(0.996324 0.00990548 0)
(1.00062 0.00601725 0)
(1.00451 0.000259819 0)
(1.00792 -0.00184162 0)
(1.00635 -0.0076056 0)
(1.00432 -0.00674345 0)
(0.998545 -0.0118258 0)
(0.995991 -0.00776596 0)
(0.98983 -0.0120349 0)
(0.98646 -0.00562577 0)
(0.981653 -0.00721011 0)
(1.00715 -0.00424332 0)
(0.990916 -0.0116747 0)
(0.983363 0.00785507 0)
(0.995216 0.00816686 0)
(1.00219 -0.00165286 0)
(1.0057 -0.00859854 0)
(0.99799 -0.00710006 0)
(0.987189 0.0016894 0)
(0.988958 0.00974615 0)
(0.99697 0.00951107 0)
(1.0011 0.00591774 0)
(1.00455 -7.00192e-06 0)
(1.00758 -0.00185538 0)
(1.00584 -0.00741693 0)
(1.00401 -0.00655777 0)
(0.99828 -0.0112762 0)
(0.99603 -0.0074695 0)
(0.990024 -0.0111798 0)
(0.98693 -0.00527653 0)
(0.982251 -0.00643328 0)
(1.00649 -0.00421814 0)
(0.990979 -0.0114519 0)
(0.985055 0.00776327 0)
(0.995536 0.00792309 0)
(1.00191 -0.00162787 0)
(1.00521 -0.00874069 0)
(0.99861 -0.00662833 0)
(0.988104 0.00172252 0)
(0.989807 0.0096335 0)
(0.997517 0.00913373 0)
(1.00157 0.00578317 0)
(1.00452 -0.000202908 0)
(1.00724 -0.00189938 0)
(1.00529 -0.00719316 0)
(1.00362 -0.00638213 0)
(0.998028 -0.010725 0)
(0.995958 -0.00717194 0)
(0.990268 -0.0103378 0)
(0.987349 -0.00492268 0)
(0.98292 -0.00568964 0)
(1.00603 -0.00418675 0)
(0.99104 -0.0112437 0)
(0.986475 0.00766752 0)
(0.995742 0.00769426 0)
(1.00178 -0.00159575 0)
(1.00466 -0.00889369 0)
(0.998973 -0.00617448 0)
(0.989009 0.00176741 0)
(0.9907 0.0095074 0)
(0.997938 0.00878543 0)
(1.00199 0.00560498 0)
(1.00441 -0.000330092 0)
(1.00686 -0.0019675 0)
(1.00473 -0.00693935 0)
(1.00316 -0.00621888 0)
(0.997813 -0.0101746 0)
(0.995809 -0.00687152 0)
(0.990554 -0.00952642 0)
(0.987735 -0.00456898 0)
(0.983637 -0.00498152 0)
(1.00572 -0.00415025 0)
(0.991095 -0.0110465 0)
(0.98754 0.00756883 0)
(0.995838 0.00747618 0)
(1.0018 -0.00155739 0)
(1.00409 -0.00904983 0)
(0.998979 -0.00574371 0)
(0.98984 0.00182232 0)
(0.991624 0.00936247 0)
(0.998278 0.00847613 0)
(1.00239 0.00538636 0)
(1.00425 -0.000393907 0)
(1.00645 -0.00204864 0)
(1.00423 -0.00665878 0)
(1.00265 -0.00606584 0)
(0.99765 -0.00964175 0)
(0.995622 -0.00654887 0)
(0.990873 -0.00874667 0)
(0.98811 -0.00423765 0)
(0.984385 -0.00431951 0)
(1.00551 -0.00410919 0)
(0.99113 -0.0108569 0)
(0.988265 0.00746843 0)
(0.995879 0.00726216 0)
(1.00197 -0.00151186 0)
(1.00355 -0.00919997 0)
(0.998609 -0.00533793 0)
(0.990561 0.00187998 0)
(0.992578 0.00919081 0)
(0.998603 0.00821772 0)
(1.00278 0.00512749 0)
(1.00409 -0.000397067 0)
(1.00604 -0.00214257 0)
(1.0038 -0.00636605 0)
(1.00211 -0.00587896 0)
(0.997546 -0.00916052 0)
(0.995436 -0.00622739 0)
(0.991208 -0.00794109 0)
(0.988486 -0.00392352 0)
(0.985148 -0.00372323 0)
(1.00535 -0.00406366 0)
(0.991135 -0.0106719 0)
(0.988717 0.00736668 0)
(0.995932 0.0070474 0)
(1.0023 -0.00146281 0)
(1.00307 -0.00932869 0)
(0.997916 -0.0049623 0)
(0.991157 0.00194216 0)
(0.993544 0.00897203 0)
(0.998966 0.00801324 0)
(1.00318 0.0048415 0)
(1.00395 -0.000347872 0)
(1.00564 -0.00222742 0)
(1.00347 -0.00610109 0)
(1.00159 -0.00563927 0)
(0.997488 -0.00865042 0)
(0.995289 -0.00602217 0)
(0.991548 -0.00712863 0)
(0.98886 -0.00355731 0)
(0.985906 -0.0031768 0)
(1.00522 -0.00401363 0)
(0.991103 -0.0104882 0)
(0.988969 0.00725972 0)
(0.996054 0.00683241 0)
(1.00276 -0.00141733 0)
(1.00265 -0.00941997 0)
(0.996999 -0.00462535 0)
(0.991636 0.00200925 0)
(0.994483 0.00871069 0)
(0.999381 0.00784357 0)
(1.00358 0.00453873 0)
(1.00387 -0.000261775 0)
(1.00528 -0.00228564 0)
(1.00323 -0.00584303 0)
(1.00111 -0.00547151 0)
(0.99745 -0.00801997 0)
(0.995191 -0.00581957 0)
(0.991903 -0.00647865 0)
(0.989229 -0.00317597 0)
(0.986631 -0.00264014 0)
(1.00511 -0.0039581 0)
(0.991038 -0.0103057 0)
(0.989086 0.007148 0)
(0.996269 0.00660396 0)
(1.00331 -0.00135958 0)
(1.00232 -0.00948261 0)
(0.995977 -0.004313 0)
(0.992012 0.00206275 0)
(0.995339 0.00841801 0)
(0.999824 0.00770824 0)
(1.00394 0.00422212 0)
(1.00384 -0.000162793 0)
(1.00496 -0.00230582 0)
(1.00306 -0.00560863 0)
(1.00071 -0.00523084 0)
(0.997443 -0.00759181 0)
(0.995121 -0.00537892 0)
(0.992253 -0.00597849 0)
(0.989628 -0.00285299 0)
(0.987324 -0.00212146 0)
(1.00501 -0.00389652 0)
(0.990951 -0.0101244 0)
(0.989115 0.00703594 0)
(0.996576 0.00635712 0)
(1.00389 -0.00129819 0)
(1.00207 -0.00948968 0)
(0.994973 -0.00404412 0)
(0.992305 0.00212054 0)
(0.996064 0.00807999 0)
(1.00025 0.00760481 0)
(1.00423 0.00390877 0)
(1.00384 -5.01532e-05 0)
(1.00468 -0.00230085 0)
(1.00295 -0.00538559 0)
(1.00037 -0.00495424 0)
(0.997454 -0.00709801 0)
(0.995112 -0.00510706 0)
(0.992545 -0.00531646 0)
(0.990012 -0.00253676 0)
(0.987946 -0.00170076 0)
(1.00491 -0.00383156 0)
(0.990861 -0.00993355 0)
(0.989096 0.00689563 0)
(0.996951 0.006128 0)
(1.00441 -0.00127413 0)
(1.00189 -0.00941293 0)
(0.994085 -0.00383917 0)
(0.992531 0.00218444 0)
(0.996628 0.00767291 0)
(1.00063 0.00754335 0)
(1.00442 0.0035663 0)
(1.00384 0.000113455 0)
(1.00442 -0.00233785 0)
(1.00286 -0.00505352 0)
(1.00011 -0.00498525 0)
(0.997438 -0.00622958 0)
(0.995147 -0.00502123 0)
(0.992839 -0.00463831 0)
(0.990365 -0.00226938 0)
(0.988519 -0.00133637 0)
(1.00482 -0.00375313 0)
(0.990791 -0.00975898 0)
(0.989059 0.00677504 0)
(0.997366 0.00583677 0)
(1.00484 -0.00118139 0)
(1.00177 -0.00935143 0)
(0.99338 -0.00362667 0)
(0.992707 0.00224146 0)
(0.997035 0.0072482 0)
(1.00091 0.0074619 0)
(1.00449 0.00329384 0)
(1.00382 0.000188241 0)
(1.00417 -0.00216265 0)
(1.00275 -0.00497302 0)
(0.999935 -0.00448342 0)
(0.997437 -0.00616182 0)
(0.995186 -0.00440411 0)
(0.993128 -0.00418903 0)
(0.990739 -0.00187983 0)
(0.989058 -0.00083852 0)
(1.00472 -0.00367909 0)
(0.990765 -0.00955664 0)
(0.989028 0.00660742 0)
(0.997789 0.00559057 0)
(1.00512 -0.00117247 0)
(1.00167 -0.00914853 0)
(0.992892 -0.00350274 0)
(0.992852 0.00233151 0)
(0.997305 0.00676302 0)
(1.0011 0.00741942 0)
(1.00444 0.00302951 0)
(1.00377 0.000230551 0)
(1.00392 -0.00194697 0)
(1.00267 -0.00478704 0)
(0.99974 -0.0043155 0)
(0.997411 -0.00543971 0)
(0.995312 -0.00434285 0)
(0.993315 -0.00356708 0)
(0.991064 -0.0015136 0)
(0.989496 -0.000516446 0)
(1.00462 -0.00359609 0)
(0.990796 -0.00935885 0)
(0.989031 0.00642947 0)
(0.99819 0.00533307 0)
(1.00525 -0.00115926 0)
(1.00158 -0.00892333 0)
(0.992608 -0.00340768 0)
(0.992975 0.00238042 0)
(0.997497 0.00631467 0)
(1.00118 0.00725778 0)
(1.00432 0.00287936 0)
(1.00367 0.000150701 0)
(1.00368 -0.00167069 0)
(1.00251 -0.00466525 0)
(0.999692 -0.00410949 0)
(0.997356 -0.00492029 0)
(0.995375 -0.00398303 0)
(0.993622 -0.00346379 0)
(0.991376 -0.000874704 0)
(0.989913 -1.82547e-05 0)
(1.0045 -0.00349118 0)
(0.990898 -0.00919784 0)
(0.989078 0.00630183 0)
(0.998555 0.00499349 0)
(1.00524 -0.00104441 0)
(1.00146 -0.0087513 0)
(0.992513 -0.00326192 0)
(0.993087 0.0024195 0)
(0.997642 0.00590596 0)
(1.00119 0.00711116 0)
(1.00415 0.00272773 0)
(1.00355 0.000138843 0)
(1.00343 -0.00144982 0)
(1.00239 -0.00455615 0)
(0.999579 -0.00364861 0)
(0.997331 -0.00491741 0)
(0.995454 -0.00306275 0)
(0.993848 -0.00317366 0)
(0.991772 -0.00052007 0)
(0.990196 0.00054415 0)
(1.00436 -0.0034173 0)
(0.991076 -0.00895528 0)
(0.989181 0.00605062 0)
(0.998864 0.00480758 0)
(1.00511 -0.0011487 0)
(1.0013 -0.0083143 0)
(0.992559 -0.00331304 0)
(0.993189 0.00262348 0)
(0.997796 0.00526788 0)
(1.00113 0.00716582 0)
(1.00395 0.00243797 0)
(1.00341 0.000269947 0)
(1.0032 -0.00150903 0)
(1.00223 -0.00389148 0)
(0.999542 -0.00391422 0)
(0.99733 -0.00372026 0)
(0.995544 -0.00331724 0)
(0.993996 -0.00191065 0)
(0.992086 -0.00107809 0)
(0.990547 0.000239351 0)
(1.00419 -0.00331271 0)
(0.991334 -0.00877401 0)
(0.989329 0.00587651 0)
(0.999123 0.00451945 0)
(1.0049 -0.0011275 0)
(1.0011 -0.00801057 0)
(0.992704 -0.00328502 0)
(0.993288 0.00269022 0)
(0.997959 0.00485774 0)
(1.00105 0.00679419 0)
(1.00373 0.00253081 0)
(1.00326 -2.29647e-05 0)
(1.00301 -0.0011277 0)
(1.00206 -0.00376715 0)
(0.999563 -0.00347611 0)
(0.997307 -0.00355036 0)
(0.995724 -0.0027254 0)
(0.994198 -0.0020539 0)
(0.992246 -0.000136139 0)
(0.990945 0.000972326 0)
(1.00399 -0.00319315 0)
(0.991654 -0.0086143 0)
(0.98952 0.00570796 0)
(0.999337 0.00423124 0)
(1.00464 -0.00106515 0)
(1.00086 -0.00775367 0)
(0.992914 -0.00317148 0)
(0.993394 0.00262336 0)
(0.998129 0.00463561 0)
(1.00097 0.00639686 0)
(1.00351 0.00262566 0)
(1.00313 -0.000182051 0)
(1.00283 -0.000847432 0)
(1.00193 -0.00363501 0)
(0.999549 -0.00302393 0)
(0.997371 -0.00343689 0)
(0.995749 -0.00183649 0)
(0.994448 -0.00215855 0)
(0.992739 0.000631868 0)
(0.991137 0.00169713 0)
(1.00379 -0.00312198 0)
(0.992009 -0.00835334 0)
(0.989756 0.00541003 0)
(0.999497 0.00409468 0)
(1.00438 -0.0012408 0)
(1.0006 -0.0071818 0)
(0.993175 -0.00335405 0)
(0.993491 0.00294111 0)
(0.998321 0.00390125 0)
(1.00088 0.00647815 0)
(1.0033 0.00233134 0)
(1.00299 9.58822e-05 0)
(1.0027 -0.00104532 0)
(1.00181 -0.00281775 0)
(0.999602 -0.00299982 0)
(0.997454 -0.00245629 0)
(0.995884 -0.0021626 0)
(0.994642 -0.00079592 0)
(0.993062 -0.000534954 0)
(0.991454 0.000790325 0)
(1.00356 -0.00300481 0)
(0.992395 -0.00817898 0)
(0.990011 0.0052097 0)
(0.999618 0.00385688 0)
(1.00412 -0.00124815 0)
(1.00035 -0.00683226 0)
(0.993461 -0.0033554 0)
(0.99358 0.00290589 0)
(0.998513 0.00371879 0)
(1.00081 0.00582134 0)
(1.00308 0.00262784 0)
(1.00287 -0.000154286 0)
(1.0026 -0.000639699 0)
(1.00172 -0.00275533 0)
(0.99968 -0.00267069 0)
(0.997519 -0.00238598 0)
(0.996123 -0.00164577 0)
(0.994782 -0.000754402 0)
(0.993169 0.000426233 0)
(0.991899 0.00162141 0)
(1.00334 -0.00287698 0)
(0.992787 -0.00802535 0)
(0.990285 0.00501733 0)
(0.999708 0.00361845 0)
(1.00386 -0.00121653 0)
(1.00011 -0.00657446 0)
(0.993754 -0.00322284 0)
(0.993716 0.0027149 0)
(0.998658 0.00361325 0)
(1.00077 0.00525261 0)
(1.00286 0.00288776 0)
(1.00276 -0.000450967 0)
(1.00248 -0.000355669 0)
(1.00163 -0.00256645 0)
(0.999744 -0.00224284 0)
(0.997685 -0.00226992 0)
(0.996252 -0.000956553 0)
(0.995125 -0.000858361 0)
(0.993696 0.00158387 0)
(0.992101 0.00266618 0)
(1.00313 -0.00281312 0)
(0.993153 -0.00774688 0)
(0.990583 0.00465966 0)
(0.999744 0.00356615 0)
(1.00364 -0.00147582 0)
(0.999893 -0.00590227 0)
(0.994073 -0.00349261 0)
(0.993831 0.00306181 0)
(0.998814 0.00293627 0)
(1.00074 0.00536644 0)
(1.00262 0.00235607 0)
(1.00262 0.000173948 0)
(1.00244 -0.000653906 0)
(1.00156 -0.00167602 0)
(0.999811 -0.00209818 0)
(0.997804 -0.00147019 0)
(0.996418 -0.000958944 0)
(0.995391 0.00015934 0)
(0.994065 3.80169e-05 0)
(0.992421 0.0012766 0)
(1.00293 -0.00268539 0)
(0.993513 -0.00758108 0)
(0.990883 0.00443654 0)
(0.999749 0.00336844 0)
(1.00344 -0.0014674 0)
(0.999714 -0.00558991 0)
(0.99439 -0.00343918 0)
(0.993981 0.00288903 0)
(0.998936 0.00292654 0)
(1.0007 0.00463728 0)
(1.00241 0.00266903 0)
(1.00251 2.79956e-06 0)
(1.00235 -0.000486348 0)
(1.00151 -0.00157905 0)
(0.999902 -0.00173498 0)
(0.998007 -0.00128981 0)
(0.996734 -0.000638165 0)
(0.995433 0.000286627 0)
(0.994119 0.0011796 0)
(0.992929 0.00232009 0)
(1.00275 -0.00255479 0)
(0.993855 -0.00742294 0)
(0.991187 0.00422566 0)
(0.999733 0.00318303 0)
(1.00323 -0.00145021 0)
(0.999575 -0.00536291 0)
(0.994693 -0.00324146 0)
(0.994175 0.00255028 0)
(0.999024 0.00288287 0)
(1.00072 0.00406026 0)
(1.00216 0.00293223 0)
(1.00234 -0.000250075 0)
(1.0023 -0.000256331 0)
(1.00147 -0.00149274 0)
(0.999966 -0.00130379 0)
(0.998119 -0.00119591 0)
(0.996865 -0.000201157 0)
(0.995938 0.000430569 0)
(0.994743 0.00263655 0)
(0.993111 0.00362178 0)
(1.00259 -0.0025083 0)
(0.994156 -0.00710812 0)
(0.991512 0.00378785 0)
(0.999672 0.00323163 0)
(1.00305 -0.00178103 0)
(0.999449 -0.0046493 0)
(0.995007 -0.00359172 0)
(0.994374 0.0029721 0)
(0.999119 0.00223823 0)
(1.00071 0.00423644 0)
(1.00196 0.00232625 0)
(1.00218 0.000676773 0)
(1.00225 -0.000446018 0)
(1.00143 -0.000686044 0)
(1.00003 -0.00126038 0)
(0.99829 -0.00038127 0)
(0.997143 7.07519e-06 0)
(0.99622 0.00149772 0)
(0.995059 0.00111396 0)
(0.993409 0.00212486 0)
(1.00244 -0.00235078 0)
(0.994452 -0.00698433 0)
(0.991826 0.00360175 0)
(0.999601 0.00300344 0)
(1.00287 -0.00167255 0)
(0.999371 -0.00450874 0)
(0.995322 -0.00329985 0)
(0.994566 0.00261866 0)
(0.999193 0.00227928 0)
(1.00072 0.00359409 0)
(1.00178 0.00260898 0)
(1.00202 0.000395187 0)
(1.00217 -0.000344377 0)
(1.00139 -0.000731849 0)
(1.00014 -0.000942246 0)
(0.998509 -0.000272183 0)
(0.99749 0.000369079 0)
(0.996346 0.00136687 0)
(0.995104 0.00207117 0)
(0.993893 0.00323933 0)
(1.00229 -0.00224961 0)
(0.994748 -0.00677286 0)
(0.992135 0.0033123 0)
(0.999543 0.00290896 0)
(1.00265 -0.00168018 0)
(0.99932 -0.00434872 0)
(0.995603 -0.00300961 0)
(0.994818 0.00216506 0)
(0.999252 0.00247871 0)
(1.00076 0.00288532 0)
(1.00157 0.00284661 0)
(1.00182 0.000154256 0)
(1.00211 -0.000229745 0)
(1.00138 -0.000921271 0)
(1.00019 -0.000566354 0)
(0.998665 -0.000302724 0)
(0.997649 0.000681475 0)
(0.996799 0.001643 0)
(0.995786 0.00359777 0)
(0.994097 0.00452881 0)
(1.00216 -0.00219172 0)
(0.995007 -0.00646892 0)
(0.992468 0.00288264 0)
(0.999452 0.00293532 0)
(1.00246 -0.00191548 0)
(0.999274 -0.00383806 0)
(0.995893 -0.00315053 0)
(0.995057 0.00237414 0)
(0.999305 0.00211284 0)
(1.00079 0.00285187 0)
(1.00143 0.00259705 0)
(1.00161 0.000790485 0)
(1.00203 -0.000290208 0)
(1.00139 -0.000448298 0)
(1.00031 -0.000438342 0)
(0.998832 0.000358154 0)
(0.998029 0.000912594 0)
(0.997255 0.00239493 0)
(0.996068 0.00301363 0)
(0.994269 0.00378556 0)
(1.00204 -0.00201683 0)
(0.995269 -0.00636366 0)
(0.992784 0.00271559 0)
(0.999366 0.002686 0)
(1.00228 -0.00176756 0)
(0.999243 -0.00372126 0)
(0.996182 -0.00293109 0)
(0.995288 0.00220824 0)
(0.99935 0.00206302 0)
(1.00084 0.0025762 0)
(1.00131 0.00257073 0)
(1.0014 0.000989545 0)
(1.00195 -7.80495e-05 0)
(1.0014 -0.000232521 0)
(1.00044 -0.000157548 0)
(0.999058 0.000713835 0)
(0.998309 0.00119601 0)
(0.997517 0.0021472 0)
(0.996362 0.00270586 0)
(0.994564 0.00368955 0)
(1.00193 -0.00197458 0)
(0.995527 -0.00605917 0)
(0.993098 0.00230416 0)
(0.999289 0.002697 0)
(1.0021 -0.00180309 0)
(0.999227 -0.00351329 0)
(0.996467 -0.00281345 0)
(0.995526 0.00211671 0)
(0.999384 0.00206972 0)
(1.00088 0.00228863 0)
(1.00122 0.00244904 0)
(1.00121 0.00128069 0)
(1.00186 0.000120933 0)
(1.00142 1.32238e-05 0)
(1.00059 9.71313e-05 0)
(0.999236 0.00100462 0)
(0.99852 0.00130024 0)
(0.997816 0.00216466 0)
(0.996729 0.00282291 0)
(0.994895 0.00375542 0)
(1.00181 -0.00184204 0)
(0.995778 -0.00587671 0)
(0.99341 0.00207291 0)
(0.999216 0.00248495 0)
(1.00191 -0.0017286 0)
(0.999217 -0.00328349 0)
(0.99675 -0.00270526 0)
(0.995769 0.00200198 0)
(0.999398 0.00206583 0)
(1.00091 0.00204579 0)
(1.00117 0.00237318 0)
(1.00103 0.0014931 0)
(1.00176 0.000306835 0)
(1.00144 0.000193125 0)
(1.00074 0.000274711 0)
(0.999434 0.00117548 0)
(0.998738 0.00155998 0)
(0.99811 0.002279 0)
(0.997064 0.00289929 0)
(0.995199 0.00367975 0)
(1.00169 -0.0017509 0)
(0.996028 -0.00564952 0)
(0.993716 0.00175099 0)
(0.999149 0.00234198 0)
(1.00174 -0.00157468 0)
(0.999205 -0.00315894 0)
(0.997024 -0.00255746 0)
(0.996016 0.00188223 0)
(0.999412 0.00210948 0)
(1.00095 0.00184358 0)
(1.00116 0.00223662 0)
(1.00087 0.001646 0)
(1.00165 0.00054909 0)
(1.00146 0.000388566 0)
(1.0009 0.000485698 0)
(0.999653 0.00136381 0)
(0.998943 0.00183223 0)
(0.998368 0.00239978 0)
(0.997379 0.00293928 0)
(0.995506 0.00358436 0)
(1.00158 -0.00165609 0)
(0.996263 -0.00543225 0)
(0.994028 0.00150118 0)
(0.999101 0.00216024 0)
(1.00156 -0.00149065 0)
(0.999192 -0.00294154 0)
(0.997305 -0.00240396 0)
(0.99627 0.00171597 0)
(0.99941 0.00212422 0)
(1.00096 0.00169235 0)
(1.00116 0.00208561 0)
(1.00075 0.00180306 0)
(1.00155 0.000808886 0)
(1.00148 0.000581988 0)
(1.00106 0.000663959 0)
(0.999886 0.00147453 0)
(0.999149 0.00206158 0)
(0.998596 0.00251456 0)
(0.997642 0.00298637 0)
(0.995783 0.0034906 0)
(1.00148 -0.00155235 0)
(0.996501 -0.00522678 0)
(0.99433 0.00125481 0)
(0.999048 0.00192207 0)
(1.00141 -0.00133542 0)
(0.999181 -0.00270423 0)
(0.997559 -0.0022858 0)
(0.996523 0.00154553 0)
(0.999422 0.00216242 0)
(1.00097 0.00159558 0)
(1.0012 0.00191746 0)
(1.00066 0.00191723 0)
(1.00144 0.00103607 0)
(1.00148 0.000749456 0)
(1.00121 0.000850228 0)
(1.00014 0.00154565 0)
(0.999366 0.00227077 0)
(0.998801 0.00264098 0)
(0.997884 0.00306952 0)
(0.99606 0.00344325 0)
(1.00138 -0.00146696 0)
(0.99672 -0.00500848 0)
(0.994635 0.000989321 0)
(0.999024 0.00174745 0)
(1.00125 -0.00121373 0)
(0.999157 -0.0025151 0)
(0.997818 -0.0021477 0)
(0.996791 0.00142103 0)
(0.999425 0.00217766 0)
(1.00095 0.00153371 0)
(1.00125 0.00175071 0)
(1.00061 0.00200527 0)
(1.00134 0.00127973 0)
(1.00149 0.000935463 0)
(1.00135 0.00104329 0)
(1.0004 0.00162041 0)
(0.999603 0.00243357 0)
(0.998994 0.00275186 0)
(0.998082 0.00315905 0)
(0.996295 0.0033983 0)
(1.00127 -0.00136609 0)
(0.996942 -0.00482062 0)
(0.994932 0.000796019 0)
(0.998993 0.00150393 0)
(1.00112 -0.00110669 0)
(0.999142 -0.00224003 0)
(0.998054 -0.00198245 0)
(0.997052 0.00123454 0)
(0.999443 0.00214206 0)
(1.00093 0.00152005 0)
(1.00131 0.00161334 0)
(1.00059 0.00202974 0)
(1.00124 0.0014946 0)
(1.00148 0.00110528 0)
(1.00147 0.0012393 0)
(1.00067 0.00168079 0)
(0.999847 0.00254399 0)
(0.999184 0.00284289 0)
(0.998263 0.00324902 0)
(0.996518 0.00340269 0)
(1.00118 -0.00127954 0)
(0.997147 -0.00461499 0)
(0.995226 0.000559394 0)
(0.998991 0.00132158 0)
(1.00099 -0.00104878 0)
(0.999117 -0.00200616 0)
(0.998275 -0.00181159 0)
(0.997319 0.00112606 0)
(0.999468 0.00214498 0)
(1.00089 0.00155393 0)
(1.00137 0.00148015 0)
(1.00061 0.00199835 0)
(1.00117 0.00170861 0)
(1.00148 0.00128389 0)
(1.00159 0.00145309 0)
(1.00093 0.00174057 0)
(1.00011 0.00261656 0)
(0.999382 0.00291947 0)
(0.998429 0.00333622 0)
(0.996706 0.00344025 0)
(1.00109 -0.00118528 0)
(0.997353 -0.00442042 0)
(0.995513 0.000367777 0)
(0.998978 0.00111304 0)
(1.00089 -0.00103402 0)
(0.999107 -0.00174827 0)
(0.998482 -0.0016162 0)
(0.99758 0.0010086 0)
(0.999508 0.00210035 0)
(1.00084 0.0016065 0)
(1.00144 0.00140723 0)
(1.00067 0.00196951 0)
(1.0011 0.0019312 0)
(1.00147 0.00145108 0)
(1.00168 0.00164888 0)
(1.00117 0.00181397 0)
(1.00038 0.00265865 0)
(0.999592 0.00299078 0)
(0.998601 0.00343292 0)
(0.996877 0.00352321 0)
(1.001 -0.00111903 0)
(0.99754 -0.00419339 0)
(0.995797 0.000125606 0)
(0.998995 0.000955351 0)
(1.00079 -0.00104172 0)
(0.999083 -0.00138213 0)
(0.998664 -0.00147276 0)
(0.997842 0.000856814 0)
(0.999568 0.00201406 0)
(1.00079 0.00163233 0)
(1.00149 0.00134202 0)
(1.00076 0.00185854 0)
(1.00107 0.00206273 0)
(1.00147 0.00159783 0)
(1.00177 0.00181409 0)
(1.00138 0.00190583 0)
(1.00066 0.00270345 0)
(0.999824 0.00307354 0)
(0.998776 0.00350239 0)
(0.997024 0.00360979 0)
(1.00091 -0.00100989 0)
(0.99773 -0.00406418 0)
(0.99607 3.32109e-05 0)
(0.998992 0.000675418 0)
(1.00072 -0.000935584 0)
(0.999089 -0.00131724 0)
(0.998814 -0.00120831 0)
(0.998087 0.000864967 0)
(0.999632 0.00198846 0)
(1.00074 0.00169687 0)
(1.00152 0.00135645 0)
(1.00088 0.00178037 0)
(1.00107 0.00221463 0)
(1.00146 0.00177592 0)
(1.00185 0.00198364 0)
(1.0016 0.00203575 0)
(1.00095 0.00274081 0)
(1.00006 0.00312018 0)
(0.998966 0.00350605 0)
(0.997166 0.00365951 0)
(1.00083 -0.000934557 0)
(0.997905 -0.00387092 0)
(0.996334 -0.00014275 0)
(0.999028 0.000467155 0)
(1.00065 -0.000913317 0)
(0.999084 -0.00122685 0)
(0.998995 -0.000927508 0)
(0.998327 0.000924845 0)
(0.999709 0.00198753 0)
(1.00069 0.00176667 0)
(1.00155 0.0014012 0)
(1.00102 0.00168893 0)
(1.00111 0.00229529 0)
(1.00146 0.00194052 0)
(1.00192 0.00214144 0)
(1.00177 0.0021795 0)
(1.00121 0.00275668 0)
(1.00029 0.00317733 0)
(0.999156 0.00352568 0)
(0.997314 0.00375867 0)
(1.00076 -0.000866747 0)
(0.998074 -0.00366909 0)
(0.99659 -0.00029164 0)
(0.999046 0.000332075 0)
(1.0006 -0.00104865 0)
(0.999108 -0.00088833 0)
(0.999143 -0.000750291 0)
(0.998557 0.000840066 0)
(0.999795 0.00187039 0)
(1.00065 0.00176885 0)
(1.00155 0.00145175 0)
(1.00115 0.0015949 0)
(1.00117 0.00230989 0)
(1.00147 0.00208046 0)
(1.00198 0.00223843 0)
(1.00192 0.00228774 0)
(1.00147 0.00276075 0)
(1.00053 0.0032153 0)
(0.999375 0.00354398 0)
(0.997474 0.00381812 0)
(1.00069 -0.000772874 0)
(0.998234 -0.00352499 0)