/*--------------------------------*- C++ -*----------------------------------*\
| =========                 |                                                 |
| \\      /  F ield         | OpenFOAM: The Open Source CFD Toolbox           |
|  \\    /   O peration     | Version:  v2012                                 |
|   \\  /    A nd           | Website:  www.openfoam.com                      |
|    \\/     M anipulation  |                                                 |
\*---------------------------------------------------------------------------*/
FoamFile
{
    version     2.0;
    format      ascii;
    class       volScalarField;
    location    "1.1";
    object      p;
}
// * * * * * * * * * * * * * * * * * * * * * * * * * * * * * * * * * * * * * //

dimensions      [0 2 -2 0 0 0 0];


internalField   nonuniform List<scalar> 
7000
(
-3.11263e-09
-0.000654646
-0.00431602
0.00611982
0.00690189
0.010399
0.0139066
0.0167736
0.0172486
0.0160194
0.0153281
0.0163174
0.0146991
0.0190003
0.017985
0.0198985
0.0197329
0.0213283
0.022723
0.0249714
1.09539e-06
-0.000667817
-0.00430569
0.00613466
0.00687598
0.0103962
0.0139067
0.0167754
0.0172465
0.0160194
0.0153411
0.0162999
0.01471
0.018937
0.0179886
0.0198734
0.0197294
0.0213142
0.0227229
0.0248548
1.59493e-06
-0.000672464
-0.00429479
0.0061364
0.00684061
0.0103983
0.0139066
0.0167824
0.0172451
0.0160179
0.0153535
0.0162685
0.0147262
0.0188537
0.0180064
0.019826
0.019737
0.0212837
0.0227235
0.0246709
2.51256e-06
-0.000661974
-0.00427591
0.00612369
0.00680817
0.0104062
0.0139049
0.0167934
0.0172425
0.0160142
0.0153677
0.0162223
0.0147525
0.0187565
0.0180243
0.0197716
0.0197483
0.0212503
0.0227147
0.0244789
4.48558e-06
-0.000637493
-0.00424637
0.00609855
0.00678248
0.0104158
0.0139019
0.0168061
0.017238
0.0160095
0.0153845
0.0161672
0.0147936
0.0186465
0.0180421
0.0197136
0.0197615
0.0212161
0.0226959
0.0243046
7.48786e-06
-0.00060041
-0.00420188
0.0060651
0.00676599
0.0104252
0.0138991
0.0168186
0.0172316
0.0160042
0.015403
0.0161114
0.0148496
0.0185284
0.0180641
0.0196507
0.0197787
0.0211788
0.0226692
0.02415
1.13546e-05
-0.000551648
-0.00414148
0.00602752
0.00676044
0.0104344
0.0138978
0.0168293
0.0172239
0.0159981
0.0154228
0.0160606
0.0149186
0.0184069
0.0180908
0.0195823
0.0197995
0.0211373
0.0226344
0.0240082
1.58991e-05
-0.000491967
-0.00406523
0.00598906
0.00676602
0.0104436
0.0138955
0.0168374
0.017215
0.0159908
0.0154439
0.0160163
0.0149991
0.0182844
0.0181206
0.0195088
0.0198208
0.0210925
0.02259
0.0238744
2.09388e-05
-0.000421718
-0.00397422
0.00595122
0.00678112
0.0104529
0.0138915
0.0168423
0.0172051
0.015982
0.0154663
0.0159778
0.0150901
0.0181609
0.0181524
0.0194306
0.0198396
0.0210467
0.0225345
0.023747
2.63643e-05
-0.000341056
-0.00386974
0.00591427
0.00680332
0.0104618
0.0138844
0.0168431
0.0171937
0.0159713
0.0154901
0.0159437
0.0151901
0.0180361
0.0181857
0.0193487
0.019854
0.0210019
0.0224675
0.0236245
3.21808e-05
-0.000250274
-0.00375321
0.00587807
0.00683069
0.01047
0.013873
0.0168395
0.0171804
0.0159585
0.0155153
0.0159132
0.0152978
0.0179102
0.0182198
0.019265
0.0198624
0.0209591
0.0223889
0.0235048
3.85097e-05
-0.000150039
-0.00362618
0.0058428
0.00686252
0.0104775
0.0138566
0.0168305
0.017165
0.0159435
0.0155418
0.0158859
0.0154117
0.0177858
0.0182537
0.0191832
0.0198631
0.0209178
0.0222998
0.0233862
4.55554e-05
-4.14342e-05
-0.00349036
0.00580913
0.00689921
0.0104846
0.0138348
0.0168159
0.0171473
0.0159259
0.0155695
0.0158619
0.0155304
0.017666
0.0182863
0.019107
0.0198553
0.0208774
0.0222026
0.023267
5.35602e-05
7.41896e-05
-0.00334737
0.005778
0.00694163
0.0104918
0.0138076
0.0167951
0.0171273
0.0159055
0.0155983
0.0158413
0.0156514
0.0175538
0.0183164
0.0190402
0.0198392
0.0208376
0.0221002
0.0231463
6.27621e-05
0.000195428
-0.00319856
0.00575023
0.00699061
0.0104998
0.0137757
0.016768
0.0171055
0.0158822
0.0156284
0.0158237
0.0157733
0.0174526
0.0183426
0.0189856
0.0198159
0.0207978
0.0219956
0.023024
7.33661e-05
0.000321025
-0.00304477
0.00572627
0.00704658
0.0105091
0.0137399
0.0167349
0.0170824
0.015856
0.0156598
0.0158088
0.0158945
0.0173646
0.0183637
0.0189443
0.0197866
0.0207573
0.0218909
0.0229004
8.55399e-05
0.00044998
-0.00288636
0.00570613
0.00710897
0.0105198
0.0137013
0.0166961
0.0170585
0.015827
0.0156924
0.0157964
0.0160133
0.017291
0.0183784
0.0189156
0.0197523
0.0207151
0.0217876
0.0227758
9.94261e-05
0.000581544
-0.0027234
0.00568958
0.00717696
0.0105317
0.013661
0.0166522
0.0170348
0.0157953
0.0157261
0.0157868
0.0161286
0.0172321
0.0183855
0.0188977
0.0197134
0.0206698
0.0216859
0.0226507
0.000115159
0.00071514
-0.00255582
0.00567628
0.0072496
0.0105444
0.01362
0.0166035
0.0170115
0.0157613
0.0157601
0.0157804
0.0162391
0.0171874
0.0183843
0.0188876
0.0196702
0.02062
0.0215855
0.0225252
0.000132877
0.000850281
-0.00238362
0.00566591
0.00732603
0.0105574
0.0135792
0.0165506
0.0169893
0.0157253
0.0157936
0.0157783
0.0163433
0.017156
0.0183742
0.0188822
0.0196231
0.0205647
0.0214857
0.0223997
0.000152731
0.000986515
-0.00220687
0.00565819
0.00740549
0.0105702
0.0135394
0.016494
0.0169683
0.0156879
0.0158258
0.0157816
0.0164401
0.0171368
0.0183551
0.0188783
0.0195726
0.0205031
0.0213862
0.0222744
0.000174884
0.00112342
-0.00202564
0.00565284
0.00748725
0.0105825
0.0135012
0.0164341
0.0169488
0.0156496
0.015855
0.0157911
0.0165283
0.0171287
0.0183277
0.018873
0.0195186
0.0204345
0.0212865
0.02215
0.000199504
0.00126064
-0.00183991
0.00564954
0.00757059
0.0105937
0.0134653
0.0163713
0.0169305
0.0156115
0.0158802
0.0158071
0.0166067
0.0171298
0.018293
0.0188644
0.0194614
0.0203577
0.021186
0.0220274
0.000226764
0.00139792
-0.00164956
0.00564801
0.00765484
0.0106035
0.013432
0.0163061
0.0169129
0.0155751
0.0159002
0.0158296
0.0166751
0.0171381
0.0182513
0.0188506
0.0194018
0.0202725
0.0210837
0.0219072
0.000256837
0.00153513
-0.00145439
0.00564806
0.00773949
0.0106113
0.0134017
0.0162393
0.0168952
0.0155415
0.0159142
0.0158582
0.0167336
0.0171514
0.0182033
0.0188297
0.0193403
0.0201796
0.0209795
0.02179
0.000289903
0.0016722
-0.00125417
0.00564963
0.00782425
0.0106171
0.0133742
0.0161714
0.0168764
0.0155117
0.0159214
0.0158929
0.0167823
0.0171672
0.0181501
0.0188013
0.0192784
0.0200787
0.0208713
0.0216762
0.000326149
0.00180913
-0.00104872
0.00565281
0.00790908
0.0106206
0.0133493
0.0161035
0.0168554
0.0154866
0.0159212
0.015933
0.0168219
0.0171834
0.0180925
0.0187631
0.0192179
0.0199747
0.0207583
0.0215624
0.000365785
0.00194589
-0.000837928
0.00565779
0.00799409
0.0106222
0.0133266
0.0160362
0.0168313
0.0154668
0.0159138
0.015977
0.0168537
0.0171987
0.0180318
0.018713
0.0191542
0.0198745
0.0206473
0.0214439
0.00040904
0.00208241
-0.000621745
0.00566474
0.00807949
0.010622
0.0133052
0.0159705
0.0168032
0.015452
0.0158999
0.0160245
0.0168789
0.0172111
0.0179665
0.0186529
0.0190825
0.0197773
0.020546
0.021322
0.000456146
0.00221856
-0.0004002
0.00567399
0.00816532
0.0106205
0.0132843
0.0159075
0.0167707
0.0154426
0.0158793
0.0160746
0.0168983
0.0172225
0.0178951
0.0185811
0.0190011
0.0196798
0.0204563
0.0212005
0.000507334
0.00235419
-0.000173312
0.00568592
0.00825141
0.0106184
0.0132626
0.0158479
0.0167332
0.0154379
0.0158533
0.0161247
0.0169128
0.0172334
0.0178213
0.0184949
0.018907
0.0195729
0.0203754
0.0210849
0.000562889
0.00248904
5.88715e-05
0.00570072
0.00833773
0.0106164
0.0132397
0.0157917
0.016692
0.0154353
0.0158265
0.0161703
0.0169282
0.0172368
0.0177524
0.0184012
0.0188004
0.0194515
0.0202612
0.0209805
0.000623085
0.00262283
0.000296166
0.00571872
0.00842407
0.010615
0.0132147
0.015739
0.0166475
0.015433
0.0158019
0.0162095
0.0169465
0.0172313
0.0176875
0.0183009
0.0186833
0.0193106
0.0201039
0.0208927
0.000688143
0.00275534
0.00053838
0.00574047
0.00850978
0.0106153
0.013187
0.0156905
0.0165998
0.0154312
0.0157789
0.0162457
0.0169649
0.017225
0.017622
0.0181863
0.0185545
0.0191433
0.0199278
0.0208243
0.000758351
0.00288629
0.000785352
0.00576638
0.00859424
0.010618
0.013156
0.0156457
0.0165501
0.015429
0.0157566
0.0162809
0.0169803
0.0172204
0.0175462
0.0180481
0.0184134
0.0189648
0.0197671
0.0207738
0.000834029
0.00301536
0.00103676
0.00579683
0.00867696
0.0106239
0.0131221
0.0156033
0.0165003
0.015425
0.0157362
0.016314
0.0169874
0.0172067
0.0174568
0.0179111
0.018265
0.0187856
0.01963
0.0207351
0.000915406
0.0031424
0.0012921
0.00583241
0.00875741
0.010634
0.013085
0.0155625
0.0164517
0.0154189
0.0157154
0.0163461
0.0169849
0.0171743
0.0173658
0.0177766
0.0181146
0.0186285
0.0195146
0.0206918
0.00100271
0.00326728
0.00155103
0.00587369
0.00883497
0.0106489
0.0130452
0.0155219
0.0164055
0.0154115
0.0156909
0.0163768
0.0169754
0.0171234
0.0172757
0.017645
0.0179752
0.018497
0.0194047
0.0206276
0.00109628
0.00338981
0.00181317
0.00592136
0.00890901
0.0106688
0.0130041
0.0154787
0.0163631
0.0154026
0.0156627
0.0164018
0.0169615
0.0170644
0.0171821
0.0175201
0.0178549
0.0183763
0.0192768
0.0205509
0.00119635
0.0035099
0.00207779
0.00597624
0.00897921
0.0106937
0.012963
0.0154318
0.0163251
0.0153923
0.0156293
0.0164191
0.0169477
0.0169915
0.0170841
0.0174042
0.0177437
0.018251
0.0191385
0.0204793
0.00130311
0.00362767
0.0023441
0.00603897
0.00904564
0.0107232
0.0129233
0.0153802
0.0162893
0.0153838
0.0155874
0.0164274
0.0169372
0.0169158
0.0169868
0.0172942
0.0176284
0.0181247
0.0190111
0.0204143
0.00141686
0.00374316
0.00261143
0.00611012
0.00910832
0.0107569
0.0128868
0.0153229
0.0162548
0.0153771
0.0155381
0.0164249
0.0169296
0.0168508
0.0168877
0.0171805
0.0175091
0.0180122
0.0188994
0.0203482
0.00153787
0.00385653
0.0028789
0.00619025
0.00916759
0.0107939
0.0128539
0.0152599
0.0162201
0.0153722
0.0154834
0.0164095
0.0169256
0.0167757
0.0167784
0.0170611
0.0173973
0.0179169
0.0187975
0.0202798
0.00166621
0.00396811
0.00314555
0.00627971
0.00922415
0.0108327
0.0128272
0.0151928
0.0161823
0.0153709
0.0154231
0.0163806
0.0169268
0.016703
0.0166611
0.0169414
0.0172935
0.0178307
0.018707
0.0202158
0.00180213
0.00407822
0.00341049
0.00637875
0.00927885
0.0108721
0.0128072
0.0151229
0.0161399
0.0153718
0.0153602
0.0163388
0.0169278
0.0166579
0.0165447
0.0168162
0.0171882
0.0177523
0.0186355
0.0201604
0.00194591
0.00418733
0.0036729
0.00648719
0.00933282
0.0109113
0.012793
0.0150515
0.0160918
0.0153741
0.0152979
0.0162823
0.0169262
0.0166294
0.0164292
0.0166816
0.0170816
0.0176835
0.0185839
0.0201149
0.00209761
0.00429227
0.0039319
0.00660461
0.00938758
0.0109497
0.0127831
0.0149798
0.0160376
0.0153783
0.0152369
0.0162118
0.0169204
0.0166128
0.0163201
0.0165435
0.0169714
0.0176158
0.0185493
0.0200847
0.0022587
0.00440071
0.0041867
0.00673062
0.00944431
0.0109872
0.0127759
0.0149081
0.0159777
0.0153836
0.0151794
0.0161295
0.0169045
0.0166075
0.0162271
0.0164041
0.01685
0.017544
0.0185318
0.0200733
0.00242619
0.00451027
0.00443691
0.00686427
0.00950374
0.0110246
0.0127702
0.0148363
0.0159126
0.0153896
0.0151279
0.0160359
0.016876
0.0166128
0.0161519
0.0162626
0.016719
0.0174663
0.0185226
0.0200772
0.00260148
0.00462137
0.00468205
0.00700441
0.00956674
0.0110631
0.0127649
0.0147643
0.0158428
0.0153964
0.0150842
0.0159324
0.0168334
0.0166229
0.0160949
0.0161262
0.0165849
0.0173787
0.0185074
0.0200929
0.00278476
0.00473466
0.00492188
0.00715002
0.00963369
0.0111032
0.0127598
0.0146919
0.0157686
0.0154031
0.0150501
0.0158211
0.0167743
0.0166333
0.0160581
0.0160026
0.0164485
0.0172778
0.018478
0.0201162
0.00297565
0.00485083
0.00515646
0.00729976
0.00970407
0.0111463
0.0127557
0.0146191
0.0156897
0.0154085
0.0150276
0.0157043
0.0166977
0.0166407
0.0160397
0.0158958
0.0163113
0.0171638
0.0184345
0.0201386
0.00317428
0.00497055
0.00538588
0.00745244
0.00977701
0.0111932
0.0127539
0.0145462
0.0156063
0.015411
0.0150182
0.0155858
0.0166027
0.0166411
0.0160364
0.0158092
0.0161788
0.0170423
0.0183689
0.0201513
0.00338047
0.00509441
0.00561041
0.00760727
0.00985136
0.0112441
0.0127556
0.0144743
0.0155189
0.0154083
0.0150222
0.01547
0.0164894
0.0166312
0.0160444
0.0157451
0.0160559
0.0169157
0.0182842
0.0201493
0.00359402
0.00522319
0.00583023
0.00776344
0.00992645
0.0112989
0.0127615
0.0144043
0.0154283
0.015398
0.0150388
0.0153633
0.0163583
0.0166081
0.0160598
0.0157032
0.0159459
0.0167888
0.0181841
0.0201314
0.00381458
0.00535762
0.00604567
0.00792049
0.0100017
0.0113561
0.0127723
0.0143378
0.0153359
0.0153783
0.0150656
0.0152714
0.0162113
0.0165685
0.016078
0.0156801
0.0158521
0.0166673
0.018078
0.0200998
0.00404176
0.0054984
0.00625724
0.00807794
0.0100763
0.0114145
0.0127883
0.0142762
0.0152437
0.0153487
0.0150978
0.0151994
0.0160529
0.0165097
0.0160948
0.015673
0.0157775
0.0165551
0.0179721
0.0200591
0.00427523
0.00564619
0.00646545
0.00823543
0.0101496
0.0114723
0.0128094
0.0142211
0.0151542
0.0153093
0.0151305
0.0151506
0.0158893
0.0164286
0.0161071
0.0156793
0.0157219
0.0164538
0.0178721
0.0200155
0.00451456
0.00580144
0.00667103
0.00839323
0.0102212
0.011527
0.0128353
0.0141746
0.0150697
0.0152615
0.0151578
0.015126
0.0157287
0.0163241
0.0161109
0.0156946
0.0156844
0.0163674
0.0177834
0.0199737
0.00475933
0.00596444
0.00687446
0.00855163
0.0102912
0.0115764
0.0128651
0.014138
0.0149923
0.0152074
0.0151745
0.0151235
0.0155805
0.0161974
0.0161011
0.0157154
0.0156661
0.0163
0.0177076
0.0199346
0.00500929
0.00613512
0.00707582
0.00871102
0.0103604
0.0116193
0.0128968
0.0141118
0.0149241
0.0151503
0.0151771
0.0151379
0.0154537
0.0160531
0.0160729
0.0157389
0.015666
0.0162512
0.0176439
0.0199002
0.00526423
0.00631321
0.007275
0.00887145
0.01043
0.0116558
0.0129286
0.014096
0.0148658
0.0150932
0.0151643
0.0151615
0.0153553
0.0158995
0.0160223
0.0157601
0.0156802
0.0162203
0.017594
0.019873
0.00552374
0.00649849
0.00747189
0.00903252
0.0105016
0.0116871
0.0129593
0.0140897
0.0148174
0.0150394
0.0151374
0.0151859
0.0152876
0.0157455
0.0159478
0.0157725
0.0157051
0.0162092
0.0175602
0.0198523
0.00578719
0.00669085
0.00766666
0.00919361
0.0105768
0.0117149
0.0129872
0.0140912
0.0147783
0.0149914
0.0150991
0.0152027
0.0152481
0.0156021
0.0158524
0.0157708
0.0157378
0.0162177
0.0175412
0.0198378
0.00605396
0.00689018
0.0078597
0.0093539
0.0106573
0.0117413
0.0130106
0.0140984
0.0147484
0.0149513
0.0150536
0.0152063
0.0152303
0.0154799
0.0157438
0.0157517
0.0157721
0.0162419
0.0175379
0.019832
0.00632348
0.00709621
0.00805125
0.00951296
0.0107441
0.0117679
0.0130275
0.0141089
0.0147271
0.0149202
0.0150061
0.0151941
0.0152271
0.0153854
0.0156324
0.0157145
0.0158008
0.0162788
0.017552
0.0198358
0.00659521
0.0073086
0.00824159
0.00967052
0.0108379
0.0117964
0.0130373
0.0141203
0.014714
0.0148982
0.0149611
0.0151662
0.0152311
0.0153189
0.0155285
0.0156621
0.0158189
0.0163236
0.0175814
0.0198485
0.00686861
0.00752693
0.00843121
0.00982624
0.0109386
0.011829
0.0130404
0.0141299
0.0147083
0.0148849
0.0149225
0.0151258
0.0152283
0.0152743
0.015439
0.0156012
0.0158239
0.0163687
0.0176219
0.0198714
0.00714326
0.00775075
0.0086204
0.00997969
0.0110457
0.0118676
0.0130376
0.0141353
0.0147084
0.0148796
0.0148933
0.0150783
0.0152146
0.0152447
0.0153671
0.0155391
0.0158151
0.0164072
0.0176694
0.0199042
0.00741893
0.00797972
0.00880928
0.0101303
0.0111584
0.0119144
0.0130306
0.0141344
0.0147125
0.0148814
0.0148751
0.0150292
0.0151898
0.0152225
0.0153122
0.0154812
0.0157953
0.0164355
0.0177179
0.0199437
0.00769531
0.00821345
0.00899809
0.0102774
0.0112753
0.0119707
0.0130222
0.014126
0.0147179
0.014889
0.0148681
0.0149832
0.0151554
0.0152014
0.0152706
0.0154311
0.0157692
0.016452
0.0177611
0.0199859
0.00797197
0.00845147
0.00918712
0.010421
0.0113951
0.0120373
0.0130157
0.01411
0.0147219
0.0149008
0.0148715
0.0149441
0.0151142
0.0151774
0.0152378
0.0153904
0.0157414
0.0164575
0.0177948
0.0200266
0.00824829
0.00869317
0.00937692
0.0105612
0.0115162
0.0121135
0.0130138
0.0140872
0.0147222
0.0149147
0.0148841
0.0149149
0.0150695
0.0151487
0.0152093
0.0153578
0.0157151
0.0164547
0.017818
0.0200627
0.00852359
0.00893777
0.00956837
0.0106987
0.0116368
0.0121982
0.0130194
0.0140592
0.0147172
0.0149283
0.0149032
0.0148975
0.0150253
0.015115
0.0151808
0.01533
0.0156912
0.016447
0.017832
0.0200926
0.00879717
0.00918451
0.00976224
0.010834
0.0117553
0.0122898
0.0130343
0.0140288
0.014706
0.0149398
0.0149257
0.0148916
0.0149858
0.015078
0.0151502
0.0153037
0.0156696
0.0164371
0.0178392
0.0201159
0.00906845
0.00943259
0.00995888
0.0109678
0.011871
0.0123862
0.0130593
0.0139988
0.0146887
0.0149477
0.0149486
0.014895
0.0149532
0.0150398
0.0151169
0.0152765
0.0156491
0.0164264
0.0178425
0.020134
0.00933712
0.00968111
0.0101582
0.0111009
0.0119831
0.0124854
0.0130946
0.0139722
0.0146654
0.0149505
0.0149694
0.014906
0.0149297
0.0150031
0.0150818
0.0152465
0.0156271
0.0164142
0.0178432
0.0201484
0.00960285
0.00992918
0.0103598
0.0112338
0.0120916
0.0125856
0.0131392
0.0139513
0.0146371
0.0149474
0.0149866
0.0149247
0.0149162
0.0149701
0.0150463
0.0152135
0.0156014
0.0163986
0.0178404
0.020159
0.00986532
0.0101759
0.0105634
0.0113671
0.0121962
0.0126854
0.0131918
0.0139379
0.0146059
0.0149376
0.0149987
0.014942
0.01491
0.0149417
0.0150116
0.0151785
0.0155717
0.0163783
0.0178325
0.0201644
0.0101243
0.0104204
0.0107681
0.0115012
0.012297
0.0127834
0.0132509
0.0139331
0.0145741
0.014921
0.0150048
0.0149559
0.0149081
0.0149174
0.014978
0.0151423
0.0155384
0.0163529
0.0178187
0.0201639
0.0103793
0.010662
0.0109732
0.0116365
0.0123942
0.0128785
0.0133146
0.0139366
0.0145441
0.014898
0.0150043
0.0149655
0.0149076
0.0148963
0.0149449
0.0151051
0.0155013
0.0163213
0.0177973
0.0201562
0.0106302
0.0108996
0.011178
0.0117733
0.012488
0.0129699
0.0133812
0.0139476
0.0145183
0.0148694
0.014996
0.0149703
0.0149063
0.0148769
0.0149118
0.0150664
0.0154606
0.0162836
0.0177675
0.0201393
0.0108762
0.0111326
0.0113816
0.0119118
0.0125787
0.0130569
0.013449
0.0139642
0.0144979
0.0148377
0.0149787
0.0149693
0.0149027
0.0148577
0.0148774
0.0150249
0.0154161
0.0162402
0.01773
0.0201131
0.011117
0.0113601
0.0115831
0.0120518
0.0126668
0.0131389
0.013517
0.0139843
0.0144821
0.0148057
0.0149531
0.0149605
0.0148954
0.0148378
0.0148409
0.0149792
0.0153665
0.0161905
0.0176846
0.020077
0.011352
0.0115817
0.0117815
0.0121928
0.0127527
0.0132151
0.0135844
0.0140066
0.0144688
0.0147758
0.0149211
0.0149415
0.0148818
0.0148156
0.0148025
0.0149287
0.0153104
0.016133
0.01763
0.0200301
0.0115807
0.0117968
0.0119755
0.0123344
0.012837
0.0132845
0.0136499
0.0140312
0.0144561
0.014748
0.0148788
0.0149105
0.0148585
0.0147881
0.0147613
0.0148734
0.015247
0.0160664
0.0175649
0.0199706
0.0118025
0.0120049
0.0121638
0.0124754
0.012921
0.0133473
0.013711
0.0140575
0.014442
0.0147219
0.0148405
0.0148717
0.014824
0.0147516
0.0147146
0.0148122
0.0151754
0.0159895
0.0174878
0.0198973
0.0120165
0.0122062
0.0123461
0.012614
0.0130047
0.013404
0.0137654
0.0140852
0.0144264
0.0146945
0.0148058
0.0148286
0.0147803
0.0147041
0.0146587
0.014742
0.0150925
0.0158982
0.0173947
0.0198065
0.0122213
0.0123996
0.0125223
0.0127493
0.0130871
0.0134559
0.0138113
0.0141119
0.0144105
0.0146636
0.0147727
0.0147836
0.014729
0.0146466
0.0145926
0.014662
0.014998
0.0157916
0.0172808
0.0196919
0.012416
0.0125849
0.012692
0.0128804
0.0131657
0.0135011
0.0138488
0.0141373
0.014394
0.0146305
0.0147423
0.0147408
0.0146738
0.0145803
0.0145157
0.0145711
0.0148901
0.0156667
0.0171435
0.0195497
0.0125992
0.0127626
0.0128549
0.0130069
0.0132411
0.0135359
0.013867
0.0141568
0.0143871
0.0145749
0.0146984
0.0146913
0.0146121
0.0145048
0.0144282
0.0144689
0.0147713
0.0155305
0.0169887
0.0193773
0.0127678
0.0129359
0.0130163
0.01313
0.0133147
0.0135701
0.01387
0.0141554
0.0143985
0.0146769
0.0146951
0.014659
0.014564
0.014439
0.0143453
0.0143717
0.0146583
0.015402
0.0168441
0.0192171
0.0129154
0.0130912
0.0131645
0.0132403
0.013375
0.0136
0.013885
0.0141398
0.0143093
0.014395
0.0145652
0.0145619
0.014459
0.0143125
0.0141882
0.014186
0.0144457
0.0151653
0.0165899
0.0189525
0.0130902
0.0132459
0.0132906
0.0133226
0.0134005
0.0135911
0.0138864
0.0142117
0.0144405
0.0146312
0.0146767
0.01466
0.014553
0.0143758
0.014186
0.0140809
0.0142155
0.0148017
0.0160969
0.0183375
0.0131801
0.0134133
0.0134437
0.0134163
0.0134346
0.0136015
0.0138064
0.0140153
0.0141364
0.0142501
0.0143858
0.0144407
0.0144204
0.0144
0.0144117
0.0145308
0.0148414
0.0155059
0.016777
0.0189299
0.013432
0.0134608
0.0134336
0.0134233
0.0134927
0.0137149
0.0140196
0.0143271
0.0146302
0.0147672
0.0147345
0.0146228
0.0143428
0.0139131
0.0134354
0.0130406
0.0129539
0.0133143
0.0144143
0.0164772
0.013722
0.0134583
0.0134134
0.0134181
0.0135257
0.0135652
0.0135706
0.0136059
0.0137193
0.0140312
0.0143867
0.0146342
0.014942
0.0154224
0.0161781
0.0171915
0.0182626
0.0191778
0.0195369
0.0190092
0.0137736
0.0135424
0.0134431
0.0135056
0.0136773
0.0139123
0.0142304
0.0145248
0.0147427
0.0147974
0.0146606
0.0143036
0.0137161
0.012982
0.0122464
0.0116251
0.0112636
0.0113756
0.0122138
0.0140147
0.0139784
0.0135607
0.0134233
0.0134782
0.0136856
0.0138012
0.0138661
0.0138568
0.0138773
0.0140423
0.0142033
0.0142331
0.0142795
0.0144735
0.0149086
0.0155876
0.0164375
0.0171908
0.0174683
0.0169108
0.0140002
0.0135621
0.013434
0.013573
0.0139055
0.0142814
0.0147098
0.0150347
0.0151646
0.014985
0.0144903
0.0136225
0.0123963
0.0109715
0.00962062
0.00858386
0.00803911
0.00814902
0.00911835
0.0111344
0.0284829
0.0185712
0.0150048
0.0167775
0.0191651
0.0210512
0.0225905
0.0241284
0.0257951
0.0275702
0.0294784
0.0313314
0.0329994
0.0347593
0.0366754
0.0385589
0.0404548
0.0424696
0.0446164
0.0467945
0.0487751
0.0506391
0.0528972
0.0554958
0.058094
0.0606739
0.0632788
0.0660195
0.0688315
0.0717598
0.0748087
0.0779848
0.0812745
0.0846452
0.0881641
0.0918532
0.095669
0.0996136
0.103717
0.107887
0.112347
0.116897
0.121589
0.126526
0.131484
0.136797
0.142068
0.14757
0.15308
0.15823
0.0282418
0.0186288
0.0150495
0.0167971
0.019176
0.0210581
0.0225953
0.0241319
0.0257978
0.0275723
0.0294801
0.031333
0.0330007
0.0347604
0.0366765
0.0385599
0.0404557
0.0424704
0.0446172
0.0467952
0.0487757
0.0506397
0.0528977
0.0554963
0.0580944
0.0606743
0.0632792
0.0660198
0.0688318
0.0717601
0.0748089
0.077985
0.0812747
0.0846454
0.0881642
0.0918534
0.0956691
0.0996137
0.103717
0.107887
0.112347
0.116897
0.121589
0.126526
0.131484
0.136797
0.142068
0.14757
0.15308
0.15823
0.0279671
0.0187303
0.0151214
0.0168202
0.0191879
0.0210657
0.0226003
0.0241354
0.0258004
0.0275743
0.0294817
0.0313344
0.0330019
0.0347614
0.0366774
0.0385608
0.0404565
0.0424712
0.0446178
0.0467959
0.0487764
0.0506402
0.0528981
0.0554967
0.0580948
0.0606746
0.0632795
0.0660201
0.068832
0.0717603
0.0748091
0.0779852
0.0812749
0.0846456
0.0881643
0.0918535
0.0956692
0.0996138
0.103717
0.107887
0.112348
0.116897
0.121589
0.126526
0.131484
0.136797
0.142068
0.14757
0.15308
0.15823
0.0277215
0.0188719
0.0152262
0.0168522
0.0192036
0.021076
0.0226069
0.02414
0.0258036
0.0275766
0.0294836
0.031336
0.0330032
0.0347624
0.0366783
0.0385616
0.0404573
0.0424719
0.0446185
0.0467966
0.048777
0.0506406
0.0528984
0.0554971
0.0580952
0.060675
0.0632798
0.0660204
0.0688323
0.0717605
0.0748093
0.0779854
0.0812751
0.0846457
0.0881645
0.0918536
0.0956693
0.0996139
0.103717
0.107887
0.112348
0.116897
0.121589
0.126526
0.131484
0.136797
0.142068
0.14757
0.15308
0.15823
0.0274888
0.019034
0.0153553
0.0168926
0.0192242
0.0210903
0.0226164
0.0241465
0.0258084
0.0275799
0.0294859
0.0313379
0.0330048
0.0347637
0.0366793
0.0385625
0.0404581
0.0424727
0.0446193
0.0467974
0.0487778
0.0506411
0.0528988
0.0554976
0.0580956
0.0606754
0.0632801
0.0660207
0.0688326
0.0717608
0.0748095
0.0779856
0.0812752
0.0846459
0.0881646
0.0918538
0.0956694
0.099614
0.103717
0.107887
0.112348
0.116897
0.121589
0.126526
0.131484
0.136797
0.142068
0.14757
0.15308
0.15823
0.0272473
0.0192033
0.0154977
0.016938
0.0192486
0.0211086
0.0226291
0.0241556
0.025815
0.0275845
0.029489
0.0313403
0.0330068
0.0347653
0.0366805
0.0385633
0.0404588
0.0424735
0.04462
0.0467982
0.0487786
0.0506416
0.0528992
0.0554981
0.0580961
0.0606758
0.0632805
0.066021
0.0688329
0.071761
0.0748097
0.0779858
0.0812754
0.0846461
0.0881648
0.0918539
0.0956696
0.0996142
0.103718
0.107887
0.112348
0.116897
0.121589
0.126526
0.131484
0.136797
0.142068
0.14757
0.15308
0.15823
0.0269935
0.0193755
0.0156485
0.0169857
0.0192749
0.0211299
0.0226448
0.0241672
0.0258237
0.0275905
0.029493
0.0313433
0.0330095
0.0347674
0.0366819
0.0385642
0.0404596
0.0424742
0.0446208
0.0467992
0.0487796
0.0506422
0.0528997
0.0554987
0.0580967
0.0606763
0.063281
0.0660214
0.0688332
0.0717613
0.07481
0.077986
0.0812757
0.0846463
0.088165
0.0918541
0.0956697
0.0996143
0.103718
0.107888
0.112348
0.116897
0.121589
0.126526
0.131484
0.136797
0.142068
0.14757
0.15308
0.158231
0.0267319
0.0195496
0.0158056
0.0170346
0.0193021
0.021153
0.0226626
0.0241806
0.025834
0.027598
0.0294978
0.0313467
0.0330127
0.0347702
0.0366838
0.0385653
0.0404604
0.0424748
0.0446214
0.0468002
0.0487807
0.050643
0.0529003
0.0554993
0.0580973
0.0606768
0.0632814
0.0660218
0.0688336
0.0717617
0.0748103
0.0779863
0.0812759
0.0846465
0.0881652
0.0918543
0.0956699
0.0996145
0.103718
0.107888
0.112348
0.116897
0.121589
0.126526
0.131484
0.136797
0.142068
0.14757
0.15308
0.158231
0.0264663
0.019724
0.0159686
0.0170845
0.0193295
0.0211773
0.0226819
0.0241955
0.0258455
0.0276065
0.0295035
0.0313507
0.0330164
0.0347736
0.0366862
0.0385668
0.0404613
0.0424754
0.0446219
0.0468011
0.048782
0.0506439
0.052901
0.0555001
0.0580979
0.0606774
0.063282
0.0660224
0.0688341
0.0717621
0.0748107
0.0779866
0.0812762
0.0846468
0.0881655
0.0918545
0.0956701
0.0996146
0.103718
0.107888
0.112348
0.116898
0.121589
0.126526
0.131484
0.136797
0.142069
0.14757
0.153081
0.158232
0.0261989
0.0198974
0.0161374
0.0171355
0.019357
0.0212024
0.0227022
0.0242112
0.0258578
0.0276159
0.0295099
0.031355
0.0330204
0.0347775
0.0366891
0.0385686
0.0404625
0.042476
0.0446221
0.0468018
0.0487833
0.0506451
0.0529019
0.0555009
0.0580986
0.060678
0.0632826
0.066023
0.0688347
0.0717627
0.0748112
0.077987
0.0812765
0.0846471
0.0881658
0.0918548
0.0956703
0.0996148
0.103718
0.107888
0.112348
0.116898
0.121589
0.126526
0.131484
0.136797
0.142069
0.147571
0.153081
0.158233
0.0259322
0.0200691
0.016312
0.0171882
0.0193846
0.0212283
0.0227234
0.0242277
0.0258707
0.0276257
0.0295168
0.0313597
0.0330246
0.0347817
0.0366925
0.0385709
0.040464
0.0424768
0.0446221
0.0468022
0.0487846
0.0506464
0.0529032
0.055502
0.0580994
0.0606787
0.0632833
0.0660237
0.0688354
0.0717633
0.0748117
0.0779875
0.0812769
0.0846474
0.0881662
0.0918551
0.0956706
0.0996151
0.103718
0.107888
0.112349
0.116898
0.12159
0.126527
0.131485
0.136797
0.142069
0.147571
0.153082
0.158233
0.0256695
0.0202388
0.0164921
0.0172427
0.019412
0.0212547
0.0227453
0.0242449
0.025884
0.0276359
0.0295241
0.0313647
0.0330289
0.034786
0.0366961
0.0385736
0.0404659
0.0424777
0.044622
0.0468021
0.0487855
0.0506478
0.0529047
0.0555034
0.0581002
0.0606793
0.063284
0.0660245
0.0688362
0.0717641
0.0748124
0.077988
0.0812773
0.0846479
0.0881666
0.0918555
0.0956709
0.0996154
0.103719
0.107889
0.112349
0.116898
0.12159
0.126527
0.131485
0.136798
0.142069
0.147571
0.153082
0.158234
0.0254141
0.0204063
0.0166773
0.0172992
0.0194391
0.0212816
0.0227681
0.0242627
0.0258978
0.0276465
0.0295317
0.03137
0.0330334
0.0347905
0.0367
0.0385766
0.0404681
0.0424789
0.0446218
0.0468017
0.0487861
0.050649
0.0529065
0.0555051
0.0581012
0.0606799
0.0632847
0.0660253
0.0688371
0.071765
0.0748132
0.0779887
0.0812779
0.0846485
0.0881672
0.091856
0.0956713
0.0996157
0.103719
0.107889
0.112349
0.116899
0.12159
0.126527
0.131485
0.136798
0.142069
0.147572
0.153083
0.158236
0.0251686
0.0205713
0.0168673
0.017358
0.0194658
0.0213089
0.0227916
0.0242811
0.0259121
0.0276575
0.0295396
0.0313755
0.033038
0.0347951
0.036704
0.0385797
0.0404705
0.0424803
0.0446215
0.0468008
0.0487861
0.0506499
0.0529084
0.0555072
0.0581023
0.0606805
0.0632853
0.066026
0.068838
0.0717659
0.074814
0.0779894
0.0812785
0.0846492
0.0881679
0.0918566
0.0956718
0.0996161
0.10372
0.10789
0.11235
0.116899
0.12159
0.126527
0.131485
0.136798
0.14207
0.147572
0.153084
0.158237
0.0249343
0.0207337
0.0170621
0.0174196
0.0194919
0.0213363
0.0228158
0.0243001
0.025927
0.0276689
0.0295476
0.0313811
0.0330428
0.0347998
0.0367081
0.038583
0.0404731
0.0424818
0.0446211
0.0467994
0.0487856
0.0506504
0.0529102
0.0555096
0.0581037
0.0606811
0.0632859
0.0660268
0.068839
0.071767
0.074815
0.0779902
0.0812792
0.08465
0.0881688
0.0918574
0.0956723
0.0996166
0.10372
0.10789
0.11235
0.116899
0.121591
0.126528
0.131486
0.136799
0.14207
0.147573
0.153085
0.158238
0.0247112
0.0208931
0.017262
0.0174846
0.0195175
0.0213638
0.0228407
0.0243197
0.0259424
0.0276808
0.0295559
0.0313868
0.0330477
0.0348047
0.0367123
0.0385865
0.0404758
0.0424834
0.0446206
0.0467974
0.0487845
0.0506505
0.0529119
0.0555122
0.0581053
0.0606817
0.0632864
0.0660275
0.06884
0.0717681
0.0748161
0.0779911
0.0812799
0.0846508
0.0881698
0.0918582
0.095673
0.0996171
0.103721
0.107891
0.112351
0.1169
0.121591
0.126528
0.131486
0.136799
0.142071
0.147574
0.153087
0.15824
0.0244982
0.0210492
0.0174676
0.0175539
0.0195427
0.0213913
0.0228663
0.0243399
0.0259584
0.0276933
0.0295643
0.0313926
0.0330529
0.03481
0.0367166
0.0385901
0.0404787
0.0424851
0.0446201
0.0467949
0.0487826
0.0506501
0.0529132
0.0555148
0.0581071
0.0606823
0.0632868
0.0660282
0.0688409
0.0717693
0.0748173
0.0779921
0.0812807
0.0846518
0.088171
0.0918592
0.0956737
0.0996177
0.103721
0.107891
0.112351
0.1169
0.121592
0.126529
0.131487
0.1368
0.142071
0.147575
0.153089
0.158242
0.0242937
0.0212012
0.0176794
0.0176286
0.0195677
0.0214189
0.0228927
0.0243607
0.025975
0.0277063
0.0295731
0.0313985
0.0330582
0.0348155
0.0367212
0.0385939
0.0404817
0.0424869
0.0446194
0.0467919
0.04878
0.0506494
0.0529142
0.0555174
0.058109
0.0606829
0.0632872
0.0660289
0.0688419
0.0717705
0.0748185
0.0779931
0.0812815
0.0846528
0.0881722
0.0918603
0.0956745
0.0996184
0.103722
0.107892
0.112352
0.116901
0.121592
0.12653
0.131487
0.1368
0.142072
0.147576
0.15309
0.158244
0.0240962
0.0213486
0.017898
0.0177094
0.0195927
0.0214463
0.0229201
0.0243823
0.0259922
0.0277199
0.0295823
0.0314044
0.0330637
0.0348213
0.036726
0.0385978
0.0404849
0.0424887
0.0446187
0.0467884
0.0487767
0.0506484
0.052915
0.0555198