/*--------------------------------*- C++ -*----------------------------------*\
| =========                 |                                                 |
| \\      /  F ield         | OpenFOAM: The Open Source CFD Toolbox           |
|  \\    /   O peration     | Version:  v2012                                 |
|   \\  /    A nd           | Website:  www.openfoam.com                      |
|    \\/     M anipulation  |                                                 |
\*---------------------------------------------------------------------------*/
FoamFile
{
    version     2.0;
    format      ascii;
    class       volVectorField;
    location    "1.1";
    object      U;
}
// * * * * * * * * * * * * * * * * * * * * * * * * * * * * * * * * * * * * * //

dimensions      [0 1 -1 0 0 0 0];


internalField   nonuniform List<vector> 
7000
(
(0.828638 0.00234917 0)
(1.15382 0.00639696 0)
(0.641783 -0.0419992 0)
(1.3943 -0.0114447 0)
(0.922512 0.00316561 0)
(1.19771 0.0181143 0)
(0.961273 -0.00148324 0)
(1.17345 -0.00818112 0)
(0.97595 -0.0212975 0)
(1.15589 -0.0188211 0)
(1.02907 -0.0161568 0)
(1.18162 -0.0207105 0)
(0.979279 0.00496323 0)
(1.19132 -0.0025706 0)
(0.899782 0.0143104 0)
(1.18486 0.00841783 0)
(0.871423 0.0164086 0)
(1.16316 0.0119571 0)
(0.874797 0.0129658 0)
(1.14041 0.0107658 0)
(0.840139 0.00231567 0)
(1.13535 0.00753754 0)
(0.700553 -0.0441781 0)
(1.37608 -0.0129006 0)
(0.943094 0.00403653 0)
(1.18451 0.0181319 0)
(1.00162 -0.00140887 0)
(1.14934 -0.00806408 0)
(1.00171 -0.0212614 0)
(1.12536 -0.0193234 0)
(1.04445 -0.0168746 0)
(1.1556 -0.0196705 0)
(1.00112 0.00440302 0)
(1.16177 -0.00044841 0)
(0.933017 0.0144563 0)
(1.14033 0.00924801 0)
(0.924413 0.0170348 0)
(1.09813 0.0115899 0)
(0.952599 0.014285 0)
(1.05288 0.00933427 0)
(0.861597 0.00238034 0)
(1.10674 0.00827919 0)
(0.752312 -0.0454343 0)
(1.33428 -0.0139669 0)
(0.982763 0.00514141 0)
(1.16429 0.0178919 0)
(1.04674 -0.00123404 0)
(1.12126 -0.00786853 0)
(1.02279 -0.0210667 0)
(1.08606 -0.0197506 0)
(1.05904 -0.0173071 0)
(1.11567 -0.0190746 0)
(1.03657 0.0042225 0)
(1.11983 0.000777846 0)
(0.986195 0.0146285 0)
(1.08868 0.00974884 0)
(0.984575 0.0179274 0)
(1.04878 0.0110057 0)
(1.00503 0.0154341 0)
(1.02234 0.00866785 0)
(0.889153 0.00248303 0)
(1.07491 0.00882522 0)
(0.804258 -0.0468447 0)
(1.27219 -0.0150507 0)
(1.02944 0.00603564 0)
(1.14793 0.0175315 0)
(1.08222 -0.000905753 0)
(1.09825 -0.00749995 0)
(1.03433 -0.0206445 0)
(1.05188 -0.0201498 0)
(1.06295 -0.0176311 0)
(1.07646 -0.0189976 0)
(1.06402 0.00425634 0)
(1.08661 0.00149645 0)
(1.02845 0.0152962 0)
(1.0614 0.0098695 0)
(1.02211 0.0188741 0)
(1.03704 0.0105098 0)
(1.02948 0.0161565 0)
(1.02676 0.00853455 0)
(0.91853 0.00260724 0)
(1.04586 0.00925743 0)
(0.848798 -0.0478704 0)
(1.19921 -0.0162545 0)
(1.0693 0.00657283 0)
(1.14049 0.0172476 0)
(1.10495 -0.000436499 0)
(1.08382 -0.00693562 0)
(1.03678 -0.0200565 0)
(1.02943 -0.0204917 0)
(1.0555 -0.0178555 0)
(1.04767 -0.0192917 0)
(1.07275 0.00420912 0)
(1.06898 0.00188299 0)
(1.04912 0.0159699 0)
(1.05677 0.00993893 0)
(1.04023 0.0196 0)
(1.0445 0.010215 0)
(1.04182 0.0166129 0)
(1.03989 0.00854862 0)
(0.945946 0.00273924 0)
(1.02385 0.00961342 0)
(0.88472 -0.048631 0)
(1.12761 -0.0175719 0)
(1.0941 0.00668187 0)
(1.13988 0.0170757 0)
(1.1164 0.000143637 0)
(1.07646 -0.0061937 0)
(1.03436 -0.0193594 0)
(1.01738 -0.0207184 0)
(1.04264 -0.0179832 0)
(1.02942 -0.0197856 0)
(1.06613 0.00393498 0)
(1.06133 0.00205372 0)
(1.05405 0.0163259 0)
(1.06073 0.00998718 0)
(1.04907 0.0200519 0)
(1.05494 0.0100025 0)
(1.0502 0.0169353 0)
(1.05115 0.00859968 0)
(0.968597 0.00285412 0)
(1.01097 0.00991344 0)
(0.912647 -0.0490668 0)
(1.06751 -0.0188963 0)
(1.10258 0.00634507 0)
(1.14084 0.0169708 0)
(1.11954 0.000812822 0)
(1.07242 -0.0053254 0)
(1.03095 -0.0185875 0)
(1.01126 -0.0208222 0)
(1.03027 -0.018027 0)
(1.0174 -0.0203345 0)
(1.05266 0.00345713 0)
(1.05654 0.0019777 0)
(1.05222 0.0163908 0)
(1.06442 0.00988222 0)
(1.05487 0.0202963 0)
(1.06276 0.00981158 0)
(1.05719 0.0171861 0)
(1.05878 0.00874162 0)
(0.98498 0.00292736 0)
(1.00693 0.0101753 0)
(0.934434 -0.0492267 0)
(1.024 -0.0201552 0)
(1.09844 0.00561413 0)
(1.13899 0.0168707 0)
(1.11699 0.00154185 0)
(1.06853 -0.00439784 0)
(1.02832 -0.0177676 0)
(1.0076 -0.0208259 0)
(1.02097 -0.0179893 0)
(1.00796 -0.0208498 0)
(1.03888 0.00282452 0)
(1.05116 0.00163259 0)
(1.04922 0.016254 0)
(1.06551 0.00954531 0)
(1.05979 0.0203981 0)
(1.06757 0.00964169 0)
(1.063 0.0173936 0)
(1.06349 0.00900602 0)
(0.994951 0.00294407 0)
(1.00946 0.0103993 0)
(0.951917 -0.0491532 0)
(0.996818 -0.0213033 0)
(1.08716 0.00460615 0)
(1.13247 0.0167282 0)
(1.11037 0.00230304 0)
(1.06313 -0.00347386 0)
(1.02647 -0.0169276 0)
(1.00485 -0.0207557 0)
(1.01468 -0.0178592 0)
(0.999406 -0.0213002 0)
(1.02755 0.00207857 0)
(1.04455 0.00104681 0)
(1.04693 0.0159416 0)
(1.06422 0.00899137 0)
(1.06375 0.0203701 0)
(1.06979 0.00950486 0)
(1.06691 0.0175656 0)
(1.06562 0.00940375 0)
(0.99949 0.00290144 0)
(1.01544 0.0105751 0)
(0.966392 -0.0488989 0)
(0.982276 -0.0223135 0)
(1.07336 0.00345926 0)
(1.1214 0.0165322 0)
(1.1005 0.00306883 0)
(1.05586 -0.00260482 0)
(1.02477 -0.0160976 0)
(1.00251 -0.0206342 0)
(1.01045 -0.0176201 0)
(0.991437 -0.0216839 0)
(1.01873 0.00125676 0)
(1.0369 0.00025835 0)
(1.04492 0.01546 0)
(1.06073 0.00828051 0)
(1.06564 0.020197 0)
(1.06918 0.00942904 0)
(1.06782 0.0177134 0)
(1.06476 0.00994488 0)
(1.00022 0.0028078 0)
(1.02198 0.0106886 0)
(0.978525 -0.0485069 0)
(0.975711 -0.0231705 0)
(1.05941 0.00229368 0)
(1.10676 0.0162989 0)
(1.08792 0.00380876 0)
(1.04707 -0.0018305 0)
(1.02262 -0.0153081 0)
(1.00042 -0.0204807 0)
(1.00736 -0.01727 0)
(0.984513 -0.0219911 0)
(1.01143 0.000400238 0)
(1.0283 -0.000684291 0)
(1.04184 0.0148379 0)
(1.05463 0.00748541 0)
(1.06408 0.0198816 0)
(1.06503 0.0094492 0)
(1.06473 0.0178545 0)
(1.06029 0.0106278 0)
(0.998886 0.00267829 0)
(1.02714 0.0107301 0)
(0.988534 -0.048013 0)
(0.973278 -0.023868 0)
(1.04571 0.00119568 0)
(1.08961 0.0160515 0)
(1.07334 0.0045013 0)
(1.03746 -0.00118076 0)
(1.01973 -0.0145845 0)
(0.998538 -0.0203153 0)
(1.00473 -0.0168223 0)
(0.979317 -0.0222097 0)
(1.00467 -0.00044036 0)
(1.01885 -0.00171741 0)
(1.03647 0.0141229 0)
(1.04549 0.00668527 0)
(1.05807 0.0194523 0)
(1.05682 0.00958698 0)
(1.05715 0.0179952 0)
(1.05195 0.0114259 0)
(0.996875 0.00252961 0)
(1.03014 0.010698 0)
(0.996446 -0.0474468 0)
(0.97258 -0.0244032 0)
(1.0319 0.000219533 0)
(1.07097 0.0158054 0)
(1.05775 0.00512686 0)
(1.02783 -0.000675129 0)
(1.01611 -0.0139439 0)
(0.996823 -0.0201549 0)
(1.00209 -0.016309 0)
(0.976257 -0.0223279 0)
(0.997982 -0.00119494 0)
(1.00899 -0.00275841 0)
(1.02833 0.0133765 0)
(1.03359 0.0059613 0)
(1.04757 0.0189484 0)
(1.04484 0.00983728 0)
(1.0455 0.0181212 0)
(1.04029 0.0122839 0)
(0.995071 0.00237585 0)
(1.03107 0.0105983 0)
(1.00233 -0.0468322 0)
(0.97246 -0.0247768 0)
(1.01794 -0.000605892 0)
(1.052 0.0155631 0)
(1.04237 0.00566023 0)
(1.01893 -0.000321149 0)
(1.01203 -0.0133939 0)
(0.995286 -0.0200086 0)
(0.999216 -0.0157742 0)
(0.975159 -0.022338 0)
(0.99148 -0.00179892 0)
(0.999524 -0.00371634 0)
(1.01798 0.0126647 0)
(1.02009 0.00538616 0)
(1.03375 0.0184048 0)
(1.03042 0.0101725 0)
(1.03119 0.0182081 0)
(1.02666 0.0131319 0)
(0.993851 0.0022261 0)
(1.03053 0.0104427 0)
(1.0064 -0.0461865 0)
(0.972488 -0.0249954 0)
(1.00451 -0.00127233 0)
(1.03403 0.015316 0)
(1.0284 0.00608182 0)
(1.01131 -0.000112838 0)
(1.00788 -0.0129307 0)
(0.993934 -0.0198764 0)
(0.99612 -0.0152552 0)
(0.975342 -0.0222473 0)
(0.985562 -0.00222442 0)
(0.991251 -0.00451536 0)
(1.00676 0.0120303 0)
(1.00673 0.00500478 0)
(1.01866 0.0178508 0)
(1.01551 0.0105569 0)
(1.01625 0.0182335 0)
(1.01286 0.013903 0)
(0.993247 0.00208471 0)
(1.02917 0.0102447 0)
(1.00901 -0.0455195 0)
(0.972528 -0.0250735 0)
(0.99258 -0.00178724 0)
(1.01826 0.0150507 0)
(1.01668 0.00639039 0)
(1.0052 -3.30935e-05 0)
(1.00408 -0.0125409 0)
(0.992778 -0.0197532 0)
(0.993024 -0.0147697 0)
(0.975984 -0.0220757 0)
(0.980611 -0.0024832 0)
(0.984671 -0.00510718 0)
(0.996165 0.011485 0)
(0.995091 0.00482835 0)
(1.00448 0.0173056 0)
(1.00206 0.0109555 0)
(1.00266 0.0181828 0)
(1.00061 0.0145484 0)
(0.993126 0.00195252 0)
(1.02752 0.0100162 0)
(1.01056 -0.0448341 0)
(0.972514 -0.0250334 0)
(0.982879 -0.00216858 0)
(1.00541 0.014758 0)
(1.00756 0.00659328 0)
(1.00062 -5.92523e-05 0)
(1.00092 -0.0122074 0)
(0.991835 -0.0196314 0)
(0.990218 -0.0143188 0)
(0.976495 -0.0218391 0)
(0.976772 -0.00261683 0)
(0.979825 -0.0054796 0)
(0.987309 0.0110168 0)
(0.98609 0.00484153 0)
(0.992806 0.0167785 0)
(0.991375 0.0113403 0)
(0.991797 0.0180555 0)
(0.990993 0.0150466 0)
(0.99332 0.00182856 0)
(1.02584 0.00976603 0)
(1.01136 -0.0441294 0)
(0.972394 -0.0248981 0)
(0.975579 -0.00243874 0)
(0.995576 0.0144342 0)
(1.00089 0.00670396 0)
(0.997392 -0.000168864 0)
(0.998525 -0.0119133 0)
(0.991142 -0.0195024 0)
(0.987936 -0.0138953 0)
(0.976669 -0.0215429 0)
(0.973944 -0.00267914 0)
(0.976425 -0.00564847 0)
(0.980631 0.0105918 0)
(0.979846 0.00500688 0)
(0.984298 0.0162726 0)
(0.983895 0.0116931 0)
(0.984151 0.0178648 0)
(0.984366 0.0154043 0)
(0.993702 0.00171164 0)
(1.02421 0.00950042 0)
(1.01162 -0.0434036 0)
(0.972164 -0.024689 0)
(0.970391 -0.00262057 0)
(0.988391 0.0140787 0)
(0.996291 0.006738 0)
(0.995306 -0.000342637 0)
(0.996863 -0.0116455 0)
(0.990724 -0.0193584 0)
(0.98629 -0.0134902 0)
(0.976612 -0.0211893 0)
(0.971915 -0.00271256 0)
(0.974075 -0.00564685 0)
(0.97601 0.010172 0)
(0.975921 0.00527505 0)
(0.97879 0.0157807 0)
(0.979308 0.0119985 0)
(0.979482 0.0176265 0)
(0.980437 0.0156422 0)
(0.994194 0.001601 0)
(1.02263 0.0092238 0)
(1.01144 -0.0426562 0)
(0.971879 -0.024426 0)
(0.966873 -0.00273528 0)
(0.983374 0.0136919 0)
(0.993322 0.00670935 0)
(0.994157 -0.000564117 0)
(0.995822 -0.0113955 0)
(0.990577 -0.019195 0)
(0.985265 -0.0130983 0)
(0.976552 -0.0207706 0)
(0.970524 -0.00274974 0)
(0.972475 -0.0055091 0)
(0.973055 0.00973108 0)
(0.973701 0.00559621 0)
(0.975672 0.0152936 0)
(0.976949 0.0122463 0)
(0.977153 0.0173493 0)
(0.978602 0.0157819 0)
(0.994752 0.00149637 0)
(1.02109 0.00893994 0)
(1.01088 -0.0418892 0)
(0.971634 -0.024127 0)
(0.964689 -0.00280136 0)
(0.980148 0.0132738 0)
(0.991661 0.00662974 0)
(0.99377 -0.000820482 0)
(0.995273 -0.0111547 0)
(0.990645 -0.0190133 0)
(0.984763 -0.0127213 0)
(0.976668 -0.020272 0)
(0.969713 -0.00280177 0)
(0.971484 -0.0052738 0)
(0.971373 0.00924609 0)
(0.97268 0.00592256 0)
(0.974275 0.0148046 0)
(0.976142 0.0124353 0)
(0.97648 0.0170419 0)
(0.978229 0.0158413 0)
(0.99534 0.00139753 0)
(1.01963 0.00865246 0)
(1.00999 -0.0411051 0)
(0.971524 -0.0238093 0)
(0.963672 -0.00283511 0)
(0.978487 0.012824 0)
(0.991087 0.00651039 0)
(0.993986 -0.0010982 0)
(0.995097 -0.0109162 0)
(0.990843 -0.0188084 0)
(0.984651 -0.0123675 0)
(0.977012 -0.0196951 0)
(0.969482 -0.00287483 0)
(0.971081 -0.00495343 0)
(0.970691 0.00872081 0)
(0.972539 0.0062207 0)
(0.97408 0.0142986 0)
(0.976374 0.0125615 0)
(0.976904 0.01672 0)
(0.978807 0.0158394 0)
(0.995917 0.00130398 0)
(1.01832 0.00836473 0)
(1.00891 -0.0403053 0)
(0.9716 -0.0234899 0)
(0.963714 -0.00285143 0)
(0.978195 0.0123429 0)
(0.991397 0.00636465 0)
(0.994632 -0.00138546 0)
(0.995196 -0.0106738 0)
(0.991083 -0.0185681 0)
(0.984795 -0.01205 0)
(0.977537 -0.0190538 0)
(0.969806 -0.0029773 0)
(0.971257 -0.00457508 0)
(0.97082 0.00816984 0)
(0.97307 0.00648159 0)
(0.974718 0.0137754 0)
(0.977282 0.0126127 0)
(0.978011 0.0163871 0)
(0.97995 0.0157918 0)
(0.996439 0.00121484 0)
(1.01722 0.00807899 0)
(1.00779 -0.0394896 0)
(0.971858 -0.0231829 0)
(0.964625 -0.00286523 0)
(0.97898 0.0118352 0)
(0.992325 0.00620342 0)
(0.995523 -0.00166657 0)
(0.995475 -0.0104255 0)
(0.991311 -0.0182829 0)
(0.98509 -0.0117835 0)
(0.978155 -0.0183553 0)
(0.970573 -0.00310679 0)
(0.971931 -0.00418381 0)
(0.971579 0.00759412 0)
(0.974079 0.0066989 0)
(0.975888 0.0132601 0)
(0.978573 0.0125991 0)
(0.979468 0.0160334 0)
(0.981347 0.015701 0)
(0.99687 0.00112899 0)
(1.01636 0.00779575 0)
(1.00678 -0.0386569 0)
(0.972258 -0.022897 0)
(0.966081 -0.0028878 0)
(0.980418 0.0113061 0)
(0.993547 0.00603596 0)
(0.996477 -0.00192761 0)
(0.995842 -0.0101746 0)
(0.991509 -0.017949 0)
(0.985461 -0.0115619 0)
(0.9788 -0.0176182 0)
(0.971604 -0.00327058 0)
(0.972935 -0.00376967 0)
(0.972736 0.00701927 0)
(0.975335 0.00686478 0)
(0.977297 0.012754 0)
(0.979971 0.0125442 0)
(0.980976 0.0156879 0)
(0.982729 0.0155818 0)
(0.997195 0.00104526 0)
(1.01569 0.0075136 0)
(1.00599 -0.0378055 0)
(0.97275 -0.0226354 0)
(0.967705 -0.00292413 0)
(0.982048 0.0107603 0)
(0.994748 0.00586883 0)
(0.997341 -0.00216198 0)
(0.996213 -0.00992499 0)
(0.991689 -0.0175639 0)
(0.985865 -0.0113796 0)
(0.979435 -0.0168517 0)
(0.972719 -0.00347451 0)
(0.974066 -0.00334866 0)
(0.974037 0.00646403 0)
(0.976599 0.00699914 0)
(0.978673 0.0122592 0)
(0.981246 0.0124215 0)
(0.982294 0.0153394 0)
(0.983884 0.0154683 0)
(0.997416 0.000963012 0)
(1.01517 0.00722927 0)
(1.00546 -0.0369349 0)
(0.973294 -0.0223945 0)
(0.969183 -0.00297426 0)
(0.983505 0.0102039 0)
(0.995706 0.00569733 0)
(0.998016 -0.00236235 0)
(0.996526 -0.00968731 0)
(0.991866 -0.0171171 0)
(0.986278 -0.0112515 0)
(0.980048 -0.0160582 0)
(0.973789 -0.00369992 0)
(0.975157 -0.00294773 0)
(0.975272 0.00590999 0)
(0.977699 0.00709338 0)
(0.979816 0.011836 0)
(0.982245 0.0122902 0)
(0.983291 0.0149151 0)
(0.984705 0.0153209 0)
(0.997551 0.000882326 0)
(1.01473 0.00693868 0)
(1.00514 -0.0360446 0)
(0.973866 -0.0221671 0)
(0.970351 -0.00303579 0)
(0.984599 0.00964018 0)
(0.996329 0.00551825 0)
(0.998462 -0.00253124 0)
(0.996744 -0.00946624 0)
(0.992045 -0.0166217 0)
(0.986688 -0.0111515 0)
(0.980634 -0.015274 0)
(0.974752 -0.0039308 0)
(0.976116 -0.00258567 0)
(0.976322 0.0054016 0)
(0.978567 0.00712874 0)
(0.980654 0.0114366 0)
(0.98291 0.0122583 0)
(0.983922 0.0144871 0)
(0.985188 0.0151256 0)
(0.997623 0.000803786 0)
(1.01433 0.00663804 0)
(1.00499 -0.0351345 0)
(0.974454 -0.021951 0)
(0.971182 -0.00309487 0)
(0.985302 0.00906132 0)
(0.996632 0.00533281 0)
(0.998686 -0.0026755 0)
(0.996859 -0.00925561 0)
(0.992219 -0.0161109 0)
(0.987078 -0.0110432 0)
(0.981188 -0.0145163 0)
(0.975601 -0.00414706 0)
(0.976929 -0.00227965 0)
(0.977161 0.00493433 0)
(0.979207 0.00719997 0)
(0.981217 0.0110134 0)
(0.983296 0.0122659 0)
(0.984236 0.0141186 0)
(0.98539 0.0149526 0)
(0.997653 0.000726651 0)
(1.01393 0.00632812 0)
(1.00494 -0.0342093 0)
(0.975052 -0.0217339 0)
(0.971743 -0.00316218 0)
(0.98569 0.00849089 0)
(0.996683 0.0051034 0)
(0.998724 -0.00276077 0)
(0.996875 -0.00910037 0)
(0.992379 -0.0155299 0)
(0.987439 -0.011002 0)
(0.981705 -0.0137109 0)
(0.976353 -0.00438204 0)
(0.977615 -0.00192835 0)
(0.977835 0.00438411 0)
(0.979683 0.00727195 0)
(0.981569 0.0106193 0)
(0.983486 0.0122927 0)
(0.984334 0.0138181 0)
(0.985405 0.0148145 0)
(0.997662 0.000651542 0)
(1.01353 0.0060067 0)
(1.00494 -0.0332687 0)
(0.975656 -0.0215047 0)
(0.972129 -0.0032366 0)
(0.985867 0.0079289 0)
(0.996562 0.00484025 0)
(0.998621 -0.00281377 0)
(0.996802 -0.00897262 0)
(0.992517 -0.0149276 0)
(0.987757 -0.010949 0)
(0.982184 -0.0129556 0)
(0.977035 -0.00455389 0)
(0.978203 -0.00165744 0)
(0.978391 0.00398171 0)
(0.980075 0.00712376 0)
(0.981812 0.010295 0)
(0.983575 0.0121702 0)
(0.984304 0.01365 0)
(0.985312 0.0147844 0)
(0.997665 0.000581772 0)
(1.01311 0.00566657 0)
(1.00494 -0.0323067 0)
(0.976263 -0.0212762 0)
(0.972435 -0.00328929 0)
(0.985932 0.00735086 0)
(0.99634 0.00456475 0)
(0.998423 -0.00287434 0)
(0.996655 -0.00881634 0)
(0.992634 -0.0143974 0)
(0.988029 -0.0107619 0)
(0.982629 -0.0123929 0)
(0.977658 -0.00449795 0)
(0.978746 -0.00166312 0)
(0.978874 0.00387884 0)
(0.980425 0.00680432 0)
(0.982019 0.0100842 0)
(0.983654 0.0118524 0)
(0.984293 0.013582 0)
(0.985195 0.0148214 0)
(0.997673 0.000513759 0)
(1.01268 0.00531836 0)
(1.00491 -0.0313365 0)
(0.976867 -0.0210344 0)
(0.972738 -0.00334643 0)
(0.985956 0.00678815 0)
(0.996076 0.00423875 0)
(0.998164 -0.00289208 0)
(0.996458 -0.00870786 0)
(0.992724 -0.0138196 0)
(0.988257 -0.0106027 0)
(0.983051 -0.0118414 0)
(0.978233 -0.00445536 0)
(0.979263 -0.00163105 0)
(0.979336 0.00367552 0)
(0.980771 0.00652148 0)
(0.982238 0.0098668 0)
(0.983768 0.0115902 0)
(0.984349 0.0135358 0)
(0.985094 0.0148352 0)
(0.997696 0.000448253 0)
(1.01224 0.00496168 0)
(1.00484 -0.0303581 0)
(0.977468 -0.0207671 0)
(0.973088 -0.00341854 0)
(0.98599 0.00625956 0)
(0.995808 0.0038613 0)
(0.997871 -0.00286656 0)
(0.99623 -0.00863727 0)
(0.992784 -0.013216 0)
(0.988457 -0.0104904 0)
(0.983444 -0.0111914 0)
(0.978787 -0.0045611 0)
(0.979764 -0.00147246 0)
(0.979792 0.00325997 0)
(0.981151 0.00643553 0)
(0.982513 0.00962003 0)
(0.983964 0.0115064 0)
(0.984503 0.0134267 0)
(0.985043 0.0147544 0)
(0.997732 0.000388454 0)
(1.01179 0.00458908 0)
(1.00472 -0.0293622 0)
(0.978068 -0.0204934 0)
(0.97351 -0.00348593 0)
(0.986063 0.00574236 0)
(0.995553 0.00346824 0)
(0.997569 -0.00285682 0)
(0.995978 -0.00853035 0)
(0.992824 -0.0126746 0)
(0.988641 -0.0103097 0)
(0.983815 -0.0106216 0)
(0.979325 -0.00458903 0)
(0.980256 -0.00127968 0)
(0.980286 0.00301777 0)
(0.981589 0.00650273 0)
(0.982841 0.0093436 0)
(0.984214 0.0114901 0)
(0.984699 0.0132197 0)
(0.985045 0.0145437 0)
(0.99778 0.000332744 0)
(1.01134 0.00420791 0)
(1.00456 -0.0283599 0)
(0.978673 -0.0202107 0)
(0.974007 -0.00354737 0)
(0.986188 0.00523706 0)
(0.99532 0.00305336 0)
(0.997268 -0.00284972 0)
(0.995717 -0.00840336 0)
(0.992852 -0.0121748 0)
(0.988805 -0.0100844 0)
(0.984178 -0.0101078 0)
(0.979872 -0.004534 0)
(0.980759 -0.00104451 0)
(0.980807 0.00298759 0)
(0.982041 0.00652564 0)
(0.983216 0.00912499 0)
(0.984526 0.0114468 0)
(0.984938 0.0129073 0)
(0.985093 0.0142265 0)
(0.99784 0.000278514 0)
(1.01088 0.00382596 0)
(1.00435 -0.0273624 0)
(0.979285 -0.019899 0)
(0.974574 -0.00362796 0)
(0.986359 0.00476597 0)
(0.995116 0.00259288 0)
(0.996973 -0.00282102 0)
(0.995455 -0.00828724 0)
(0.99287 -0.0116867 0)
(0.988969 -0.00987672 0)
(0.984533 -0.0095074 0)
(0.980421 -0.00453392 0)
(0.981279 -0.000782994 0)
(0.981355 0.00300701 0)
(0.982529 0.0065011 0)
(0.983638 0.00897454 0)
(0.984853 0.0112734 0)
(0.985185 0.0124121 0)
(0.985188 0.0138031 0)
(0.997908 0.000228593 0)
(1.01043 0.00343762 0)
(1.00412 -0.0263616 0)
(0.979905 -0.0195736 0)
(0.975196 -0.00372529 0)
(0.986568 0.00431736 0)
(0.994942 0.00213215 0)
(0.996688 -0.0028308 0)
(0.995198 -0.00811801 0)
(0.992881 -0.0112346 0)
(0.989138 -0.00966494 0)
(0.984879 -0.00892208 0)
(0.980978 -0.0044605 0)
(0.981829 -0.000561399 0)
(0.981912 0.00301926 0)
(0.983032 0.00644471 0)
(0.984078 0.00875174 0)
(0.985176 0.0108967 0)
(0.985465 0.0119215 0)
(0.98536 0.0134733 0)
(0.997982 0.000184767 0)
(1.00998 0.00304042 0)
(1.00386 -0.025354 0)
(0.980533 -0.0192456 0)
(0.975858 -0.00382573 0)
(0.986803 0.00388849 0)
(0.994792 0.00167654 0)
(0.996419 -0.00286915 0)
(0.994945 -0.00788782 0)
(0.992889 -0.0108653 0)
(0.989313 -0.0093437 0)
(0.985232 -0.0084436 0)
(0.981531 -0.00421397 0)
(0.982385 -0.000475069 0)
(0.982487 0.00299707 0)
(0.983546 0.00634915 0)
(0.984512 0.0084832 0)
(0.985517 0.0105176 0)
(0.985806 0.0115914 0)
(0.985581 0.0131909 0)
(0.998059 0.000141147 0)
(1.00953 0.00264866 0)
(1.0036 -0.0243621 0)
(0.981166 -0.0188843 0)
(0.976548 -0.00394548 0)
(0.987055 0.00347511 0)
(0.994663 0.00122929 0)
(0.996168 -0.00292465 0)
(0.994699 -0.00765907 0)
(0.992899 -0.0104634 0)
(0.989496 -0.00907149 0)
(0.985587 -0.00789701 0)
(0.982082 -0.0039783 0)
(0.982942 -0.000390629 0)
(0.983074 0.00300149 0)
(0.984061 0.00620503 0)
(0.984956 0.0082007 0)
(0.985888 0.0102506 0)
(0.986173 0.0113057 0)
(0.985821 0.012841 0)
(0.998138 0.000101638 0)
(1.00909 0.00225634 0)
(1.00332 -0.0233809 0)
(0.981799 -0.0184992 0)
(0.977257 -0.00407837 0)
(0.987317 0.00307631 0)
(0.994552 0.000796779 0)
(0.995932 -0.00302894 0)
(0.994466 -0.00740486 0)
(0.992899 -0.0100521 0)
(0.989696 -0.00883556 0)
(0.985952 -0.00731458 0)
(0.982618 -0.00375554 0)
(0.983507 -0.000284094 0)
(0.983664 0.00296105 0)
(0.984573 0.00602438 0)
(0.98542 0.00796673 0)
(0.986278 0.0100359 0)
(0.986542 0.0109604 0)
(0.986075 0.0124316 0)
(0.998217 6.78418e-05 0)
(1.00866 0.00186233 0)
(1.00305 -0.0224057 0)
(0.982432 -0.0181033 0)
(0.977977 -0.00421777 0)
(0.987586 0.00268231 0)
(0.994451 0.000389567 0)
(0.995718 -0.0031653 0)
(0.994244 -0.00711915 0)
(0.992899 -0.00967869 0)
(0.989907 -0.00850182 0)
(0.986323 -0.00687251 0)
(0.983146 -0.00342284 0)
(0.984064 -0.000221765 0)
(0.984251 0.00286034 0)
(0.985098 0.00589825 0)
(0.985905 0.00778539 0)
(0.986663 0.00978099 0)
(0.986897 0.0105717 0)
(0.986351 0.0120032 0)
(0.998295 3.54814e-05 0)
(1.00824 0.0014744 0)
(1.00277 -0.0214542 0)
(0.983061 -0.0176805 0)
(0.978704 -0.004363 0)
(0.987858 0.00229141 0)
(0.994359 2.35032e-05 0)
(0.995523 -0.00330398 0)
(0.994037 -0.00685087 0)
(0.992899 -0.00925073 0)
(0.990125 -0.00822722 0)
(0.986711 -0.00639959 0)
(0.983663 -0.00309261 0)
(0.9846 -0.000188746 0)
(0.984856 0.00279037 0)
(0.985638 0.00582439 0)
(0.986381 0.00757168 0)
(0.987036 0.00947529 0)
(0.987254 0.0102156 0)
(0.986648 0.0115814 0)
(0.998373 3.61792e-06 0)
(1.00783 0.0010944 0)
(1.0025 -0.0205241 0)
(0.983684 -0.0172293 0)
(0.979437 -0.00451501 0)
(0.988134 0.0019006 0)
(0.994276 -0.000298675 0)
(0.995346 -0.00346033 0)
(0.993851 -0.00659446 0)
(0.992893 -0.00880641 0)
(0.990357 -0.00795579 0)
(0.98711 -0.00593362 0)
(0.984163 -0.00281174 0)
(0.985131 -8.90499e-05 0)
(0.985471 0.00271156 0)
(0.986173 0.00568517 0)
(0.986851 0.00733696 0)
(0.987417 0.00920371 0)
(0.987606 0.00990522 0)
(0.986951 0.0111425 0)
(0.998449 -2.10021e-05 0)
(1.00743 0.000718313 0)
(1.00224 -0.0196123 0)
(0.9843 -0.0167652 0)
(0.98017 -0.00466762 0)
(0.988415 0.00150286 0)
(0.994197 -0.000590284 0)
(0.995187 -0.00361967 0)
(0.993685 -0.00634917 0)
(0.99289 -0.00836632 0)
(0.990593 -0.00762963 0)
(0.987522 -0.00557819 0)
(0.98466 -0.00247469 0)
(0.985642 3.2716e-05 0)
(0.986075 0.00257137 0)
(0.986718 0.00551721 0)
(0.987331 0.00714274 0)
(0.987799 0.0089489 0)
(0.987935 0.00960156 0)
(0.987254 0.0106887 0)
(0.998523 -4.72102e-05 0)
(1.00703 0.000356833 0)
(1.00198 -0.0187372 0)
(0.984908 -0.0162841 0)
(0.980904 -0.00480417 0)
(0.9887 0.00108989 0)
(0.994125 -0.00085942 0)
(0.995044 -0.00375901 0)
(0.993542 -0.00612445 0)
(0.992888 -0.00790749 0)
(0.990827 -0.00733074 0)
(0.98795 -0.00522777 0)
(0.985154 -0.00214909 0)
(0.986123 0.000140014 0)
(0.986677 0.00246429 0)
(0.987282 0.005358 0)
(0.987813 0.00694313 0)
(0.988178 0.00866501 0)
(0.988245 0.00931954 0)
(0.987555 0.0102545 0)
(0.998596 -7.0324e-05 0)
(1.00665 -9.04658e-07 0)
(1.00174 -0.0178864 0)
(0.985507 -0.0157802 0)
(0.981636 -0.00493432 0)
(0.98899 0.000665386 0)
(0.994061 -0.00110684 0)
(0.994916 -0.00387069 0)
(0.993423 -0.00590841 0)
(0.992887 -0.0074538 0)
(0.991062 -0.00702208 0)
(0.988392 -0.00490155 0)
(0.985643 -0.00187219 0)
(0.986588 0.000301162 0)
(0.98727 0.00239531 0)
(0.987847 0.00514116 0)
(0.988296 0.00671318 0)
(0.988566 0.00838825 0)
(0.988544 0.00908491 0)
(0.987844 0.00984754 0)
(0.998667 -8.88017e-05 0)
(1.00628 -0.000345036 0)
(1.0015 -0.0170607 0)
(0.986096 -0.0152706 0)
(0.982361 -0.00504813 0)
(0.989285 0.000247701 0)
(0.994006 -0.00134671 0)
(0.994804 -0.00395942 0)
(0.993326 -0.00569733 0)
(0.99289 -0.00701475 0)
(0.991293 -0.00668353 0)
(0.988843 -0.00463682 0)
(0.986142 -0.00160321 0)
(0.987033 0.000484791 0)
(0.987832 0.00232111 0)
(0.988415 0.00489667 0)
(0.988797 0.00650395 0)
(0.988975 0.008123 0)
(0.988825 0.0088599 0)
(0.988111 0.00947077 0)
(0.998737 -0.000111987 0)
(1.00592 -0.000664061 0)
(1.00128 -0.0162683 0)
(0.986675 -0.0147572 0)
(0.983081 -0.00513163 0)
(0.989584 -0.000161309 0)
(0.993962 -0.00159297 0)
(0.994707 -0.00401656 0)
(0.993252 -0.00549967 0)
(0.992898 -0.00657487 0)
(0.991517 -0.00635547 0)
(0.989306 -0.00439291 0)
(0.986649 -0.00136024 0)
(0.987458 0.000648334 0)
(0.988368 0.00227984 0)
(0.988989 0.0046743 0)
(0.989308 0.00629701 0)
(0.98939 0.00781692 0)
(0.989099 0.00862348 0)
(0.988362 0.00915438 0)
(0.998804 -0.000126257 0)
(1.00558 -0.000977162 0)
(1.00106 -0.0155061 0)
(0.987245 -0.0142385 0)
(0.98379 -0.00519573 0)
(0.989884 -0.00056974 0)
(0.993929 -0.00183172 0)
(0.994626 -0.00405491 0)
(0.993201 -0.00530674 0)
(0.992913 -0.00615743 0)
(0.991731 -0.00601224 0)
(0.989775 -0.00418494 0)
(0.987165 -0.00115248 0)
(0.987871 0.000812327 0)
(0.988875 0.00228847 0)
(0.989556 0.00445315 0)
(0.989818 0.00605997 0)
(0.989822 0.00749392 0)
(0.989394 0.00839314 0)
(0.988602 0.00889156 0)
(0.99887 -0.000146251 0)
(1.00524 -0.00126252 0)
(1.00086 -0.0147752 0)
(0.987805 -0.0137286 0)
(0.98449 -0.00524223 0)
(0.990187 -0.000945913 0)
(0.99391 -0.00206327 0)
(0.994562 -0.00408856 0)
(0.99317 -0.0051291 0)
(0.992937 -0.00575734 0)
(0.991933 -0.00566123 0)
(0.990246 -0.00399708 0)
(0.987697 -0.000971989 0)
(0.988279 0.000973666 0)
(0.989349 0.00231629 0)
(0.990105 0.00424945 0)
(0.990332 0.00580874 0)
(0.990273 0.00719691 0)
(0.989709 0.00813624 0)
(0.988829 0.00865121 0)
(0.998933 -0.000162963 0)
(1.00492 -0.0015313 0)
(1.00067 -0.0140785 0)
(0.988355 -0.0132242 0)
(0.985179 -0.0052593 0)
(0.99049 -0.00128535 0)
(0.993902 -0.00228916 0)
(0.994515 -0.00411747 0)
(0.993164 -0.00495517 0)
(0.992972 -0.00537502 0)
(0.992123 -0.00528926 0)
(0.990716 -0.003831 0)
(0.988243 -0.000824129 0)
(0.988681 0.00111737 0)
(0.989793 0.00234964 0)
(0.99063 0.00407776 0)
(0.990846 0.00554939 0)
(0.990736 0.00690603 0)
(0.990049 0.00783988 0)
(0.989062 0.00842754 0)
(0.998994 -0.000178735 0)
(1.00461 -0.00178138 0)
(1.0005 -0.0134069 0)
(0.988896 -0.012733 0)
(0.985857 -0.00526562 0)
(0.990792 -0.00158252 0)
(0.993906 -0.00249318 0)
(0.994488 -0.00413407 0)
(0.993179 -0.00479707 0)
(0.993021 -0.00502037 0)
(0.992297 -0.00491104 0)
(0.991176 -0.00367489 0)
(0.988806 -0.000720481 0)
(0.989085 0.00125094 0)
(0.99021 0.00238619 0)
(0.991126 0.00394794 0)
(0.991355 0.00528612 0)
(0.991204 0.00662132 0)
(0.990419 0.00752009 0)
(0.989308 0.00820384 0)
(0.999052 -0.00019637 0)
(1.00431 -0.00200732 0)
(1.00034 -0.0127673 0)
(0.989425 -0.0122546 0)
(0.986525 -0.00526083 0)
(0.991093 -0.00184435 0)
(0.993919 -0.00267756 0)
(0.994476 -0.00414628 0)
(0.993217 -0.004652 0)
(0.993085 -0.00469382 0)
(0.99246 -0.00451858 0)
(0.991624 -0.00350474 0)
(0.989384 -0.00066154 0)
(0.989494 0.00137793 0)
(0.990605 0.00241173 0)
(0.99159 0.00385483 0)
(0.99185 0.00502151 0)
(0.991674 0.00635084 0)
(0.990812 0.00718603 0)
(0.989578 0.00796175 0)
(0.999108 -0.000210885 0)
(1.00403 -0.00221068 0)
(1.00019 -0.0121637 0)
(0.989945 -0.0117801 0)
(0.987181 -0.00525342 0)
(0.991394 -0.00208264 0)
(0.993943 -0.00283378 0)
(0.994481 -0.00414621 0)
(0.993276 -0.00450916 0)
(0.993171 -0.0043985 0)
(0.992611 -0.0041181 0)
(0.992046 -0.0033245 0)
(0.989976 -0.000654378 0)
(0.989912 0.0014938 0)
(0.990983 0.00242587 0)
(0.992019 0.00378973 0)
(0.992328 0.00477928 0)
(0.992141 0.00609346 0)
(0.991224 0.00685597 0)
(0.989872 0.00768885 0)
(0.999162 -0.000229446 0)
(1.00375 -0.00238332 0)
(1.00005 -0.0115889 0)
(0.990453 -0.0113169 0)
(0.987826 -0.00525252 0)
(0.991696 -0.00228867 0)
(0.993977 -0.00295716 0)
(0.994501 -0.00413436 0)
(0.993353 -0.00437816 0)
(0.993275 -0.00413783 0)
(0.992756 -0.00374037 0)
(0.992436 -0.00310318 0)
(0.990581 -0.00069107 0)
(0.990344 0.00159439 0)
(0.991347 0.00242683 0)
(0.992421 0.00374619 0)
(0.992783 0.00456828 0)
(0.992601 0.00584195 0)
(0.991639 0.00653883 0)
(0.990188 0.00738246 0)
(0.999212 -0.000246143 0)
(1.00349 -0.00253309 0)
(0.999927 -0.0110506 0)
(0.990949 -0.0108647 0)
(0.988458 -0.00524644 0)
(0.992 -0.00247299 0)
(0.994019 -0.00305065 0)
(0.994532 -0.00410916 0)
(0.993448 -0.00424291 0)
(0.993401 -0.00391063 0)
(0.992902 -0.00338071 0)
(0.99279 -0.00284081 0)
(0.991188 -0.000755688 0)
(0.990795 0.00166452 0)
(0.991702 0.00242951 0)
(0.992798 0.00370363 0)
(0.99321 0.00438785 0)
(0.993049 0.00558856 0)
(0.992051 0.00624856 0)
(0.990521 0.00705819 0)
(0.999261 -0.0002647 0)
(1.00324 -0.00265773 0)
(0.999816 -0.0105394 0)
(0.991434 -0.0104243 0)
(0.989076 -0.00524992 0)
(0.992306 -0.00263565 0)
(0.994072 -0.00310537 0)
(0.994575 -0.00405957 0)
(0.993557 -0.00411352 0)
(0.993546 -0.00370812 0)
(0.993055 -0.0030637 0)
(0.993103 -0.00254343 0)
(0.991789 -0.000832522 0)
(0.991272 0.00169161 0)
(0.992052 0.00243794 0)
(0.993154 0.00364701 0)
(0.993606 0.00424371 0)
(0.993486 0.00534302 0)
(0.992453 0.00598817 0)
(0.99086 0.00672427 0)
(0.999306 -0.00028386 0)
(1.003 -0.00275577 0)
(0.999719 -0.010054 0)
(0.991905 -0.00999577 0)
(0.98968 -0.00526056 0)
(0.992617 -0.00278197 0)
(0.994135 -0.00312896 0)
(0.994624 -0.00399753 0)
(0.993676 -0.00398776 0)
(0.993709 -0.00352813 0)
(0.993225 -0.00279076 0)
(0.993378 -0.00221322 0)
(0.99237 -0.000893663 0)
(0.991776 0.00166463 0)
(0.992399 0.00244986 0)
(0.993495 0.00357803 0)
(0.993975 0.00413447 0)
(0.993908 0.00510195 0)
(0.992838 0.00573937 0)
(0.991197 0.00638647 0)
(0.999349 -0.000303901 0)
(1.00277 -0.00283256 0)
(0.999633 -0.00959033 0)
(0.992363 -0.00956975 0)
(0.99027 -0.00527231 0)
(0.992934 -0.00292407 0)
(0.99421 -0.00312922 0)
(0.994681 -0.00391204 0)
(0.993805 -0.00385615 0)
(0.993886 -0.00335834 0)
(0.993416 -0.00256772 0)
(0.99362 -0.00186955 0)
(0.992917 -0.000918073 0)
(0.992308 0.00158109 0)
(0.992752 0.00246425 0)
(0.993825 0.00349932 0)
(0.994315 0.00404242 0)
(0.994305 0.00486074 0)
(0.993206 0.00549862 0)
(0.991529 0.00606229 0)
(0.99939 -0.000323606 0)
(1.00256 -0.00289387 0)
(0.99956 -0.00913914 0)
(0.992805 -0.00914778 0)
(0.990844 -0.00527741 0)
(0.993259 -0.00306377 0)
(0.994299 -0.00311655 0)
(0.994742 -0.00380834 0)
(0.993939 -0.00372866 0)
(0.994071 -0.00319426 0)
(0.993632 -0.00239525 0)
(0.99384 -0.00153527 0)
(0.993416 -0.000882625 0)
(0.992863 0.00144954 0)
(0.993119 0.00246709 0)
(0.994144 0.00341032 0)
(0.994627 0.00395954 0)
(0.994678 0.00463664 0)
(0.993562 0.00527767 0)
(0.991855 0.00576273 0)
(0.999428 -0.000341944 0)
(1.00235 -0.00293825 0)
(0.9995 -0.00870373 0)
(0.993234 -0.00872716 0)
(0.9914 -0.00526312 0)
(0.99359 -0.00320225 0)
(0.994403 -0.00310507 0)