/*--------------------------------*- C++ -*----------------------------------*\
| =========                 |                                                 |
| \\      /  F ield         | OpenFOAM: The Open Source CFD Toolbox           |
|  \\    /   O peration     | Version:  v2012                                 |
|   \\  /    A nd           | Website:  www.openfoam.com                      |
|    \\/     M anipulation  |                                                 |
\*---------------------------------------------------------------------------*/
FoamFile
{
    version     2.0;
    format      ascii;
    class       volScalarField;
    location    "1.8";
    object      p;
}
// * * * * * * * * * * * * * * * * * * * * * * * * * * * * * * * * * * * * * //

dimensions      [0 2 -2 0 0 0 0];


internalField   nonuniform List<scalar> 
7000
(
1.59271e-08
-0.00130399
-0.0112946
0.0035452
0.00593558
0.00615791
0.0100285
0.0109541
0.0100426
0.0103248
0.00970261
0.0124813
0.0125865
0.0153664
0.0153659
0.0167301
0.0171475
0.019145
0.0208237
0.0241269
-2.81284e-06
-0.00132495
-0.0112758
0.00354634
0.00591972
0.00616734
0.0100237
0.0109571
0.0100453
0.0103279
0.00970544
0.0124531
0.0125888
0.0153296
0.0153644
0.0167064
0.0171457
0.0191263
0.0208233
0.0239342
-9.36605e-06
-0.00134946
-0.0112665
0.00353811
0.00589857
0.0061881
0.0100153
0.010967
0.0100501
0.0103256
0.00970672
0.0124095
0.0125881
0.0152698
0.0153657
0.0166668
0.0171486
0.019096
0.0208153
0.0236709
-1.75784e-05
-0.00137197
-0.0112569
0.00352451
0.00587815
0.00621456
0.0100016
0.0109814
0.0100566
0.0103178
0.00971252
0.0123512
0.0125834
0.0152009
0.0153639
0.0166286
0.0171527
0.0190655
0.0207992
0.0234051
-2.69429e-05
-0.00138896
-0.0112406
0.00350277
0.00585709
0.00624328
0.00998145
0.0109981
0.0100642
0.0103074
0.00972543
0.01228
0.0125801
0.015125
0.0153625
0.0165924
0.017162
0.0190324
0.0207759
0.0231619
-3.73028e-05
-0.00139722
-0.0112086
0.00347091
0.00583435
0.0062731
0.00995597
0.0110147
0.0100724
0.0102972
0.00974564
0.012204
0.0125814
0.0150432
0.0153656
0.0165545
0.0171788
0.0189937
0.0207461
0.0229396
-4.81435e-05
-0.00139489
-0.011154
0.00342927
0.00581148
0.00630379
0.00992685
0.0110293
0.0100807
0.0102887
0.00977249
0.0121306
0.0125886
0.014957
0.0153729
0.0165134
0.0172014
0.0189486
0.0207075
0.0227314
-5.88072e-05
-0.00138163
-0.0110728
0.00338056
0.00579105
0.00633501
0.00989525
0.0110407
0.0100891
0.0102823
0.00980539
0.0120628
0.0126022
0.0148667
0.0153832
0.0164686
0.0172263
0.018899
0.0206578
0.0225333
-6.87363e-05
-0.00135804
-0.0109647
0.00332787
0.00577486
0.00636605
0.00986148
0.0110485
0.0100978
0.0102774
0.00984395
0.0120011
0.0126226
0.0147717
0.015396
0.0164201
0.0172511
0.0188478
0.0205955
0.0223433
-7.75741e-05
-0.00132526
-0.0108317
0.00327354
0.00576323
0.00639598
0.00982529
0.0110526
0.0101068
0.0102732
0.0098877
0.0119449
0.012649
0.0146716
0.0154105
0.0163691
0.0172734
0.0187971
0.0205194
0.0221596
-8.51853e-05
-0.00128458
-0.0106774
0.00321907
0.00575556
0.00642403
0.00978622
0.011053
0.0101162
0.0102691
0.00993607
0.0118896
0.0126809
0.0145665
0.0154258
0.0163171
0.0172901
0.0187473
0.0204293
0.0219798
-9.16093e-05
-0.00123727
-0.0105053
0.00316548
0.00575115
0.00644972
0.0097438
0.0110498
0.0101258
0.0102648
0.00998857
0.011836
0.0127173
0.0144575
0.0154399
0.0162654
0.0172977
0.0186976
0.0203255
0.0218012
-9.69767e-05
-0.00118454
-0.0103183
0.00311374
0.00574961
0.00647289
0.00969783
0.0110427
0.0101356
0.0102599
0.0100446
0.0117842
0.0127572
0.0143466
0.0154508
0.0162149
0.0172933
0.0186459
0.0202091
0.0216213
-0.000101422
-0.00112747
-0.010119
0.0030647
0.0057509
0.00649365
0.00964843
0.0110316
0.0101456
0.0102541
0.0101037
0.0117351
0.0127997
0.0142369
0.0154568
0.0161661
0.0172751
0.01859
0.0200818
0.021438
-0.00010503
-0.00106708
-0.00990911
0.00301901
0.00575499
0.00651227
0.00959609
0.0110163
0.0101559
0.0102469
0.010165
0.0116897
0.0128435
0.0141318
0.0154566
0.0161193
0.0172425
0.0185277
0.0199458
0.0212499
-0.000107833
-0.00100424
-0.00969028
0.00297686
0.00576172
0.00652905
0.00954156
0.0109969
0.0101668
0.0102382
0.0102281
0.0116488
0.0128877
0.0140344
0.0154495
0.0160745
0.0171964
0.0184574
0.0198028
0.0210566
-0.000109818
-0.00093967
-0.00946367
0.0029381
0.00577068
0.00654422
0.00948571
0.0109735
0.0101785
0.0102279
0.0102924
0.0116125
0.0129309
0.0139467
0.0154347
0.0160319
0.0171378
0.0183779
0.0196545
0.0208585
-0.000110946
-0.000873931
-0.00923028
0.00290228
0.00578135
0.0065579
0.00942941
0.0109463
0.0101914
0.0102158
0.0103575
0.0115808
0.0129718
0.0138696
0.0154115
0.0159913
0.017068
0.0182891
0.019502
0.0206559
-0.00011116
-0.000807458
-0.00899094
0.00286887
0.00579322
0.00657011
0.00937344
0.0109154
0.0102056
0.010202
0.010423
0.0115534
0.0130089
0.0138028
0.0153793
0.015952
0.0169883
0.0181909
0.019346
0.0204497
-0.00011039
-0.000740574
-0.00874637
0.00283735
0.0058059
0.00658083
0.00931847
0.0108811
0.0102212
0.0101868
0.0104882
0.0115306
0.0130408
0.0137454
0.0153374
0.0159134
0.0168996
0.0180831
0.019187
0.020241
-0.000108552
-0.00067351
-0.00849712
0.00280724
0.00581903
0.00659
0.00926504
0.0108437
0.0102381
0.0101703
0.0105518
0.0115125
0.0130664
0.0136965
0.0152853
0.0158742
0.0168036
0.0179652
0.0190248
0.0200308
-0.000105543
-0.000606411
-0.00824361
0.00277812
0.00583236
0.00659753
0.00921359
0.0108032
0.0102562
0.0101533
0.0106126
0.0114991
0.0130848
0.0136549
0.0152229
0.0158325
0.0167015
0.0178378
0.0188597
0.0198199
-0.000101242
-0.000539351
-0.00798607
0.00274968
0.00584573
0.00660337
0.00916442
0.0107602
0.010275
0.0101364
0.0106696
0.0114905
0.0130947
0.0136196
0.0151513
0.0157866
0.0165936
0.0177009
0.0186924
0.0196095
-9.55153e-05
-0.000472342
-0.00772455
0.00272174
0.0058591
0.00660746
0.0091177
0.0107149
0.0102939
0.0101208
0.0107217
0.0114866
0.0130957
0.0135887
0.0150712
0.0157354
0.0164805
0.0175543
0.0185225
0.0194006
-8.82145e-05
-0.000405351
-0.00745897
0.00269431
0.00587255
0.00660974
0.00907347
0.010668
0.010312
0.0101076
0.0107681
0.0114873
0.013088
0.0135602
0.0149832
0.0156774
0.0163633
0.0173981
0.0183493
0.019194
-7.91842e-05
-0.000338318
-0.00718919
0.00266753
0.00588625
0.0066103
0.00903154
0.0106204
0.0103282
0.0100973
0.0108085
0.011492
0.0130718
0.0135328
0.0148881
0.0156113
0.0162425
0.0172319
0.0181728
0.0189915
-6.82597e-05
-0.000271193
-0.00691505
0.00264167
0.00590041
0.00660921
0.0089916
0.010573
0.0103418
0.0100905
0.0108426
0.0115004
0.0130478
0.0135045
0.0147864
0.0155364
0.0161208
0.0170564
0.0179891
0.0187933
-5.52678e-05
-0.00020394
-0.0066364
0.00261703
0.00591525
0.00660658
0.00895322
0.0105269
0.0103521
0.0100876
0.0108701
0.011512
0.0130172
0.0134741
0.014678
0.0154499
0.0160023
0.0168793
0.0177957
0.0185924
-4.00269e-05
-0.000136544
-0.00635315
0.00259391
0.00593101
0.0066027
0.00891569
0.0104832
0.0103586
0.0100883
0.0108917
0.0115261
0.0129797
0.0134419
0.0145624
0.0153471
0.0158842
0.0167112
0.0176018
0.0183803
-2.23517e-05
-6.90175e-05
-0.0060653
0.00257264
0.00594779
0.00659808
0.00887793
0.0104427
0.010361
0.0100924
0.0109075
0.011544
0.0129357
0.0134065
0.0144392
0.0152281
0.0157549
0.0165507
0.0174265
0.0181609
-2.04058e-06
-1.38142e-06
-0.00577304
0.00255361
0.00596538
0.00659335
0.00883899
0.0104059
0.0103594
0.0100989
0.0109185
0.0115635
0.0128861
0.0133693
0.0143095
0.0150951
0.0156096
0.0163822
0.0172694
0.0179517
2.10557e-05
6.64015e-05
-0.00547662
0.00253727
0.00598354
0.00658906
0.00879829
0.0103728
0.0103548
0.0101056
0.0109287
0.0115787
0.0128331
0.0133304
0.0141755
0.01495
0.0154583
0.0161972
0.0170793
0.0177551
4.71272e-05
0.000134198
-0.00517603
0.00252368
0.00600218
0.00658578
0.00875546
0.0103426
0.0103485
0.0101109
0.0109401
0.0115874
0.0127831
0.0132842
0.0140434
0.0147897
0.0152966
0.0159995
0.0168521
0.0175693
7.65348e-05
0.000201842
-0.00487193
0.00251322
0.00602099
0.00658417
0.00871
0.0103153
0.0103412
0.010113
0.0109547
0.0115859
0.0127358
0.0132346
0.0139146
0.0146135
0.0151156
0.0157794
0.0165846
0.0174096
0.000109225
0.00026964
-0.0045652
0.00250668
0.00603908
0.00658534
0.00866024
0.0102916
0.0103324
0.0101124
0.0109698
0.0115876
0.0126755
0.0131885
0.0137794
0.0144127
0.0149095
0.0155433
0.0163679
0.01727
0.000145349
0.00033739
-0.00425568
0.00250429
0.00605592
0.00658987
0.00860656
0.0102698
0.0103242
0.0101094
0.010982
0.0115984
0.0126005
0.0131286
0.0136347
0.0141982
0.0146786
0.0153247
0.0162273
0.0171246
0.000185642
0.000404555
-0.00394437
0.00250641
0.00607132
0.00659806
0.00855143
0.0102475
0.0103184
0.0101022
0.0109937
0.0116014
0.0125257
0.0130369
0.0134822
0.0139874
0.0144804
0.0151406
0.0159988
0.0169582
0.000229639
0.000472007
-0.0036327
0.00251406
0.00608447
0.00661092
0.00849119
0.010226
0.0103152
0.0100918
0.0109978
0.0116131
0.0124388
0.0129266
0.0133336
0.0137784
0.0142735
0.0149542
0.0158145
0.0167864
0.000277486
0.000539513
-0.00332059
0.00252794
0.00609454
0.00662831
0.00838829
0.0102026
0.0103176
0.0100776
0.0109904
0.0117002
0.0123319
0.0128072
0.0131939
0.0135808
0.0140453
0.0147334
0.0156789
0.0166302
0.000330261
0.000606529
-0.00300926
0.00254817
0.00610213
0.00664918
0.00833162
0.0101705
0.010328
0.010057
0.0109766
0.0116594
0.0122412
0.0126713
0.0130561
0.0134137
0.0138353
0.0144887
0.0153903
0.0164802
0.000386969
0.000674594
-0.00269997
0.00257548
0.00610696
0.00667478
0.00827155
0.0101323
0.0103425
0.0100351
0.010947
0.011659
0.0121528
0.0125317
0.0129202
0.0132429
0.0136181
0.014231
0.0151495
0.0163304
0.000448089
0.000743368
-0.00239304
0.00261091
0.00610832
0.00670424
0.00821018
0.0100884
0.0103583
0.010016
0.010897
0.0116764
0.0120637
0.0123955
0.0127754
0.0130674
0.0134006
0.0139603
0.0149499
0.0161804
0.000514578
0.000812646
-0.00208978
0.00265427
0.00610794
0.00673474
0.00815788
0.0100344
0.0103768
0.00999744
0.0108373
0.0116633
0.0120007
0.0122484
0.0126132
0.0129026
0.0131898
0.0137229
0.014675
0.0160262
0.000585127
0.000884018
-0.00179096
0.00270522
0.00610694
0.00676658
0.00810953
0.00997372
0.0103935
0.00998265
0.0107634
0.0116414
0.0119478
0.0120946
0.012449
0.0127307
0.012981
0.0135016
0.0144365
0.0158629
0.000660734
0.000957147
-0.00149738
0.002765
0.00610509
0.00679801
0.00806554
0.00990806
0.0104054
0.00997341
0.0106754
0.0116126
0.0118972
0.0119561
0.0122695
0.0125416
0.0127962
0.0132989
0.0142153
0.0156874
0.000741635
0.00103228
-0.00120955
0.0028324
0.00610429
0.00682888
0.00802701
0.00983557
0.0104125
0.00996806
0.0105812
0.0115611
0.0118577
0.0118297
0.0120683
0.0123587
0.0126274
0.0131013
0.0139918
0.0155202
0.000826885
0.00111069
-0.000927854
0.00290564
0.00610699
0.00685942
0.00799083
0.00975819
0.0104134
0.00996852
0.0104797
0.0114928
0.0118241
0.011709
0.0118724
0.0121746
0.0124439
0.0129069
0.0138053
0.0153733
0.00091744
0.00119246
-0.000653123
0.00298531
0.00611349
0.00688835
0.00795732
0.00967671
0.010407
0.00997443
0.0103748
0.0114072
0.0117866
0.0116068
0.0116852
0.011967
0.012249
0.0127428
0.0136536
0.0152307
0.00101273
0.0012781
-0.000384378
0.00306906
0.0061234
0.00691894
0.00792617
0.0095891
0.0103913
0.00998625
0.0102714
0.0113018
0.0117444
0.011522
0.0114994
0.0117473
0.0120604
0.0125929
0.0135147
0.0150945
0.0011128
0.00136817
-0.000122065
0.00315559
0.00613917
0.00695187
0.00789485
0.00949575
0.0103665
0.0100048
0.0101714
0.0111787
0.0116933
0.0114478
0.0113262
0.0115314
0.0118666
0.0124312
0.0133849
0.014982
0.00121793
0.00146257
0.000133957
0.00324516
0.00615828
0.00698611
0.00786558
0.00939897
0.0103319
0.010028
0.0100782
0.0110387
0.0116273
0.0113835
0.0111732
0.0113182
0.0116592
0.0122619
0.0132684
0.0148904
0.00132749
0.00156195
0.000384794
0.00333553
0.00618023
0.00702451
0.00783989
0.00929793
0.0102847
0.0100543
0.00999662
0.0108834
0.0115437
0.0113268
0.0110402
0.011111
0.0114466
0.0120866
0.0131537
0.014807
0.00144195
0.00166668
0.000630341
0.003426
0.00620513
0.00706691
0.00781756
0.00919344
0.0102254
0.0100821
0.00992982
0.0107165
0.0114403
0.0112718
0.0109251
0.0109179
0.0112354
0.0119034
0.0130233
0.0147252
0.001561
0.00177659
0.000871863
0.00351633
0.00623553
0.00711253
0.00780131
0.00908864
0.010154
0.0101068
0.0098787
0.0105423
0.0113143
0.011213
0.0108269
0.0107447
0.0110292
0.0117103
0.0128786
0.0146411
0.00168463
0.00189218
0.00110962
0.00360564
0.00625689
0.00716158
0.00779157
0.00898403
0.0100703
0.0101253
0.00984587
0.0103665
0.0111643
0.0111475
0.0107431
0.010592
0.0108303
0.0115124
0.0127186
0.0145487
0.00181277
0.00201346
0.0013441
0.00369428
0.00627526
0.0072253
0.00778933
0.00888223
0.00997605
0.0101346
0.00983034
0.0101955
0.0109909
0.0110699
0.0106682
0.0104587
0.0106433
0.0113157
0.0125499
0.014446
0.00194511
0.00214058
0.00157603
0.00378255
0.00628887
0.00727716
0.00779604
0.00878574
0.00987266
0.0101305
0.00982907
0.010038
0.0107967
0.0109761
0.0105994
0.0103443
0.0104731
0.0111253
0.0123759
0.014333
0.00208165
0.00227358
0.00180581
0.00387136
0.00629644
0.00732477
0.00781133
0.00869729
0.00976304
0.0101114
0.00983879
0.00990107
0.0105875
0.0108621
0.0105315
0.0102463
0.0103215
0.010943
0.0122011
0.0142131
0.00222219
0.00241241
0.0020343
0.00396146
0.00629672
0.00736594
0.00783499
0.00862008
0.00964991
0.0100756
0.00985279
0.00979079
0.0103705
0.0107235
0.0104603
0.0101622
0.0101887
0.0107715
0.0120308
0.014092
0.00236656
0.00255695
0.00226206
0.00405393
0.00628916
0.00739693
0.00786618
0.00855566
0.009536
0.0100238
0.00986553
0.00970849
0.0101539
0.0105599
0.0103812
0.0100871
0.0100727
0.0106149
0.0118721
0.0139742
0.00251474
0.00270614
0.00248972
0.00415027
0.00627336
0.00741523
0.00790418
0.00850506
0.00942374
0.00995763
0.00987007
0.00965204
0.00994876
0.0103734
0.0102873
0.010017
0.00997509
0.0104802
0.0117298
0.0138597
0.00266724
0.00285848
0.00271674
0.00425108
0.00625069
0.00742404
0.00794777
0.00846798
0.00931436
0.00987847
0.0098612
0.00961603
0.00976453
0.0101695
0.0101746
0.00994868
0.00989632
0.0103678
0.0116005
0.0137472
0.00282393
0.00301341
0.00294128
0.00435672
0.00622697
0.00742576
0.00799223
0.00844245
0.00920935
0.00978888
0.00983487
0.00959239
0.00960888
0.00995883
0.0100405
0.00987554
0.00983039
0.0102722
0.0114845
0.0136442
0.00298445
0.00317084
0.00316145
0.00446793
0.00620731
0.00741901
0.00803263
0.00842693
0.00911014
0.00969131
0.00979049
0.00957377
0.00948484
0.00975115
0.00988482
0.00979059
0.00977071
0.0101945
0.0113901
0.0135548
0.00314865
0.00333042
0.00337643
0.00458521
0.00619388
0.00740356
0.00806627
0.00842051
0.00901809
0.00958952
0.00973069
0.00955188
0.00938784
0.00955628
0.00971362
0.00969037
0.00971391
0.010137
0.0113165
0.0134737
0.00331623
0.00349179
0.00358609
0.00470814
0.00618788
0.00738014
0.00809132
0.00842187
0.00893463
0.00948638
0.00965823
0.00951957
0.00931082
0.00938281
0.00953648
0.00957454
0.00965446
0.0100912
0.0112557
0.0134016
0.00348692
0.003655
0.00379031
0.00483552
0.00619028
0.00735098
0.00810631
0.00842904
0.0088607
0.009383
0.00957575
0.0094751
0.00924763
0.00923299
0.00936188
0.00944508
0.0095846
0.0100484
0.0112087
0.0133439
0.00366047
0.00382005
0.00398883
0.00496607
0.00620211
0.00731858
0.00811017
0.00843912
0.00879655
0.00928112
0.00948667
0.00941896
0.00919059
0.00910405
0.00919635
0.00930699
0.00950204
0.0100059
0.0111733
0.0132962
0.00383657
0.00398687
0.00418173
0.00509848
0.00622372
0.00728526
0.00810269
0.00844921
0.00874209
0.00918292
0.00939375
0.00935155
0.00913415
0.00899312
0.0090441
0.00916653
0.00940795
0.0099571
0.0111398
0.0132544
0.0040149
0.00415537
0.00436906
0.00523149
0.00625492
0.00725334
0.00808437
0.00845661
0.00869667
0.00908981
0.00929892
0.00927463
0.00907554
0.00889619
0.00890521
0.00902757
0.00930376
0.00989751
0.0111041
0.0132185
0.0041952
0.0043255
0.00455086
0.00536382
0.00629526
0.00722512
0.00805648
0.00845873
0.00865845
0.00900287
0.00920431
0.00919081
0.0090128
0.00880895
0.00877828
0.00889335
0.0091937
0.00982798
0.0110633
0.0131836
0.00437709
0.00449715
0.00472737
0.00549436
0.00634376
0.00720245
0.00802105
0.00845402
0.00862509
0.00892262
0.00911164
0.00910175
0.00894429
0.00872872
0.00866299
0.00876661
0.00908139
0.00974823
0.0110124
0.0131452
0.0045602
0.00467008
0.00489884
0.00562229
0.00639932
0.00718658
0.00798021
0.00844137
0.00861934
0.00884962
0.00902224
0.00900993
0.00886949
0.00865311
0.00855793
0.00864678
0.00896772
0.00965937
0.0109517
0.0131027
0.00474402
0.00484407
0.00506585
0.00574689
0.00646035
0.00717829
0.00793638
0.00841876
0.0085921
0.00878151
0.00893683
0.00891871
0.00878916
0.00857913
0.00846037
0.00853204
0.008854
0.00956502
0.0108835
0.0130554
0.00492806
0.00501872
0.00522893
0.00586777
0.00652533
0.00717774
0.00789186
0.00838665
0.00856433
0.00871796
0.00885483
0.00883008
0.00870452
0.00850428
0.00836834
0.00842246
0.00874229
0.00946748
0.0108084
0.0130018
0.00511185
0.00519373
0.00538851
0.00598453
0.00659283
0.00718463
0.00784888
0.00834633
0.00853446
0.00865836
0.00877483
0.00874466
0.00861713
0.00842673
0.00828055
0.00831838
0.00863312
0.00936732
0.0107272
0.0129423
0.00529496
0.00536862
0.00554502
0.00609724
0.00666133
0.00719799
0.00780922
0.0082997
0.0085007
0.0086019
0.00869581
0.0086617
0.00852925
0.00834626
0.00819541
0.0082183
0.00852523
0.0092647
0.0106414
0.0128785
0.00547696
0.00554289
0.00569867
0.00620592
0.00672977
0.00721699
0.0077739
0.00824874
0.00846156
0.00854776
0.00861771
0.00857943
0.00844234
0.00826389
0.00811184
0.00812142
0.00841889
0.00916065
0.0105517
0.0128096
0.00565731
0.00571598
0.00584982
0.00631078
0.00679684
0.00724051
0.00774363
0.00819595
0.00841615
0.00849406
0.00854112
0.00849652
0.00835587
0.00817938
0.0080287
0.00802813
0.00831557
0.00905616
0.0104577
0.0127347
0.00583568
0.0058873
0.00599837
0.00641223
0.00686181
0.00726724
0.00771836
0.00814319
0.00836533
0.00843879
0.00846652
0.00841296
0.00826883
0.00809185
0.00794387
0.00793698
0.0082149
0.0089517
0.0103604
0.0126544
0.00601163
0.00605628
0.00614435
0.0065106
0.0069239
0.00729614
0.00769789
0.00809159
0.00831052
0.00837987
0.00839331
0.00832946
0.00818097
0.0080013
0.00785552
0.00784549
0.00811554
0.00884753
0.0102603
0.0125687
0.00618477
0.00622218
0.00628749
0.00660655
0.00698288
0.00732583
0.00768166
0.00804181
0.00825371
0.00831569
0.00831903
0.0082464
0.00809261
0.00790826
0.00776248
0.00775153
0.008016
0.00874331
0.0101578
0.0124774
0.00635455
0.00638458
0.0064276
0.00670024
0.00703852
0.00735521
0.00766913
0.00799324
0.0081967
0.00824771
0.0082409
0.0081628
0.00800383
0.00781322
0.00766386
0.00765248
0.00791386
0.00863785
0.010053
0.0123809
0.00652052
0.00654282
0.00656432
0.00679218
0.0070909
0.00738285
0.00765988
0.00794514
0.00813971
0.0081786
0.00815767
0.00807677
0.00791452
0.00771781
0.00756097
0.00754669
0.00780583
0.00852778
0.00994321
0.0122771
0.00668221
0.00669659
0.00669708
0.00688204
0.00714038
0.00740793
0.00765364
0.00789759
0.00808109
0.00811033
0.00806947
0.00798526
0.00782256
0.00762228
0.00745646
0.00743565
0.00769108
0.00841086
0.00982628
0.0121641
0.00683903
0.00684532
0.00682564
0.00697001
0.00718724
0.00742891
0.00764941
0.0078518
0.00801917
0.00804465
0.00798036
0.00788617
0.00772352
0.00752273
0.00734959
0.00731981
0.00756933
0.00828595
0.00970106
0.0120416
0.00699065
0.00698866
0.00694896
0.00705557
0.00723321
0.00744577
0.00764443
0.00780791
0.00795133
0.00797946
0.00789539
0.00778388
0.00761709
0.00741617
0.00723786
0.0071978
0.00743879
0.00815025
0.00956436
0.0119067
0.00713615
0.00712687
0.00706724
0.0071374
0.00727777
0.00745888
0.0076375
0.00776682
0.00787771
0.00790876
0.00781418
0.00768215
0.00750629
0.0073021
0.00711953
0.00706865
0.00729871
0.00800172
0.00941284
0.0117557
0.00727477
0.007259
0.00718092
0.00721627
0.00732101
0.00746807
0.0076253
0.00773011
0.00780274
0.00783042
0.00773358
0.0075812
0.00739167
0.00718009
0.00699262
0.00693147
0.00714934
0.00784152
0.00924517
0.0115852
0.00740534
0.00738419
0.00728934
0.00729163
0.00736224
0.00747589
0.00760621
0.00769334
0.00773128
0.00774716
0.00765228
0.00748156
0.00727395
0.00704948
0.00685444
0.00678327
0.00698666
0.00766338
0.00905564
0.0113908
0.00752786
0.00750309
0.00739232
0.00736413
0.00739851
0.00747709
0.00757729
0.00765198
0.00766485
0.00766375
0.00757088
0.00738626
0.00715762
0.00691414
0.00670626
0.00662195
0.00680993
0.00747077
0.0088485
0.011173
0.00764015
0.00762051
0.0074958
0.0074357
0.00743506
0.00747424
0.00753912
0.00760019
0.0075988
0.0075812
0.00748735
0.00729558
0.00704666
0.00677748
0.00654605
0.00644251
0.00661492
0.0072631
0.00863031
0.0109467
0.00770623
0.00772085
0.00759845
0.0075012
0.0074628
0.00747481
0.00750214
0.00751829
0.00751683
0.00748348
0.0073874
0.00719347
0.00692765
0.00662857
0.00636013
0.0062173
0.00635313
0.00696829
0.00830509
0.0105941
0.0078493
0.0078213
0.00768873
0.00756159
0.0074589
0.0074305
0.00747708
0.00753168
0.00753583
0.00748999
0.00738954
0.00721011
0.00695439
0.00665358
0.00635798
0.00615596
0.00619183
0.00668073
0.00788447
0.010044
0.00786196
0.00792605
0.00776048
0.00765377
0.00754866
0.00737708
0.00719016
0.00723699
0.00728658
0.0072642
0.00715031
0.00698159
0.00674744
0.00651761
0.00634394
0.00631386
0.00650953
0.00710007
0.0083273
0.0104585
0.00805847
0.00794648
0.00778304
0.00760449
0.0074697
0.00744481
0.00752176
0.00760056
0.0075724
0.00751568
0.00738073
0.00714419
0.00676074
0.00623743
0.00565356
0.00514356
0.00489447
0.00513389
0.00611732
0.00810922
0.00833754
0.00791761
0.00767901
0.00750251
0.00744802
0.00726967
0.0070028
0.00690369
0.00697796
0.00704242
0.00702471
0.00696141
0.00703671
0.00736112
0.00801583
0.00895205
0.00999819
0.0108544
0.0111548
0.0105335
0.00835973
0.00798052
0.00769427
0.00759297
0.00759243
0.00763088
0.00770607
0.00775301
0.00771468
0.00754864
0.00722774
0.00671843
0.00601246
0.00518929
0.00436165
0.00362993
0.0031499
0.00313865
0.00386227
0.00556074
0.00855837
0.00796962
0.00764766
0.00752885
0.00756447
0.00747657
0.00729102
0.00704312
0.00686238
0.00684692
0.00682703
0.00667611
0.00652628
0.00653018
0.00680592
0.00737664
0.00814969
0.00883512
0.00904547
0.00842418
0.00855758
0.00795696
0.00765471
0.00762843
0.00778176
0.00794785
0.00813454
0.00821504
0.00810322
0.00770937
0.00702473
0.00598762
0.00461407
0.00307379
0.0016322
0.000512678
-0.000127013
-0.000116998
0.000756516
0.0026858
0.0289258
0.0148466
0.00948036
0.0104865
0.0122285
0.0134052
0.0142305
0.015101
0.0162309
0.0175536
0.0188894
0.020063
0.0211544
0.0223818
0.0237027
0.0249521
0.026211
0.0276087
0.0291053
0.0304922
0.0317072
0.033033
0.034659
0.036428
0.038187
0.0399757
0.0417911
0.0436746
0.0455802
0.0475453
0.049621
0.0518538
0.0541047
0.0564073
0.0588
0.0612944
0.0639153
0.066603
0.0694308
0.072276
0.075268
0.078328
0.0814998
0.0848132
0.0881117
0.091659
0.095134
0.0988282
0.102462
0.10581
0.0285293
0.0149008
0.00952367
0.0105057
0.0122393
0.0134119
0.0142351
0.0151042
0.0162334
0.0175556
0.0188912
0.0200645
0.0211557
0.0223829
0.0237037
0.0249531
0.0262119
0.0276095
0.0291061
0.0304929
0.0317079
0.0330335
0.0346595
0.0364284
0.0381875
0.0399761
0.0417915
0.0436749
0.0455805
0.0475456
0.0496212
0.051854
0.0541049
0.0564075
0.0588002
0.0612946
0.0639154
0.0666031
0.0694309
0.0722762
0.0752682
0.0783281
0.0814999
0.0848133
0.0881118
0.0916591
0.0951341
0.0988283
0.102462
0.10581
0.02815
0.0150041
0.00959255
0.0105281
0.0122511
0.0134194
0.0142399
0.0151075
0.0162358
0.0175575
0.0188929
0.020066
0.0211569
0.0223839
0.0237047
0.024954
0.0262128
0.0276102
0.0291068
0.0304936
0.0317085
0.033034
0.0346599
0.0364289
0.0381878
0.0399764
0.0417918
0.0436752
0.0455808
0.0475458
0.0496214
0.0518542
0.054105
0.0564077
0.0588004
0.0612947
0.0639156
0.0666033
0.0694311
0.0722763
0.0752683
0.0783282
0.0815
0.0848133
0.0881119
0.0916592
0.0951342
0.0988283
0.102462
0.10581
0.0278124
0.0151445
0.00969117
0.0105585
0.0122668
0.0134296
0.0142464
0.0151119
0.0162388
0.0175597
0.0188947
0.0200676
0.0211582
0.022385
0.0237056
0.0249549
0.0262135
0.0276109
0.0291075
0.0304943
0.031709
0.0330344
0.0346603
0.0364293
0.0381882
0.0399768
0.0417921
0.0436755
0.045581
0.047546
0.0496216
0.0518544
0.0541052
0.0564078
0.0588005
0.0612949
0.0639157
0.0666034
0.0694312
0.0722764
0.0752684
0.0783283
0.0815
0.0848134
0.0881119
0.0916592
0.0951342
0.0988284
0.102462
0.10581
0.0274777
0.0153002
0.0098113
0.0105969
0.0122875
0.013444
0.014256
0.0151184
0.0162432
0.0175626
0.0188969
0.0200694
0.0211597
0.0223862
0.0237066
0.0249558
0.0262144
0.0276117
0.0291082
0.030495
0.0317097
0.0330348
0.0346607
0.0364297
0.0381886
0.0399772
0.0417925
0.0436758
0.0455813
0.0475463
0.0496218
0.0518546
0.0541054
0.056408
0.0588007
0.061295
0.0639159
0.0666035
0.0694313
0.0722765
0.0752685
0.0783284
0.0815001
0.0848135
0.088112
0.0916593
0.0951343
0.0988284
0.102462
0.105811
0.0271285
0.0154609
0.00994338
0.0106398
0.012312
0.0134624
0.0142689
0.0151275
0.0162495
0.0175667
0.0188996
0.0200717
0.0211618
0.0223878
0.0237078
0.0249567
0.0262152
0.0276126
0.0291091
0.0304959
0.0317104
0.0330353
0.0346612
0.0364302
0.0381891
0.0399776
0.0417928
0.0436762
0.0455816
0.0475465
0.049622
0.0518548
0.0541056
0.0564082
0.0588008
0.0612952
0.063916
0.0666037
0.0694315
0.0722766
0.0752686
0.0783286
0.0815002
0.0848136
0.0881121
0.0916594
0.0951344
0.0988285
0.102462
0.105811
0.0267656
0.0156238
0.0100827
0.0106845
0.0123385
0.0134838
0.0142848
0.0151393
0.0162579
0.017572
0.018903
0.0200745
0.0211644
0.0223898
0.0237091
0.0249576
0.026216
0.0276134
0.0291099
0.0304969
0.0317113
0.0330359
0.0346617
0.0364308
0.0381896
0.039978
0.0417933
0.0436765
0.0455819
0.0475468
0.0496223
0.051855
0.0541059
0.0564084
0.058801
0.0612953
0.0639162
0.0666038
0.0694316
0.0722768
0.0752687
0.0783287
0.0815004
0.0848137
0.0881122
0.0916595
0.0951345
0.0988286
0.102463
0.105811
0.0263938
0.0157879
0.0102279
0.0107301
0.0123658
0.013507
0.0143027
0.015153
0.0162681
0.0175786
0.018907
0.0200778
0.0211676
0.0223924
0.0237107
0.0249587
0.0262169
0.0276142
0.0291107
0.030498
0.0317124
0.0330367
0.0346623
0.0364313
0.0381901
0.0399785
0.0417937
0.043677
0.0455823
0.0475471
0.0496226
0.0518553
0.0541061
0.0564086
0.0588012
0.0612955
0.0639163
0.066604
0.0694318
0.0722769
0.0752689
0.0783288
0.0815005
0.0848138
0.0881123
0.0916596
0.0951346
0.0988288
0.102463
0.105812
0.0260163
0.015952
0.0103788
0.0107765
0.0123933
0.0135314
0.014322
0.0151682
0.0162796
0.0175864
0.0189118
0.0200815
0.0211713
0.0223955
0.0237127
0.02496
0.0262179
0.027615
0.0291114
0.0304991
0.0317136
0.0330377
0.0346631
0.036432
0.0381906
0.039979
0.0417943
0.0436775
0.0455828
0.0475475
0.0496229
0.0518556
0.0541064
0.0564088
0.0588014
0.0612957
0.0639165
0.0666041
0.0694319
0.0722771
0.075269
0.078329
0.0815006
0.084814
0.0881124
0.0916597
0.0951347
0.0988289
0.102463
0.105812
0.0256351
0.0161151
0.0105361
0.0108241
0.0124209
0.0135565
0.0143422
0.0151841
0.016292
0.0175951
0.0189172
0.0200855
0.0211754
0.0223992
0.0237152
0.0249615
0.0262191
0.0276157
0.0291119
0.0305001
0.0317151
0.033039
0.0346642
0.0364328
0.0381912
0.0399796
0.0417948
0.043678
0.0455833
0.047548
0.0496233
0.051856
0.0541067
0.0564091
0.0588016
0.0612959
0.0639167
0.0666043
0.0694321
0.0722773
0.0752692
0.0783291
0.0815008
0.0848141
0.0881126
0.0916599
0.0951348
0.0988291
0.102463
0.105813
0.0252528
0.0162764
0.0107002
0.0108731
0.0124485
0.0135824
0.0143633
0.0152008
0.016305
0.0176043
0.0189232
0.0200899
0.0211797
0.0224032
0.0237181
0.0249635
0.0262205
0.0276165
0.0291122
0.0305008
0.0317165
0.0330405
0.0346656
0.0364338
0.0381918
0.0399801
0.0417954
0.0436786
0.0455839
0.0475486
0.0496238
0.0518564
0.0541071
0.0564094
0.0588019
0.0612961
0.0639169
0.0666045
0.0694323
0.0722774
0.0752693
0.0783293
0.0815009
0.0848143
0.0881127
0.09166
0.095135
0.0988294
0.102464
0.105814
0.0248722
0.0164355
0.0108714
0.010924
0.0124759
0.0136087
0.0143851
0.015218
0.0163185
0.0176141
0.0189295
0.0200945
0.0211842
0.0224074
0.0237213
0.0249657
0.0262221
0.0276175
0.0291124
0.0305013
0.0317178
0.0330422
0.0346673
0.0364351
0.0381925
0.0399806
0.0417959
0.0436792
0.0455846
0.0475492
0.0496244
0.0518569
0.0541075
0.0564098
0.0588022
0.0612964
0.0639171
0.0666047
0.0694325
0.0722776
0.0752695
0.0783295
0.0815011
0.0848145
0.0881129
0.0916603
0.0951353
0.0988297
0.102464
0.105814
0.0244959
0.0165916
0.0110496
0.010977
0.0125031
0.0136356
0.0144075
0.0152357
0.0163324
0.0176241
0.0189362
0.0200994
0.0211889
0.0224117
0.0237247
0.0249682
0.026224
0.0276185
0.0291124
0.0305014
0.0317187
0.0330438
0.0346693
0.0364368
0.0381934
0.0399811
0.0417964
0.0436798
0.0455853
0.0475499
0.049625
0.0518575
0.054108
0.0564102
0.0588026
0.0612967
0.0639173
0.0666049
0.0694327
0.0722778
0.0752697
0.0783297
0.0815014
0.0848148
0.0881132
0.0916605
0.0951355
0.0988301
0.102465
0.105816
0.0241258
0.0167441
0.0112348
0.0110325
0.0125299
0.0136627
0.0144307
0.0152539
0.0163467
0.0176344
0.0189431
0.0201045
0.0211936
0.0224161
0.0237282
0.0249709
0.026226
0.0276196
0.0291123
0.0305012
0.0317193
0.0330453
0.0346715
0.0364389
0.0381945
0.0399816
0.0417968
0.0436802
0.0455859
0.0475507
0.0496258
0.0518582
0.0541086
0.0564107
0.0588031
0.0612971
0.0639176
0.0666051
0.0694329
0.072278
0.0752699
0.0783299
0.0815016
0.084815
0.0881134
0.0916608
0.0951359
0.0988306
0.102466
0.105817
0.0237627
0.0168925
0.011427
0.0110912
0.0125562
0.0136901
0.0144544
0.0152728
0.0163615
0.017645
0.0189501
0.0201097
0.0211985
0.0224207
0.0237317
0.0249737
0.0262281
0.0276208
0.0291121
0.0305006
0.0317195
0.0330464
0.0346737
0.0364413
0.0381958
0.0399821
0.0417971
0.0436806
0.0455865
0.0475515
0.0496266
0.0518589
0.0541091
0.0564113
0.0588037
0.0612975
0.0639179
0.0666053
0.0694331
0.0722782
0.0752702
0.0783301
0.0815018
0.0848153
0.0881138
0.0916612
0.0951363
0.0988313
0.102467
0.105818
0.0234068
0.0170359
0.0116263
0.0111537
0.0125821
0.0137175
0.0144788
0.0152923
0.0163768
0.0176559
0.0189572
0.020115
0.0212036
0.0224255
0.0237354
0.0249767
0.0262304
0.0276221
0.0291117
0.0304996
0.0317193
0.0330473
0.0346758
0.0364438
0.0381973
0.0399826
0.0417974
0.0436809
0.045587
0.0475523
0.0496276
0.0518597
0.0541097
0.056412
0.0588044
0.0612981
0.0639182
0.0666056
0.0694333
0.0722785
0.0752704
0.0783304
0.0815021
0.0848157
0.0881141
0.0916616
0.0951368
0.098832
0.102468
0.10582
0.0230578
0.0171739
0.0118327
0.0112206
0.0126076
0.0137449
0.0145038
0.0153125