/*--------------------------------*- C++ -*----------------------------------*\
| =========                 |                                                 |
| \\      /  F ield         | OpenFOAM: The Open Source CFD Toolbox           |
|  \\    /   O peration     | Version:  v2012                                 |
|   \\  /    A nd           | Website:  www.openfoam.com                      |
|    \\/     M anipulation  |                                                 |
\*---------------------------------------------------------------------------*/
FoamFile
{
    version     2.0;
    format      ascii;
    class       surfaceScalarField;
    location    "1.8";
    object      phi;
}
// * * * * * * * * * * * * * * * * * * * * * * * * * * * * * * * * * * * * * //

dimensions      [0 3 -1 0 0 0 0];
oriented        oriented;


internalField   nonuniform List<scalar> 
13830
(
9.06951e-07
7.03217e-07
8.11538e-07
-6.46661e-07
1.02385e-06
-3.11051e-06
1.00558e-06
2.15494e-07
9.48573e-07
4.44591e-07
9.88395e-07
9.12799e-07
9.6589e-07
-2.93187e-07
9.82232e-07
-4.42854e-07
9.92982e-07
-9.4355e-07
1.00881e-06
-5.3107e-07
1.00183e-06
-3.41892e-07
9.76162e-07
-5.32409e-08
9.70469e-07
4.3402e-07
9.38614e-07
1.8909e-07
9.43143e-07
5.08443e-07
9.23997e-07
2.30837e-07
9.29174e-07
3.16387e-07
9.22154e-07
1.24453e-07
9.23098e-07
1.42943e-07
5.02009e-08
9.11438e-07
9.37068e-07
7.38681e-07
8.44773e-07
-5.54366e-07
1.06761e-06
-3.33335e-06
1.05333e-06
2.2978e-07
9.87429e-07
5.10488e-07
1.0439e-06
8.56325e-07
1.01668e-06
-2.65964e-07
1.02712e-06
-4.53294e-07
1.03747e-06
-9.53903e-07
1.05065e-06
-5.44244e-07
1.0443e-06
-3.35547e-07
1.01707e-06
-2.60063e-08
1.00583e-06
4.4526e-07
9.77526e-07
2.17391e-07
9.72582e-07
5.13387e-07
9.64842e-07
2.38577e-07
9.58029e-07
3.23199e-07
9.65077e-07
1.17406e-07
9.52214e-07
1.55806e-07
4.07172e-08
9.61697e-07
9.69041e-07
7.79093e-07
8.84477e-07
-4.69802e-07
1.1095e-06
-3.55837e-06
1.11481e-06
2.2447e-07
1.03523e-06
5.90065e-07
1.09888e-06
7.92674e-07
1.06784e-06
-2.34923e-07
1.0698e-06
-4.55248e-07
1.07569e-06
-9.59798e-07
1.09211e-06
-5.60662e-07
1.0848e-06
-3.28239e-07
1.06492e-06
-6.1299e-09
1.04308e-06
4.671e-07
1.02372e-06
2.36752e-07
1.00888e-06
5.2823e-07
1.00931e-06
2.38151e-07
9.99234e-07
3.33273e-07
1.00857e-06
1.08067e-07
9.98569e-07
1.65809e-07
3.55749e-08
1.00371e-06
1.0048e-06
8.22074e-07
9.31775e-07
-3.96782e-07
1.14852e-06
-3.77512e-06
1.18013e-06
1.92861e-07
1.09135e-06
6.78843e-07
1.14921e-06
7.34815e-07
1.11503e-06
-2.00744e-07
1.1077e-06
-4.47917e-07
1.107e-06
-9.59094e-07
1.12771e-06
-5.8138e-07
1.1217e-06
-3.22223e-07
1.1111e-06
4.47369e-09
1.08583e-06
4.92368e-07
1.07055e-06
2.52027e-07
1.05532e-06
5.43464e-07
1.05555e-06
2.37918e-07
1.04918e-06
3.39641e-07
1.05524e-06
1.02013e-07
1.04934e-06
1.71707e-07
3.46411e-08
1.05027e-06
1.04512e-06
8.64512e-07
9.85345e-07
-3.37009e-07
1.18205e-06
-3.97183e-06
1.23989e-06
1.35029e-07
1.15322e-06
7.65506e-07
1.19531e-06
6.92727e-07
1.15881e-06
-1.64245e-07
1.14181e-06
-4.30916e-07
1.13472e-06
-9.52007e-07
1.15722e-06
-6.03873e-07
1.15529e-06
-3.20296e-07
1.15274e-06
7.02234e-09
1.13147e-06
5.13643e-07
1.11726e-06
2.6623e-07
1.10581e-06
5.54919e-07
1.10412e-06
2.39608e-07
1.10051e-06
3.43245e-07
1.10387e-06
9.86588e-08
1.09938e-06
1.76192e-07
3.6411e-08
1.09761e-06
1.09049e-06
9.02862e-07
1.04308e-06
-2.89597e-07
1.20938e-06
-4.13813e-06
1.2884e-06
5.60075e-08
1.21706e-06
8.36851e-07
1.23897e-06
6.70812e-07
1.20078e-06
-1.26049e-07
1.17513e-06
-4.05269e-07
1.16298e-06
-9.39852e-07
1.18406e-06
-6.24961e-07
1.18685e-06
-3.23085e-07
1.19077e-06
3.10056e-09
1.17672e-06
5.27696e-07
1.16398e-06
2.78975e-07
1.15621e-06
5.62689e-07
1.15413e-06
2.41685e-07
1.15137e-06
3.46007e-07
1.15322e-06
9.68108e-08
1.14878e-06
1.80627e-07
3.99585e-08
1.14523e-06
1.14085e-06
9.3371e-07
1.10324e-06
-2.5199e-07
1.23247e-06
-4.26736e-06
1.32528e-06
-3.67942e-08
1.27891e-06
8.8322e-07
1.28177e-06
6.67953e-07
1.24207e-06
-8.63579e-08
1.21047e-06
-3.73662e-07
1.19431e-06
-9.23698e-07
1.21201e-06
-6.42661e-07
1.21792e-06
-3.28996e-07
1.2271e-06
-6.08026e-09
1.22054e-06
5.3426e-07
1.21104e-06
2.88473e-07
1.20629e-06
5.67439e-07
1.20546e-06
2.42515e-07
1.20283e-06
3.48638e-07
1.20361e-06
9.60286e-08
1.19888e-06
1.85365e-07
4.50003e-08
1.19383e-06
1.19533e-06
9.54563e-07
1.16482e-06
-2.21478e-07
1.25522e-06
-4.35776e-06
1.35405e-06
-1.3563e-07
1.33562e-06
9.01656e-07
1.32422e-06
6.79352e-07
1.28324e-06
-4.53795e-08
1.24913e-06
-3.39555e-07
1.2296e-06
-9.04167e-07
1.24327e-06
-6.56328e-07
1.25012e-06
-3.35848e-07
1.26356e-06
-1.95224e-08
1.26391e-06
5.33916e-07
1.2592e-06
2.93177e-07
1.25739e-06
5.69248e-07
1.25851e-06
2.414e-07
1.25597e-06
3.5118e-07
1.2554e-06
9.65906e-08
1.25025e-06
1.90517e-07
5.16734e-08
1.24358e-06
1.25244e-06
9.64475e-07
1.22727e-06
-1.96305e-07
1.28158e-06
-4.41208e-06
1.37963e-06
-2.33676e-07
1.3856e-06
8.95692e-07
1.36594e-06
6.99003e-07
1.32451e-06
-3.94029e-09
1.29111e-06
-3.06155e-07
1.26882e-06
-8.81878e-07
1.27853e-06
-6.66043e-07
1.28471e-06
-3.42023e-07
1.30164e-06
-3.64549e-08
1.30834e-06
5.27217e-07
1.30918e-06
2.92335e-07
1.3104e-06
5.68031e-07
1.31319e-06
2.38605e-07
1.31068e-06
3.53688e-07
1.3081e-06
9.9176e-08
1.30237e-06
1.96244e-07
6.01972e-08
1.29385e-06
1.31059e-06
9.64162e-07
1.29022e-06
-1.75931e-07
1.314e-06
-4.43586e-06
1.40591e-06
-3.25587e-07
1.42886e-06
8.72737e-07
1.40622e-06
7.21652e-07
1.36599e-06
3.62828e-08
1.33582e-06
-2.75987e-07
1.31167e-06
-8.57729e-07
1.31774e-06
-6.72103e-07
1.32228e-06
-3.46567e-07
1.34219e-06
-5.63654e-08
1.35474e-06
5.14663e-07
1.36107e-06
2.8601e-07
1.36505e-06
5.6405e-07
1.36856e-06
2.35092e-07
1.36583e-06
3.56422e-07
1.36054e-06
1.04466e-07
1.35407e-06
2.02716e-07
7.0605e-08
1.34366e-06
1.36862e-06
9.55561e-07
1.35331e-06
-1.60622e-07
1.35283e-06
-4.43537e-06
1.43473e-06
-4.07491e-07
1.46655e-06
8.40924e-07
1.4446e-06
7.43592e-07
1.40779e-06
7.30949e-08
1.38276e-06
-2.50954e-07
1.3579e-06
-8.3287e-07
1.36065e-06
-6.74849e-07
1.36289e-06
-3.48811e-07
1.38525e-06
-7.87207e-08
1.40289e-06
4.97015e-07
1.41393e-06
2.74977e-07
1.41999e-06
5.57986e-07
1.42295e-06
2.3213e-07
1.41972e-06
3.5965e-07
1.41139e-06
1.12794e-07
1.4042e-06
2.09915e-07
8.26011e-08
1.3922e-06
1.42611e-06
9.41101e-07
1.41628e-06
-1.50791e-07
1.39701e-06
-4.4161e-06
1.46629e-06
-4.76765e-07
1.50037e-06
8.06844e-07
1.48148e-06
7.62483e-07
1.45015e-06
1.04425e-07
1.4316e-06
-2.32412e-07
1.40724e-06
-8.08508e-07
1.40709e-06
-6.74694e-07
1.40639e-06
-3.4811e-07
1.43019e-06
-1.02529e-07
1.45161e-06
4.75603e-07
1.46596e-06
2.60621e-07
1.47327e-06
5.50678e-07
1.47457e-06
2.3083e-07
1.47088e-06
3.63345e-07
1.45974e-06
1.23926e-07
1.45217e-06
2.17493e-07
9.55419e-08
1.43923e-06
1.4833e-06
9.23042e-07
1.479e-06
-1.46484e-07
1.4451e-06
-4.38221e-06
1.50027e-06
-5.31929e-07
1.53244e-06
7.74675e-07
1.5181e-06
7.76826e-07
1.49362e-06
1.28905e-07
1.48224e-06
-2.2104e-07
1.4594e-06
-7.85667e-07
1.45689e-06
-6.72185e-07
1.45271e-06
-3.43926e-07
1.47633e-06
-1.26147e-07
1.49953e-06
4.52404e-07
1.5154e-06
2.44747e-07
1.52328e-06
5.42793e-07
1.52234e-06
2.31772e-07
1.51866e-06
3.6703e-07
1.50555e-06
1.37037e-07
1.49825e-06
2.24795e-07
1.08558e-07
1.48523e-06
1.54083e-06
9.03088e-07
1.54153e-06
-1.47184e-07
1.49605e-06
-4.33674e-06
1.53686e-06
-5.72741e-07
1.56517e-06
7.4637e-07
1.55631e-06
7.85687e-07
1.53907e-06
1.46145e-07
1.53473e-06
-2.16704e-07
1.51404e-06
-7.6497e-07
1.50983e-06
-6.67982e-07
1.50199e-06
-3.36081e-07
1.52341e-06
-1.4757e-07
1.54611e-06
4.29709e-07
1.56156e-06
2.29291e-07
1.5697e-06
5.34659e-07
1.56658e-06
2.34887e-07
1.56372e-06
3.69896e-07
1.54983e-06
1.50927e-07
1.54356e-06
2.31061e-07
1.20767e-07
1.53135e-06
1.59939e-06
8.82314e-07
1.60412e-06
-1.51921e-07
1.54944e-06
-4.28205e-06
1.57695e-06
-6.00249e-07
1.60097e-06
7.22353e-07
1.59797e-06
7.88687e-07
1.58744e-06
1.56669e-07
1.58928e-06
-2.18541e-07
1.57083e-06
-7.46524e-07
1.56559e-06
-6.62737e-07
1.55443e-06
-3.24919e-07
1.57188e-06
-1.65028e-07
1.59209e-06
4.09499e-07
1.60545e-06
2.15934e-07
1.61384e-06
5.26266e-07
1.60909e-06
2.39639e-07
1.60788e-06
3.71109e-07
1.59442e-06
1.64388e-07
1.58979e-06
2.35686e-07
1.31502e-07
1.57906e-06
1.65954e-06
8.61316e-07
1.66717e-06
-1.59552e-07
1.60531e-06
-4.22019e-06
1.62162e-06
-6.16564e-07
1.64175e-06
7.02229e-07
1.64439e-06
7.86047e-07
1.63945e-06
1.61607e-07
1.64618e-06
-2.25268e-07
1.62964e-06
-7.29981e-07
1.62385e-06
-6.56949e-07
1.61014e-06
-3.11211e-07
1.62261e-06
-1.77497e-07
1.63924e-06
3.92865e-07
1.64939e-06
2.05791e-07
1.65825e-06
5.17401e-07
1.65256e-06
2.45334e-07
1.65355e-06
3.70118e-07
1.64139e-06
1.76546e-07
1.63868e-06
2.38399e-07
1.40441e-07
1.62974e-06
1.72164e-06
8.40422e-07
1.7311e-06
-1.69011e-07
1.66385e-06
-4.15294e-06
1.67166e-06
-6.24377e-07
1.68859e-06
6.85305e-07
1.69615e-06
7.78481e-07
1.69544e-06
1.62318e-07
1.70573e-06
-2.35557e-07
1.69051e-06
-7.14758e-07
1.68444e-06
-6.50881e-07
1.66911e-06
-2.95881e-07
1.67642e-06
-1.84811e-07
1.68949e-06
3.798e-07
1.69602e-06
1.99259e-07
1.70563e-06
5.07792e-07
1.69958e-06
2.51376e-07
1.70288e-06
3.66818e-07
1.69245e-06
1.86984e-07
1.69155e-06
2.39297e-07
1.47608e-07
1.68438e-06
1.78588e-06
8.19859e-07
1.79632e-06
-1.79455e-07
1.72521e-06
-4.08183e-06
1.72727e-06
-6.26437e-07
1.74172e-06
6.70858e-07
1.75322e-06
7.66977e-07
1.75542e-06
1.60122e-07
1.76814e-06
-2.48275e-07
1.75366e-06
-7.00284e-07
1.74736e-06
-6.44581e-07
1.73122e-06
-2.79739e-07
1.73381e-06
-1.87401e-07
1.74416e-06
3.69454e-07
1.74731e-06
1.96104e-07
1.75792e-06
4.97186e-07
1.75192e-06
2.57374e-07
1.75726e-06
3.6148e-07
1.74857e-06
1.9568e-07
1.74913e-06
2.38731e-07
1.53252e-07
1.74349e-06
1.85237e-06
7.99827e-07
1.86318e-06
-1.90267e-07
1.78949e-06
-4.00814e-06
1.78828e-06
-6.25228e-07
1.80089e-06
6.58246e-07
1.81529e-06
7.52582e-07
1.81923e-06
1.56177e-07
1.83349e-06
-2.62535e-07
1.81938e-06
-6.86172e-07
1.81276e-06
-6.37962e-07
1.79641e-06
-2.63391e-07
1.79492e-06
-1.8591e-07
1.80376e-06
3.60617e-07
1.80417e-06
1.95689e-07
1.81596e-06
4.85399e-07
1.81024e-06
2.63093e-07
1.81714e-06
3.54584e-07
1.81001e-06
2.02811e-07
1.81159e-06
2.37148e-07
1.57707e-07
1.80713e-06
1.92123e-06
7.80495e-07
1.93196e-06
-2.00995e-07
1.85675e-06
-3.93292e-06
1.85439e-06
-6.22871e-07
1.86571e-06
6.46926e-07
1.88201e-06
7.36287e-07
1.88669e-06
1.51489e-07
1.90178e-06
-2.77618e-07
1.88787e-06
-6.72262e-07
1.8808e-06
-6.30895e-07
1.86471e-06
-2.47303e-07
1.85975e-06
-1.80944e-07
1.86816e-06
3.52198e-07
1.86661e-06
1.97239e-07
1.87967e-06
4.72342e-07
1.87439e-06
2.68374e-07
1.88233e-06
3.46646e-07
1.87654e-06
2.08602e-07
1.87873e-06
2.34953e-07
1.61282e-07
1.87516e-06
1.99264e-06
7.61955e-07
2.00294e-06
-2.11296e-07
1.92708e-06
-3.85706e-06
1.92535e-06
-6.21141e-07
1.93581e-06
6.36464e-07
1.95312e-06
7.18979e-07
1.95769e-06
1.46923e-07
1.97292e-06
-2.92855e-07
1.95921e-06
-6.58553e-07
1.95158e-06
-6.23263e-07
1.93621e-06
-2.31933e-07
1.9283e-06
-1.73034e-07
1.93705e-06
3.4345e-07
1.93422e-06
2.00069e-07
1.94852e-06
4.5804e-07
1.94383e-06
2.73067e-07
1.95236e-06
3.38119e-07
1.94772e-06
2.13238e-07
1.95022e-06
2.32449e-07
1.64214e-07
1.94729e-06
2.06681e-06
7.44199e-07
2.07643e-06
-2.20921e-07
2.00058e-06
-3.78121e-06
2.00088e-06
-6.21439e-07
2.0108e-06
6.26542e-07
2.0284e-06
7.01382e-07
2.03216e-06
1.43161e-07
2.04687e-06
-3.07571e-07
2.03343e-06
-6.45105e-07
2.02511e-06
-6.14947e-07
2.011e-06
-2.1782e-07
2.00068e-06
-1.62718e-07
2.01017e-06
3.33963e-07
2.00654e-06
2.03697e-07
2.02192e-06
4.42659e-07
2.01795e-06
2.7704e-07
2.0267e-06
3.2937e-07
2.02306e-06
2.16876e-07
2.02569e-06
2.29824e-07
1.66668e-07
2.02323e-06
2.14392e-06
7.27119e-07
2.15274e-06
-2.29743e-07
2.0773e-06
-3.70576e-06
2.08055e-06
-6.24689e-07
2.09015e-06
6.16944e-07
2.10756e-06
6.83965e-07
2.11012e-06
1.40607e-07
2.12364e-06
-3.21091e-07
2.1105e-06
-6.31966e-07
2.10134e-06
-6.05788e-07
2.08905e-06
-2.05532e-07
2.07697e-06
-1.50642e-07
2.08736e-06
3.23577e-07
2.08325e-06
2.07811e-07
2.09939e-06
4.26515e-07
2.09623e-06
2.80202e-07
2.10489e-06
3.20713e-07
2.10213e-06
2.19633e-07
2.10476e-06
2.27189e-07
1.68759e-07
2.10267e-06
2.22416e-06
7.10545e-07
2.23218e-06
-2.37768e-07
2.15722e-06
-3.6308e-06
2.16377e-06
-6.31236e-07
2.17319e-06
6.07525e-07
2.1903e-06
6.66853e-07
2.19161e-06
1.393e-07
2.20329e-06
-3.32773e-07
2.19047e-06
-6.19147e-07
2.18022e-06
-5.95539e-07
2.17021e-06
-1.95522e-07
2.15713e-06
-1.37556e-07
2.16845e-06
3.12255e-07
2.16407e-06
2.12193e-07
2.18057e-06
4.10011e-07
2.17825e-06
2.82517e-07
2.18655e-06
3.1242e-07
2.18456e-06
2.2162e-07
2.18716e-06
2.24595e-07
1.70567e-07
2.18535e-06
2.30765e-06
6.94289e-07
2.315e-06
-2.45123e-07
2.2403e-06
-3.5561e-06
2.24992e-06
-6.40854e-07
2.25929e-06
5.98151e-07
2.27633e-06
6.49811e-07
2.27671e-06
1.38926e-07
2.28598e-06
-3.42047e-07
2.27348e-06
-6.06647e-07
2.26184e-06
-5.839e-07
2.25435e-06
-1.88033e-07
2.24093e-06
-1.24139e-07
2.25318e-06
3.00006e-07
2.24873e-06
2.1664e-07
2.26519e-06
3.93552e-07
2.26372e-06
2.83996e-07
2.27141e-06
3.04722e-07
2.2701e-06
2.22929e-07
2.27266e-06
2.22044e-07
1.72153e-07
2.27107e-06
2.3945e-06
6.78173e-07
2.40139e-06
-2.52008e-07
2.3265e-06
-3.48121e-06
2.33853e-06
-6.52885e-07
2.34803e-06
5.88653e-07
2.3655e-06
6.32339e-07
2.36551e-06
1.38912e-07
2.37188e-06
-3.48412e-07
2.3597e-06
-5.94464e-07
2.34644e-06
-5.70644e-07
2.34138e-06
-1.82971e-07
2.32815e-06
-1.10906e-07
2.34128e-06
2.86869e-07
2.33697e-06
2.20958e-07
2.3531e-06
3.77413e-07
2.3524e-06
2.84703e-07
2.35939e-06
2.97729e-07
2.35868e-06
2.23638e-07
2.36117e-06
2.19556e-07
1.73553e-07
2.35977e-06
2.48482e-06
6.62036e-07
2.49145e-06
-2.58642e-07
2.41585e-06
-3.40561e-06
2.42943e-06
-6.6647e-07
2.4393e-06
5.78791e-07
2.45779e-06
6.13847e-07
2.45814e-06
1.3856e-07
2.46118e-06
-3.51458e-07
2.44928e-06
-5.82555e-07
2.43428e-06
-5.55652e-07
2.43129e-06
-1.79982e-07
2.41858e-06
-9.81951e-08
2.43254e-06
2.72916e-07
2.42853e-06
2.24962e-07
2.44422e-06
3.61725e-07
2.44415e-06
2.8477e-07
2.45101e-06
2.90869e-07
2.45052e-06
2.24134e-07
2.45269e-06
2.17385e-07
1.74765e-07
2.45148e-06
2.5787e-06
6.45739e-07
2.58529e-06
-2.65232e-07
2.50845e-06
-3.32877e-06
2.52272e-06
-6.80743e-07
2.53325e-06
5.68259e-07
2.55326e-06
5.93839e-07
2.55465e-06
1.37171e-07
2.55414e-06
-3.50951e-07
2.54238e-06
-5.70791e-07
2.52563e-06
-5.38905e-07
2.52418e-06
-1.78532e-07
2.51222e-06
-8.62334e-08
2.52682e-06
2.58323e-07
2.52337e-06
2.2841e-07
2.53855e-06
3.46543e-07
2.53861e-06
2.84708e-07
2.54663e-06
2.82849e-07
2.54541e-06
2.25355e-07
2.5473e-06
2.15497e-07
1.75762e-07
2.5463e-06
2.67625e-06
6.29165e-07
2.68299e-06
-2.71966e-07
2.60446e-06
-3.25024e-06
2.61867e-06
-6.94957e-07
2.63022e-06
5.56714e-07
2.65201e-06
5.7205e-07
2.65502e-06
1.34156e-07
2.65094e-06
-3.46867e-07
2.63916e-06
-5.59018e-07
2.62078e-06
-5.20521e-07
2.62021e-06
-1.77959e-07
2.60924e-06
-7.52644e-08
2.62409e-06
2.43471e-07
2.62161e-06
2.30894e-07
2.63629e-06
3.31862e-07
2.63548e-06
2.85517e-07
2.64082e-06
2.77507e-07
2.6408e-06
2.25371e-07
2.64516e-06
2.11137e-07
1.76612e-07
2.64431e-06
2.77759e-06
6.12225e-07
2.78463e-06
-2.79008e-07
2.70406e-06
-3.16967e-06
2.71763e-06
-7.08524e-07
2.73053e-06
5.43815e-07
2.75407e-06
5.48507e-07
2.75906e-06
1.29164e-07
2.7517e-06
-3.39507e-07
2.73975e-06
-5.47067e-07
2.72002e-06
-5.00793e-07
2.71951e-06
-1.77442e-07
2.71003e-06
-6.57899e-08
2.72432e-06
2.29186e-07
2.72368e-06
2.31528e-07
2.73756e-06
3.1798e-07
2.73608e-06
2.86997e-07
2.73919e-06
2.74402e-07
2.73884e-06
2.25715e-07
2.74661e-06
2.03372e-07
1.77714e-07
2.74551e-06
2.88282e-06
5.94867e-07
2.89031e-06
-2.86503e-07
2.80747e-06
-3.08683e-06
2.81995e-06
-7.21006e-07
2.83449e-06
5.29277e-07
2.85949e-06
5.23506e-07
2.86666e-06
1.21998e-07
2.85654e-06
-3.29396e-07
2.84422e-06
-5.34744e-07
2.82366e-06
-4.80232e-07
2.82225e-06
-1.76032e-07
2.81508e-06
-5.86252e-08
2.82755e-06
2.1672e-07
2.83027e-06
2.28812e-07
2.84297e-06
3.05281e-07
2.8499e-06
2.80068e-07
2.85539e-06
2.68909e-07
2.85526e-06
2.25842e-07
2.85203e-06
2.06601e-07
1.79802e-07
2.84995e-06
2.99203e-06
5.77084e-07
3.00009e-06
-2.94563e-07
2.91489e-06
-3.00162e-06
2.92598e-06
-7.32097e-07
2.94236e-06
5.12889e-07
2.96833e-06
4.97538e-07
2.97776e-06
1.12573e-07
2.96551e-06
-3.17154e-07
2.95269e-06
-5.21923e-07
2.93178e-06
-4.59322e-07
2.92891e-06
-1.73155e-07
2.92426e-06
-5.39823e-08
2.93443e-06
2.06554e-07
2.94023e-06
2.23014e-07
2.95168e-06
2.93825e-07
2.96102e-06
2.70731e-07
2.96434e-06
2.65589e-07
2.96325e-06
2.26935e-07
2.96053e-06
2.09321e-07
1.82241e-07
2.95809e-06
3.10534e-06
5.58906e-07
3.11403e-06
-3.03252e-07
3.02654e-06
-2.91413e-06
3.03603e-06
-7.41595e-07
3.0544e-06
4.94522e-07
3.08073e-06
4.7121e-07
3.09243e-06
1.00872e-07
3.07862e-06
-3.03347e-07
3.06536e-06
-5.08661e-07
3.04426e-06
-4.3822e-07
3.04023e-06
-1.69123e-07
3.03659e-06
-5.03393e-08
3.04665e-06
1.96492e-07
3.05294e-06
2.16721e-07
3.06437e-06
2.82395e-07
3.07484e-06
2.60266e-07
3.08033e-06
2.60096e-07
3.08148e-06
2.25784e-07
3.07207e-06
2.18725e-07
1.83927e-07
3.07039e-06
3.22287e-06
5.40394e-07
3.23219e-06
-3.12572e-07
3.14265e-06
-2.82459e-06
3.15042e-06
-7.49368e-07
3.17084e-06
4.741e-07
3.19689e-06
4.45159e-07
3.21081e-06
8.69531e-08
3.19592e-06
-2.88459e-07
3.18236e-06
-4.95092e-07
3.16099e-06
-4.16859e-07
3.15696e-06
-1.65088e-07
3.15153e-06
-4.49129e-08
3.16474e-06
1.83285e-07
3.16929e-06
2.12176e-07
3.1812e-06
2.70483e-07
3.17579e-06
2.65672e-07
3.17585e-06
2.60042e-07
3.17489e-06
2.26743e-07
3.18616e-06
2.07452e-07
1.83109e-07
3.18698e-06
3.34477e-06
5.21632e-07
3.35468e-06
-3.22477e-07
3.26342e-06
-2.73333e-06
3.26942e-06
-7.55367e-07
3.29187e-06
4.51656e-07
3.31722e-06
4.19813e-07
3.333e-06
7.11702e-08
3.3177e-06
-2.73162e-07
3.30349e-06
-4.80879e-07
3.2826e-06
-3.95968e-07
3.27823e-06
-1.60717e-07
3.27171e-06
-3.84017e-08
3.28523e-06
1.69769e-07
3.28369e-06
2.13716e-07
3.29222e-06
2.61956e-07
3.29396e-06
2.63926e-07
3.29506e-06
2.58944e-07
3.29478e-06
2.27029e-07
3.30601e-06
1.96215e-07
1.81566e-07
3.30756e-06
3.4712e-06
5.02709e-07
3.48159e-06
-3.32862e-07
3.38908e-06
-2.64082e-06
3.39329e-06
-7.59577e-07
3.41767e-06
4.27276e-07
3.44206e-06
3.95419e-07
3.45917e-06
5.40606e-08
3.44421e-06
-2.58204e-07
3.42872e-06
-4.65389e-07
3.40937e-06
-3.76621e-07
3.40379e-06
-1.5513e-07
3.39753e-06
-3.21422e-08
3.40924e-06
1.58054e-07
3.40892e-06
2.14043e-07
3.41402e-06
2.56851e-07
3.42524e-06
2.52708e-07
3.44087e-06
2.4331e-07
3.4467e-06
2.21201e-07
3.43227e-06
2.10647e-07
1.81705e-07
3.43213e-06
3.60235e-06
4.83705e-07
3.61303e-06
-3.43547e-07
3.51984e-06
-2.54762e-06
3.52217e-06
-7.61916e-07
3.54849e-06
4.00957e-07
3.5716e-06
3.72316e-07
3.58972e-06
3.59327e-08
3.57538e-06
-2.43863e-07
3.55865e-06
-4.48659e-07
3.54057e-06
-3.58537e-07
3.53486e-06
-1.49425e-07
3.5259e-06
-2.31823e-08
3.53873e-06
1.45231e-07
3.53757e-06
2.15204e-07
3.54514e-06
2.49278e-07
3.54558e-06
2.52264e-07
3.54703e-06
2.41862e-07
3.54809e-06
2.20141e-07
3.55985e-06
1.98889e-07
1.79272e-07
3.56228e-06
3.73839e-06
4.64698e-07
3.7492e-06
-3.54353e-07
3.65587e-06
-2.45429e-06
3.65631e-06
-7.62359e-07
3.68436e-06
3.72915e-07
3.70629e-06
3.50382e-07
3.72469e-06
1.75342e-08
3.7118e-06
-2.30972e-07
3.69296e-06
-4.2982e-07
3.67716e-06
-3.42735e-07
3.66964e-06
-1.4191e-07
3.6597e-06
-1.32419e-08
3.66748e-06
1.3745e-07
3.67133e-06
2.11356e-07
3.67873e-06
2.41883e-07
3.67942e-06
2.51571e-07
3.68032e-06
2.40963e-07
3.68135e-06
2.19108e-07
3.69461e-06
1.85629e-07
1.7687e-07
3.69701e-06
3.87955e-06
4.45737e-07
3.89028e-06
-3.65088e-07
3.79735e-06
-2.36136e-06
3.79589e-06
-7.609e-07
3.82531e-06
3.43496e-07
3.8465e-06
3.29195e-07
3.86416e-06
-1.24834e-10
3.85382e-06
-2.20639e-07
3.8318e-06
-4.07797e-07
3.81911e-06
-3.3004e-07
3.80783e-06
-1.30632e-07
3.80203e-06
-7.44923e-09
3.80479e-06
1.34694e-07
3.8111e-06
2.0505e-07
3.816e-06
2.36984e-07
3.83384e-06
2.33728e-07
3.85085e-06
2.23952e-07
3.85664e-06
2.13318e-07
3.8375e-06
2.04772e-07
1.77986e-07
3.83638e-06
4.02605e-06
4.26841e-07
4.03646e-06
-3.75493e-07
3.94452e-06
-2.26943e-06
3.94095e-06
-7.57329e-07
3.97176e-06
3.12687e-07
3.99202e-06
3.08933e-07
4.00905e-06
-1.71486e-08
4.00035e-06
-2.11939e-07
3.97736e-06
-3.84814e-07
3.96389e-06
-3.16567e-07
3.95531e-06
-1.22045e-07
3.94482e-06
3.04016e-09
3.95019e-06
1.29315e-07
3.95546e-06
1.99788e-07
3.96203e-06
2.30409e-07
3.96371e-06
2.32051e-07
3.96454e-06
2.23124e-07
3.96613e-06
2.11725e-07
3.97993e-06
1.90968e-07
1.75382e-07
3.98254e-06
4.17809e-06
4.08036e-07
4.18799e-06
-3.85397e-07
4.09748e-06
-2.17892e-06
4.09186e-06
-7.51708e-07
4.12358e-06
2.80964e-07
4.14345e-06
2.89064e-07
4.15913e-06
-3.2831e-08
4.1523e-06
-2.05105e-07
4.12867e-06
-3.61189e-07
4.11381e-06
-3.01697e-07
4.10758e-06
-1.15819e-07
4.09583e-06
1.47941e-08
4.10051e-06
1.24629e-07
4.10558e-06
1.94721e-07
4.11198e-06
2.24003e-07
4.11409e-06
2.29948e-07
4.11797e-06
2.19238e-07
4.11853e-06
2.11164e-07
4.1302e-06
1.793e-07
1.71645e-07
4.13394e-06
4.3359e-06
3.89326e-07
4.34514e-06
-3.94638e-07
4.25637e-06
-2.09015e-06
4.24887e-06
-7.44209e-07
4.2808e-06
2.49034e-07
4.30119e-06
2.68676e-07
4.3144e-06
-4.60478e-08
4.31027e-06
-2.00972e-07
4.28513e-06
-3.36046e-07
4.27076e-06
-2.87334e-07
4.26301e-06
-1.08065e-07
4.25441e-06
2.33977e-08
4.2553e-06
1.23733e-07
4.26251e-06
1.8751e-07
4.26682e-06
2.19696e-07
4.27461e-06
2.22156e-07
4.28453e-06
2.0932e-07
4.29949e-06
1.96204e-07
4.28903e-06
1.89761e-07
1.70084e-07
4.29059e-06
4.49971e-06
3.70698e-07
4.50806e-06
-4.02983e-07
4.42144e-06
-2.00354e-06
4.41202e-06
-7.34781e-07
4.44403e-06
2.1702e-07
4.46481e-06
2.479e-07
4.47617e-06
-5.74056e-08
4.47312e-06
-1.97923e-07
4.44845e-06
-3.11384e-07
4.43246e-06
-2.71334e-07
4.42618e-06
-1.01793e-07
4.41745e-06
3.21332e-08
4.41792e-06
1.23258e-07
4.42443e-06
1.81001e-07
4.4304e-06
2.13727e-07
4.43527e-06
2.17282e-07
4.43768e-06
2.0691e-07
4.43672e-06
1.97171e-07
4.44991e-06
1.76566e-07
1.66138e-07
4.45386e-06
4.66973e-06
3.52176e-07
4.67708e-06
-4.10336e-07
4.59274e-06
-1.91919e-06
4.58176e-06
-7.23798e-07
4.61312e-06
1.85654e-07
4.63495e-06
2.2607e-07
4.64414e-06
-6.65965e-08
4.64184e-06
-1.95622e-07
4.6181e-06
-2.87641e-07
4.60046e-06
-2.537e-07
4.59511e-06
-9.6438e-08
4.58697e-06
4.02731e-08
4.58716e-06
1.23065e-07
4.59246e-06
1.75704e-07
4.5998e-06
2.06387e-07
4.60343e-06
2.13651e-07
4.6081e-06
2.02244e-07
4.61127e-06
1.93996e-07
4.61829e-06
1.69551e-07
1.61366e-07
4.62306e-06
4.84621e-06
3.33757e-07
4.85246e-06
-4.16588e-07
4.77044e-06
-1.83717e-06
4.75832e-06
-7.11676e-07
4.78828e-06
1.55693e-07
4.81169e-06
2.02655e-07
4.81853e-06
-7.34334e-08
4.81701e-06
-1.94102e-07
4.79363e-06
-2.64258e-07
4.77569e-06
-2.35765e-07
4.76987e-06
-9.06188e-08
4.76361e-06
4.65371e-08
4.76243e-06
1.24243e-07
4.76779e-06
1.7035e-07
4.77477e-06
1.99405e-07
4.77972e-06
2.08701e-07
4.78656e-06
1.95405e-07
4.79516e-06
1.8539e-07
4.79395e-06
1.7076e-07
1.56712e-07
4.79861e-06
5.02939e-06
3.1544e-07
5.0344e-06
-4.21596e-07
4.95485e-06
-1.75762e-06
4.94181e-06
-6.98645e-07
4.97005e-06
1.27454e-07
4.99455e-06
1.78161e-07
5.00017e-06
-7.90534e-08
4.99829e-06
-1.92225e-07
4.9759e-06
-2.41864e-07
4.95733e-06
-2.17199e-07
4.95166e-06
-8.49516e-08
4.94662e-06
5.15837e-08
4.94499e-06
1.25875e-07
4.94987e-06
1.6547e-07
4.9567e-06
1.92567e-07
4.96223e-06
2.03176e-07
4.96585e-06
1.91784e-07
4.96714e-06
1.84104e-07
4.97593e-06
1.61963e-07
1.51685e-07
4.98096e-06
5.2195e-06
2.9725e-07
5.22325e-06
-4.25345e-07
5.14612e-06
-1.68049e-06
5.13264e-06
-6.85167e-07
5.15861e-06
1.01482e-07
5.18398e-06
1.52796e-07
5.18874e-06
-8.38161e-08
5.18627e-06
-1.89753e-07
5.16499e-06
-2.20589e-07
5.14584e-06
-1.98046e-07
5.14026e-06
-7.93682e-08
5.13659e-06
5.52503e-08
5.13488e-06
1.27583e-07
5.13882e-06
1.6153e-07
5.14556e-06
1.85826e-07
5.15164e-06
1.97102e-07
5.15719e-06
1.86226e-07
5.16457e-06
1.76724e-07
5.16516e-06
1.61376e-07
1.46849e-07
5.17e-06
5.41683e-06
2.79199e-07
5.41929e-06
-4.2781e-07
5.34455e-06
-1.60575e-06
5.33096e-06
-6.71578e-07
5.35463e-06
7.78149e-08
5.38004e-06
1.27381e-07
5.38446e-06
-8.82301e-08
5.38126e-06
-1.8656e-07
5.36111e-06
-2.00437e-07
5.34162e-06
-1.78557e-07
5.33605e-06
-7.38003e-08
5.33378e-06
5.75208e-08
5.3321e-06
1.29264e-07
5.33523e-06
1.58406e-07
5.34189e-06
1.79165e-07
5.34819e-06
1.90806e-07
5.3523e-06
1.82111e-07
5.35505e-06
1.73975e-07
5.36153e-06
1.54899e-07
1.42171e-07
5.3662e-06
5.62163e-06
2.61304e-07
5.6228e-06
-4.28978e-07
5.55041e-06
-1.53336e-06
5.53711e-06
-6.58272e-07
5.55853e-06
5.63957e-08
5.58301e-06
1.02902e-07
5.58731e-06
-9.25359e-08
5.58359e-06
-1.82836e-07
5.56474e-06
-1.81593e-07
5.54513e-06
-1.58942e-07
5.53941e-06
-6.80783e-08
5.53837e-06
5.85606e-08
5.53697e-06
1.30658e-07
5.53948e-06
1.55902e-07
5.54564e-06
1.72997e-07
5.55209e-06
1.84361e-07
5.55695e-06
1.77248e-07
5.56197e-06
1.68962e-07
5.5656e-06
1.5126e-07
1.3784e-07
5.56994e-06
5.83419e-06
2.43598e-07
5.83414e-06
-4.28928e-07
5.764e-06
-1.46322e-06
5.75139e-06
-6.45665e-07
5.77059e-06
3.72008e-08
5.79337e-06
8.01211e-08
5.79745e-06
-9.66227e-08
5.79358e-06
-1.78957e-07
5.77621e-06
-1.64227e-07
5.75671e-06
-1.39448e-07
5.75045e-06
-6.181e-08
5.75065e-06
5.83544e-08
5.74969e-06
1.31617e-07
5.75174e-06
1.53856e-07
5.75718e-06
1.67558e-07
5.76384e-06
1.77698e-07
5.76934e-06
1.71753e-07
5.77565e-06
1.62644e-07
5.77755e-06
1.4936e-07
1.3397e-07
5.78142e-06
6.05479e-06
2.26102e-07
6.05356e-06
-4.27691e-07
5.98561e-06
-1.39527e-06
5.97392e-06
-6.33977e-07
5.99123e-06
1.98931e-08
6.01162e-06
5.97255e-08
6.01551e-06
-1.00507e-07
6.01148e-06
-1.74929e-07
5.9958e-06
-1.48553e-07
5.97665e-06
-1.20299e-07
5.96961e-06
-5.47693e-08
5.97087e-06
5.71025e-08
5.97059e-06
1.31893e-07
5.97224e-06
1.52207e-07
5.97709e-06
1.62709e-07
5.98361e-06
1.71176e-07
5.98861e-06
1.66752e-07
5.99225e-06
1.5901e-07
5.9976e-06
1.44002e-07
1.30579e-07
6.001e-06
6.28374e-06
2.08859e-07
6.28141e-06
-4.25363e-07
6.21553e-06
-1.32939e-06
6.20484e-06
-6.23287e-07
6.22055e-06
4.19015e-09
6.23867e-06
4.16048e-08
6.24183e-06
-1.03671e-07
6.23779e-06
-1.70891e-07
6.22385e-06
-1.34606e-07
6.20525e-06
-1.01704e-07
6.19727e-06
-4.6783e-08
6.19935e-06
5.50211e-08
6.19984e-06
1.31399e-07
6.20127e-06
1.50782e-07
6.20554e-06
1.58434e-07
6.2117e-06
1.6502e-07
6.21765e-06
1.60796e-07
6.22379e-06
1.52869e-07
6.22612e-06
1.41674e-07
1.27642e-07
6.22906e-06
6.52135e-06
1.91912e-07
6.51799e-06
-4.21997e-07
6.45413e-06
-1.26554e-06
6.44416e-06
-6.13316e-07
6.45889e-06
-1.05408e-08
6.4748e-06
2.56995e-08
6.47704e-06
-1.05908e-07
6.47283e-06
-1.66681e-07
6.46048e-06
-1.22261e-07
6.44283e-06
-8.40506e-08
6.43375e-06
-3.77061e-08
6.43632e-06
5.24543e-08
6.43782e-06
1.29901e-07
6.43906e-06
1.49543e-07
6.443e-06
1.54493e-07
6.4486e-06
1.59418e-07
6.45394e-06
1.55455e-07
6.45783e-06
1.48978e-07
6.46323e-06
1.36276e-07
1.24858e-07
6.46601e-06
6.76795e-06
1.75301e-07
6.76355e-06
-4.17591e-07
6.70173e-06
-1.20372e-06
6.69229e-06
-6.03871e-07
6.70662e-06
-2.48747e-08
6.72035e-06
1.19678e-08
6.7214e-06
-1.0696e-07
6.71689e-06
-1.62163e-07
6.70604e-06
-1.11411e-07
6.6897e-06
-6.7712e-08
6.67961e-06
-2.7622e-08
6.68212e-06
4.99444e-08
6.68483e-06
1.27199e-07
6.68591e-06
1.48454e-07
6.68964e-06
1.50765e-07
6.69454e-06
1.54522e-07
6.70044e-06
1.49552e-07
6.7058e-06
1.4362e-07
6.70933e-06
1.32749e-07
1.22061e-07
6.71212e-06
7.02386e-06
1.59086e-07
7.01842e-06
-4.12144e-07
6.95872e-06
-1.14403e-06
6.94957e-06
-5.94718e-07
6.96428e-06
-3.95817e-08
6.97573e-06
5.13471e-10
6.97536e-06
-1.06584e-07
6.97038e-06
-1.57187e-07
6.96082e-06
-1.01853e-07
6.94603e-06
-5.29247e-08
6.9352e-06
-1.67912e-08
6.93712e-06
4.80324e-08
6.94111e-06
1.23203e-07
6.94216e-06
1.47406e-07
6.94577e-06
1.47161e-07
6.95012e-06
1.50165e-07
6.95554e-06
1.44137e-07
6.95983e-06
1.3933e-07
6.96468e-06
1.27893e-07
1.18984e-07
6.96776e-06
7.28946e-06
1.4332e-07
7.28298e-06
-4.05674e-07
7.22543e-06
-1.08648e-06
7.21644e-06
-5.85722e-07
7.23219e-06
-5.53311e-08
7.24132e-06
-8.62282e-09
7.23922e-06
-1.04479e-07
7.23362e-06
-1.51594e-07
7.22518e-06
-9.34041e-08
7.21214e-06
-3.98872e-08
7.20101e-06
-5.65875e-09
7.20176e-06
4.72781e-08
7.207e-06
1.17957e-07
7.20823e-06
1.4618e-07
7.21169e-06
1.437e-07
7.21559e-06
1.46262e-07
7.22088e-06
1.38853e-07
7.22564e-06
1.34564e-07
7.22976e-06
1.23774e-07
1.15618e-07
7.23313e-06
7.56507e-06
1.28085e-07
7.55777e-06
-3.98378e-07
7.50222e-06
-1.03093e-06
7.49329e-06
-5.7679e-07
7.51003e-06
-7.20707e-08
7.51745e-06
-1.60435e-08
7.51338e-06
-1.00407e-07
7.50707e-06
-1.45289e-07
7.49953e-06
-8.58667e-08
7.48831e-06
-2.86628e-08
7.47731e-06
5.34048e-09
7.47657e-06
4.80192e-08
7.48277e-06
1.11755e-07
7.48445e-06
1.44499e-07
7.4877e-06
1.40456e-07
7.49132e-06
1.4264e-07
7.49619e-06
1.33984e-07
7.50076e-06
1.29988e-07
7.50496e-06
1.19579e-07
1.11959e-07
7.50862e-06
7.85108e-06
1.13458e-07
7.8432e-06
-3.905e-07
7.78941e-06
-9.77133e-07
7.78047e-06
-5.67849e-07
7.79786e-06
-8.94645e-08
7.80429e-06
-2.24684e-08
7.79813e-06
-9.42533e-08
7.79108e-06
-1.38235e-07
7.78432e-06
-7.91071e-08
7.77478e-06
-1.912e-08
7.76448e-06
1.56391e-08
7.76207e-06
5.04264e-08
7.76877e-06
1.05057e-07
7.77119e-06
1.42079e-07
7.77421e-06
1.37436e-07
7.77769e-06
1.39156e-07
7.78206e-06
1.29614e-07
7.78655e-06
1.25505e-07
7.79067e-06
1.15456e-07
1.08071e-07
7.79456e-06
8.14789e-06
9.95302e-08
8.13969e-06
-3.82297e-07
8.08733e-06
-9.24779e-07
8.07832e-06
-5.58834e-07
8.09614e-06
-1.07285e-07
8.10153e-06
-2.78618e-08
8.0938e-06
-8.65199e-08
8.08614e-06
-1.30577e-07
8.08e-06
-7.29706e-08
8.07199e-06
-1.11026e-08
8.06276e-06
2.48693e-08
8.05884e-06
5.43423e-08
8.0654e-06
9.84958e-08
8.06881e-06
1.38671e-07
8.07161e-06
1.34633e-07
8.07504e-06
1.35723e-07
8.07901e-06
1.25653e-07
8.08357e-06
1.20943e-07
8.08734e-06
1.11679e-07
1.04056e-07
8.09136e-06
8.4559e-06
8.63941e-08
8.4476e-06
-3.73997e-07
8.39594e-06
-8.73118e-07
8.38693e-06
-5.49823e-07
8.40461e-06
-1.24968e-07
8.4084e-06
-3.16566e-08
8.40077e-06
-7.88905e-08
8.39269e-06
-1.22494e-07
8.38702e-06
-6.72962e-08
8.38025e-06
-4.33589e-09
8.37243e-06
3.26928e-08
8.36741e-06
5.93611e-08
8.37314e-06
9.27657e-08
8.37764e-06
1.34163e-07
8.38033e-06
1.31946e-07
8.38382e-06
1.32231e-07
8.38728e-06
1.222e-07
8.39159e-06
1.16628e-07
8.3954e-06
1.0787e-07
1.00077e-07
8.39938e-06
8.77556e-06
7.41221e-08
8.76728e-06
-3.65717e-07
8.71512e-06
-8.20965e-07