/*--------------------------------*- C++ -*----------------------------------*\
| =========                 |                                                 |
| \\      /  F ield         | OpenFOAM: The Open Source CFD Toolbox           |
|  \\    /   O peration     | Version:  v2012                                 |
|   \\  /    A nd           | Website:  www.openfoam.com                      |
|    \\/     M anipulation  |                                                 |
\*---------------------------------------------------------------------------*/
FoamFile
{
    version     2.0;
    format      ascii;
    class       volScalarField;
    location    "2.9";
    object      p;
}
// * * * * * * * * * * * * * * * * * * * * * * * * * * * * * * * * * * * * * //

dimensions      [0 2 -2 0 0 0 0];


internalField   nonuniform List<scalar> 
7000
(
-6.07119e-11
0.00140837
0.00302218
0.000955267
-0.000905984
0.000282394
0.000541032
3.5135e-05
0.00122644
0.00264494
0.00404953
0.00531042
0.00597398
0.00758676
0.0080416
0.0099837
0.0110922
0.0138463
0.0160183
0.0209868
7.31591e-07
0.00140724
0.00299432
0.000952982
-0.00089531
0.000286398
0.000528292
4.90719e-05
0.00123401
0.00263638
0.00405611
0.00528124
0.00598175
0.00756817
0.00804327
0.00995398
0.011097
0.0137797
0.0160328
0.0207122
1.84792e-06
0.00140463
0.00296443
0.000951875
-0.000883877
0.000288998
0.000514377
7.01046e-05
0.00124038
0.0026216
0.00406456
0.00524001
0.00599648
0.00753537
0.00804325
0.0099145
0.0110996
0.0137105
0.0160324
0.020295
3.29547e-06
0.00140228
0.0029337
0.000951853
-0.000872287
0.000290942
0.000502485
8.71182e-05
0.00124408
0.00260471
0.00406824
0.0051942
0.00600523
0.00749499
0.00803853
0.00987413
0.0110955
0.0136401
0.0160032
0.0198868
5.28e-06
0.00140043
0.00290184
0.000953098
-0.000859513
0.000292611
0.00049176
9.92871e-05
0.00124827
0.00258592
0.00406888
0.0051436
0.00600987
0.00744842
0.00803514
0.00982923
0.0110941
0.0135647
0.0159521
0.019505
7.85707e-06
0.00139872
0.0028692
0.000955856
-0.000844982
0.000293914
0.000481437
0.000109083
0.00125391
0.00256519
0.0040691
0.00508882
0.00601456
0.00739688
0.00803632
0.00977901
0.0110988
0.0134803
0.0158814
0.0191451
1.09159e-05
0.00139694
0.00283635
0.000960221
-0.000828496
0.000294887
0.00047136
0.000118288
0.00126014
0.00254302
0.00407014
0.00503077
0.00601986
0.00734135
0.00804058
0.00972386
0.0111051
0.0133859
0.0157915
0.0188
1.42957e-05
0.00139511
0.00280381
0.000966171
-0.000810047
0.000295638
0.000461576
0.000127486
0.00126637
0.00251969
0.00407252
0.0049695
0.00602522
0.00728195
0.00804623
0.00966435
0.0111091
0.013284
0.0156814
0.018465
1.78564e-05
0.0013933
0.00277185
0.000973611
-0.000789706
0.0002962
0.000452214
0.000136911
0.00127261
0.00249486
0.00407638
0.00490487
0.00603041
0.00721898
0.00805294
0.00960115
0.0111077
0.0131768
0.0155498
0.018137
2.15045e-05
0.00139154
0.0027405
0.000982358
-0.000767589
0.000296541
0.000443538
0.000146842
0.00127916
0.00246778
0.00408165
0.00483709
0.00603527
0.00715339
0.00806028
0.00953511
0.0110987
0.0130652
0.0153965
0.017813
2.5195e-05
0.0013898
0.00270965
0.000992109
-0.000743878
0.000296611
0.00043592
0.000157589
0.00128632
0.00243779
0.00408815
0.00476656
0.00603947
0.00708639
0.00806699
0.0094672
0.0110795
0.0129494
0.0152221
0.0174903
2.89144e-05
0.001388
0.00267906
0.00100245
-0.000718813
0.000296332
0.000429751
0.000169488
0.00129449
0.00240476
0.00409567
0.00469356
0.00604245
0.007019
0.00807145
0.00939838
0.0110485
0.0128292
0.0150278
0.0171684
3.26559e-05
0.00138606
0.00264851
0.00101294
-0.000692659
0.000295563
0.000425353
0.000182923
0.00130416
0.00236939
0.00410397
0.00461804
0.00604356
0.006952
0.00807216
0.0093294
0.0110039
0.0127031
0.014815
0.0168404
3.64039e-05
0.00138386
0.00261782
0.00102316
-0.000665645
0.000294088
0.0004229
0.00019829
0.00131581
0.00233316
0.00411292
0.00453956
0.00604219
0.0068861
0.00806762
0.00926039
0.0109447
0.0125699
0.0145854
0.0165072
4.01321e-05
0.00138133
0.0025869
0.00103284
-0.000637912
0.000291677
0.00042238
0.00021584
0.00132985
0.00229796
0.00412246
0.00445761
0.00603782
0.00682182
0.00805625
0.00919097
0.0108702
0.0124286
0.0143409
0.0161675
4.38105e-05
0.00137845
0.00255575
0.00104179
-0.000609485
0.000288168
0.000423617
0.000235448
0.00134646
0.00226534
0.00413249
0.00437208
0.00602993
0.00675962
0.00803669
0.00912105
0.0107799
0.0122778
0.0140835
0.0158211
4.74165e-05
0.00137518
0.00252442
0.00104993
-0.000580311
0.000283476
0.00042634
0.000256609
0.00136557
0.00223594
0.00414271
0.0042835
0.0060177
0.00670024
0.00800768
0.00905037
0.0106739
0.012116
0.0138148
0.0154678
5.09415e-05
0.00137151
0.00249298
0.00105726
-0.000550292
0.000277548
0.000430287
0.000278548
0.00138694
0.00220923
0.00415247
0.00419323
0.00599996
0.00664446
0.00796802
0.00897826
0.0105531
0.0119427
0.0135358
0.0151078
5.43924e-05
0.00136743
0.00246151
0.00106378
-0.000519312
0.00027032
0.000435249
0.000300457
0.00141025
0.00218396
0.0041608
0.00410317
0.00597534
0.00659309
0.0079168
0.00890373
0.0104185
0.011757
0.0132477
0.0147414
5.77877e-05
0.0013629
0.00243006
0.00106949
-0.00048726
0.000261711
0.000441087
0.000321647
0.00143519
0.00215882
0.00416652
0.00401546
0.00594238
0.00654678
0.00785349
0.0088251
0.0102708
0.0115583
0.0129517
0.0143698
6.11536e-05
0.00135788
0.00239872
0.0010744
-0.000454048
0.000251644
0.00044774
0.000341648
0.00146138
0.00213291
0.00416843
0.00393225
0.00589962
0.00650537
0.00777835
0.00874062
0.0101111
0.0113458
0.0126484
0.0139942
6.45195e-05
0.00135231
0.00236755
0.00107848
-0.000419599
0.000240055
0.000455153
0.000360221
0.00148842
0.00210616
0.00416521
0.00385527
0.00584573
0.00646795
0.00769235
0.00864812
0.00994056
0.0111199
0.0123384
0.0136156
6.79143e-05
0.00134612
0.00233661
0.00108169
-0.000383865
0.000226903
0.000463261
0.000377298
0.00151582
0.00207918
0.00415572
0.00378549
0.00577998
0.00643345
0.0075968
0.00854538
0.00976001
0.010881
0.0120218
0.0132351
7.13655e-05
0.00133922
0.00230599
0.00108398
-0.000346823
0.000212159
0.000472011
0.000393054
0.00154276
0.00205305
0.00413908
0.00372337
0.00570223
0.00639978
0.00749338
0.00843116
0.00956989
0.0106297
0.0116985
0.0128533
7.48996e-05
0.00133154
0.00227575
0.00108528
-0.000308465
0.000195853
0.000481225
0.000408033
0.00156818
0.0020289
0.00411421
0.00366919
0.00561292
0.00636371
0.00738319
0.00830394
0.00937075
0.0103696
0.0113702
0.0124688
7.85363e-05
0.00132297
0.00224595
0.00108551
-0.000268837
0.000178134
0.000490591
0.000422875
0.00159117
0.00200773
0.00407999
0.00362234
0.00551292
0.00632325
0.00726763
0.00816204
0.00916019
0.0101015
0.0110406
0.0120839
8.22901e-05
0.00131343
0.00221668
0.0010846
-0.000228044
0.000159147
0.000499777
0.000438325
0.00161068
0.00199005
0.00403634
0.00358159
0.00540289
0.00627596
0.00714793
0.0080074
0.00893952
0.00982165
0.0107067
0.0117028
8.61849e-05
0.0013028
0.00218801
0.0010825
-0.000186197
0.000139097
0.000508223
0.000455286
0.00162607
0.00197585
0.00398283
0.00354651
0.00528436
0.00621893
0.00702209
0.00783937
0.00871581
0.00953678
0.0103633
0.0113197
9.02491e-05
0.00129098
0.00215999
0.00107919
-0.000143538
0.00011847
0.000515296
0.000474195
0.00163675
0.00196611
0.00391885
0.00351451
0.00516052
0.00615076
0.0068896
0.00765817
0.00848353
0.00924946
0.0100227
0.0109331
9.45028e-05
0.00127789
0.00213268
0.00107472
-0.000100302
9.76886e-05
0.000520263
0.000496083
0.00164154
0.0019606
0.00384543
0.00348434
0.00503073
0.0060719
0.00674777
0.00746559
0.00824409
0.00895601
0.00968558
0.0105458
9.90008e-05
0.00126338
0.00210616
0.00106913
-5.67485e-05
7.74675e-05
0.000522133
0.000521678
0.00164086
0.00195718
0.00376333
0.00345409
0.0048981
0.00598162
0.00659447
0.00725789
0.00799804
0.00866774
0.00935507
0.0101531
0.000103709
0.00124743
0.00208038
0.00106268
-1.35775e-05
5.87362e-05
0.000520411
0.000550414
0.00163553
0.00195535
0.00367534
0.00341711
0.00476592
0.00587915
0.00643568
0.00703978
0.00774053
0.00837283
0.00900423
0.00976775
0.000108701
0.00122992
0.00205541
0.0010554
2.89872e-05
4.15212e-05
0.000515078
0.000581731
0.00162615
0.00195266
0.00358624
0.00337145
0.00463191
0.00576689
0.00627002
0.00681483
0.00746666
0.00804792
0.00864618
0.00940512
0.000114238
0.00121061
0.00203155
0.00104742
7.05125e-05
2.67255e-05
0.000505484
0.000614246
0.00161469
0.00194568
0.00349614
0.00331707
0.00450226
0.00564084
0.00610025
0.00657704
0.00717462
0.0077259
0.00825224
0.00904409
0.000119968
0.00118972
0.00200797
0.00103984
0.000109508
1.55494e-05
0.000490692
0.000652284
0.00159774
0.00193699
0.00340338
0.0032571
0.00436863
0.00550857
0.0059203
0.0063014
0.00685873
0.00741581
0.00792808
0.00868978
0.000126026
0.00116716
0.00198478
0.00103244
0.0001462
7.43081e-06
0.00047092
0.000696949
0.00157608
0.00192747
0.00330774
0.00319323
0.00422262
0.00536973
0.00571585
0.00601448
0.00654737
0.00709858
0.00764336
0.00835
0.000133111
0.00114228
0.00196297
0.00102516
0.000180733
2.31724e-06
0.000447609
0.000728407
0.00156362
0.00190405
0.0032131
0.00312524
0.00406979
0.00520568
0.00551632
0.0057354
0.00623381
0.00678719
0.00724605
0.00799429
0.00014036
0.00111591
0.00194007
0.00102021
0.000210489
2.08726e-06
0.000419784
0.000821818
0.00154891
0.00187547
0.00311717
0.00305006
0.00391066
0.00502249
0.00530273
0.00544781
0.00590592
0.00647276
0.00693341
0.00765459
0.000147932
0.001088
0.00191619
0.00101703
0.000236205
5.15455e-06
0.000388045
0.000919961
0.00153096
0.00184616
0.00301332
0.00297028
0.00374216
0.00482196
0.00506374
0.0051569
0.00556895
0.00614064
0.00671073
0.00734682
0.000157262
0.00105737
0.00189368
0.00101505
0.000259264
9.37288e-06
0.000357433
0.000910519
0.00153468
0.00179742
0.00290792
0.00288992
0.00355971
0.00461212
0.00484186
0.00487382
0.00522889
0.00579837
0.00629758
0.00701474
0.000166376
0.00102593
0.00186721
0.00101753
0.000276789
1.81782e-05
0.000322999
0.00093808
0.00152918
0.00175173
0.00279911
0.0027961
0.00337582
0.00437765
0.00461005
0.00457273
0.00487428
0.00545807
0.00598196
0.00669681
0.000176117
0.000993046
0.00183887
0.00102286
0.00029003
2.90786e-05
0.000286273
0.000997192
0.00151456
0.00171285
0.00267463
0.00269393
0.0031927
0.00413369
0.00434734
0.00426721
0.00449696
0.0050944
0.00579457
0.00642287
0.000187968
0.000957531
0.00181138
0.00102988
0.000301557
3.63995e-05
0.000260253
0.000979718
0.00151789
0.00165964
0.00254342
0.00258603
0.0030059
0.00390725
0.00411175
0.00396718
0.004099
0.0046597
0.00533827
0.00614337
0.000199113
0.000922153
0.00177671
0.001042
0.000309537
4.29975e-05
0.000237959
0.000968459
0.00151405
0.00160172
0.0024114
0.00246362
0.00282201
0.00368291
0.00388272
0.00363254
0.0036853
0.0041956
0.00489825
0.00588805
0.00021188
0.000885403
0.00173986
0.00105678
0.000314865
4.93015e-05
0.000214751
0.000968227
0.00150339
0.00154307
0.00226425
0.00233879
0.00264692
0.0034465
0.00361498
0.00329731
0.00328012
0.00372975
0.00452237
0.00566294
0.000225775
0.000847337
0.00170069
0.00107404
0.000319818
5.07384e-05
0.00019536
0.000956532
0.00148497
0.00147606
0.00211312
0.00221626
0.0024616
0.00318407
0.00334039
0.00298387
0.00287951
0.00330661
0.00418157
0.00540671
0.000239382
0.000809566
0.00165498
0.00109403
0.000325211
4.71404e-05
0.000178599
0.000939382
0.00145514
0.00140749
0.00196499
0.00207991
0.00226217
0.00291775
0.00308041
0.002668
0.00249021
0.00292296
0.00383228
0.00510626
0.000254835
0.000770977
0.00160628
0.00111423
0.000332553
3.94835e-05
0.000160834
0.00091424
0.00142189
0.00134066
0.00180647
0.00192714
0.00207237
0.00264893
0.00279983
0.00236371
0.00213393
0.00253372
0.00345029
0.00480849
0.000270284
0.000732672
0.00155198
0.00113462
0.000342932
2.55828e-05
0.000142186
0.000886393
0.00138057
0.00126455
0.00164616
0.00177445
0.00187922
0.0023617
0.00251803
0.00208476
0.00178055
0.0021268
0.00307631
0.00452452
0.000286492
0.000694576
0.00149322
0.00115317
0.000355517
8.74938e-06
0.000121803
0.00085082
0.00132866
0.00118837
0.0014915
0.00160852
0.00167311
0.00207719
0.00224022
0.00180382
0.00142508
0.00173372
0.00271971
0.00423755
0.000303622
0.000656536
0.00143188
0.00116901
0.000370875
-1.0803e-05
9.71346e-05
0.000809334
0.0012726
0.00110965
0.00133148
0.00142776
0.00147208
0.00179991
0.00194311
0.00152013
0.00109368
0.00136141
0.0023551
0.0039383
0.000319952
0.00061932
0.00135413
0.00118189
0.000387148
-3.37447e-05
7.08714e-05
0.000764821
0.00120597
0.00101967
0.00117183
0.00124814
0.00127065
0.00151513
0.0016334
0.00124237
0.000783729
0.000995525
0.00198515
0.00363688
0.000338563
0.000582704
0.00128614
0.00119017
0.000402826
-5.70544e-05
4.29052e-05
0.000712025
0.00112972
0.000926346
0.00101621
0.00106176
0.00105933
0.00123129
0.00131596
0.00096466
0.00049136
0.000641751
0.00161699
0.00333387
0.000356698
0.000547248
0.00121469
0.00119388
0.000418105
-8.26486e-05
1.1587e-05
0.000657982
0.00104812
0.000824206
0.000856485
0.00087025
0.000843379
0.000952443
0.00099785
0.0006857
0.000207631
0.000299439
0.00125733
0.0030303
0.000375062
0.000513245
0.00114069
0.00119216
0.000431055
-0.000110208
-2.08616e-05
0.000599154
0.000957827
0.000713234
0.000696161
0.000677097
0.000622589
0.00068154
0.000678129
0.000389992
-7.38204e-05
-2.09643e-05
0.000913866
0.00272944
0.00039345
0.000480936
0.00106453
0.00118426
0.000441739
-0.000139201
-5.72316e-05
0.000535915
0.000863554
0.000596602
0.000532084
0.000481849
0.000395888
0.000411235
0.000355815
8.60094e-05
-0.000344943
-0.000316182
0.000589639
0.00243027
0.000411348
0.000450912
0.000985984
0.00117018
0.000450029
-0.000171804
-9.86647e-05
0.000469734
0.000766524
0.000472686
0.000361625
0.000286737
0.000164433
0.00014041
4.11137e-05
-0.000218931
-0.000613197
-0.000598436
0.000278357
0.00213483
0.000428725
0.000423624
0.00090582
0.00114871
0.000455657
-0.000208528
-0.000147184
0.000399523
0.00066893
0.000345641
0.000186163
8.98895e-05
-7.04428e-05
-0.000130134
-0.000267781
-0.000527662
-0.000884776
-0.000873463
-1.59427e-05
0.00185539
0.000445082
0.000399495
0.00082474
0.00111904
0.000459373
-0.00025053
-0.000207149
0.000325915
0.000573856
0.000218522
4.00842e-06
-0.000110947
-0.000306713
-0.000403157
-0.000570656
-0.000836474
-0.00115963
-0.00113721
-0.000288216
0.00158691
0.000460199
0.000378651
0.000743837
0.00108063
0.000460761
-0.000298522
-0.000280047
0.000248115
0.000481018
9.40161e-05
-0.000183337
-0.000317001
-0.000542337
-0.000676817
-0.000868716
-0.00114434
-0.00143414
-0.0013909
-0.00054883
0.00132575
0.00047371
0.000361243
0.000663329
0.00103334
0.000459053
-0.000352066
-0.000365921
0.000165155
0.000390045
-2.68193e-05
-0.00037339
-0.000529135
-0.000777141
-0.000952908
-0.00116502
-0.00144597
-0.00170558
-0.00164094
-0.000801647
0.00107405
0.000485782
0.000346375
0.000584145
0.000977102
0.000451633
-0.0004069
-0.000461432
7.213e-05
0.00029804
-0.000142589
-0.000563455
-0.000749068
-0.00101231
-0.00122953
-0.00145784
-0.00174026
-0.00197721
-0.00188955
-0.00104654
0.000830063
0.000496251
0.000333668
0.000506221
0.000911055
0.000438183
-0.000458491
-0.000564894
-3.48945e-05
0.000201583
-0.000253281
-0.000750956
-0.000977046
-0.00124869
-0.00150355
-0.00174919
-0.0020313
-0.0022484
-0.00213509
-0.00128496
0.000592031
0.000504432
0.00032313
0.000429084
0.000835165
0.000419142
-0.000505619
-0.000674565
-0.000156612
9.60868e-05
-0.000361886
-0.000931589
-0.00121047
-0.00148816
-0.00177399
-0.00204043
-0.00231932
-0.00251552
-0.00237784
-0.00151933
0.00035904
0.000510168
0.000314319
0.000352751
0.000750431
0.000393794
-0.000548152
-0.000787809
-0.000293282
-2.21375e-05
-0.000470628
-0.0011019
-0.00144579
-0.00173332
-0.00204153
-0.00233044
-0.00260492
-0.00277956
-0.00261811
-0.00174862
0.000131177
0.000513256
0.00030671
0.000277743
0.000657406
0.000360658
-0.00058609
-0.00090173
-0.000444525
-0.00015528
-0.000582824
-0.00126267
-0.00167871
-0.00198424
-0.00230733
-0.00261762
-0.00288945
-0.00304134
-0.00285426
-0.00197276
-9.28768e-05
0.000513394
0.000299804
0.000204714
0.000556776
0.000318298
-0.000620145
-0.00101585
-0.000608415
-0.000304811
-0.000702984
-0.00141545
-0.00190404
-0.00223936
-0.00257323
-0.00290108
-0.00317316
-0.00330211
-0.00308794
-0.00219272
-0.000312514
0.000510263
0.000292939
0.000134532
0.000449596
0.000265511
-0.000651904
-0.00112486
-0.000782091
-0.000471292
-0.000834063
-0.00156186
-0.00211884
-0.00249625
-0.00284074
-0.00318101
-0.00345615
-0.00356396
-0.00332106
-0.00240862
-0.000527153
0.000503606
0.00028562
6.78691e-05
0.000336739
0.000201205
-0.000683672
-0.00122734
-0.00096232
-0.000653762
-0.000978556
-0.00170712
-0.00232212
-0.00274993
-0.00311026
-0.0034585
-0.00373742
-0.00382695
-0.00355504
-0.00262246
-0.000737804
0.000493248
0.00027722
5.08034e-06
0.000219566
0.000124518
-0.000718056
-0.0013228
-0.00114531
-0.000850276
-0.00113816
-0.00185592
-0.00251497
-0.00299631
-0.00338091
-0.00373499
-0.00401652
-0.00409111
-0.00379149
-0.00283652
-0.000945161
0.000479045
0.000267044
-5.36375e-05
9.95988e-05
3.49443e-05
-0.000756868
-0.00141156
-0.0013278
-0.00105869
-0.00131277
-0.00201151
-0.0027008
-0.00323307
-0.00364985
-0.00401091
-0.00429313
-0.00435612
-0.00403112
-0.00305263
-0.00115129
0.000460972
0.000254442
-0.000108344
-2.18599e-05
-6.71859e-05
-0.000803826
-0.00149468
-0.00150712
-0.00127631
-0.00150203
-0.0021767
-0.00288342
-0.00345919
-0.00391347
-0.00428587
-0.00456805
-0.00462202
-0.00427436
-0.00327277
-0.00135845
0.000439053
0.000238785
-0.000159436
-0.00014339
-0.000180905
-0.000860812
-0.00157374
-0.00168145
-0.00150041
-0.00170463
-0.00235288
-0.00306671
-0.00367607
-0.00416929
-0.00455909
-0.00484191
-0.00488862
-0.00452139
-0.00349788
-0.00156727
0.000413314
0.000219597
-0.000207437
-0.000263584
-0.000306793
-0.000929563
-0.00165085
-0.00184969
-0.00172835
-0.00191842
-0.00254023
-0.00325436
-0.00388703
-0.00441618
-0.00482844
-0.00511426
-0.00515546
-0.00477166
-0.00372712
-0.00177809
0.000383914
0.000196472
-0.000253211
-0.000381308
-0.000440346
-0.00101122
-0.00172868
-0.00201113
-0.0019574
-0.00214145
-0.00273764
-0.00344827
-0.00409593
-0.0046542
-0.00509187
-0.00538476
-0.00542272
-0.00502462
-0.00395998
-0.00199177
0.000351164
0.000169144
-0.000297744
-0.000495855
-0.000580722
-0.00110614
-0.00180986
-0.00216588
-0.00218536
-0.00237173
-0.00294411
-0.00364906
-0.00430575
-0.00488533
-0.00534826
-0.00565196
-0.00568908
-0.00527956
-0.00419661
-0.00220911
0.000315084
0.000137341
-0.000341985
-0.000606599
-0.000726192
-0.00121425
-0.00189652
-0.00231443
-0.00241057
-0.00260759
-0.00315877
-0.00385701
-0.00451887
-0.00511281
-0.00559758
-0.00591426
-0.0059533
-0.00553595
-0.00443685
-0.00242993
0.000276072
0.000101082
-0.000387011
-0.000713478
-0.00087468
-0.00133493
-0.00199089
-0.00245786
-0.00263148
-0.00284739
-0.00337992
-0.00407129
-0.00473694
-0.00533984
-0.00584094
-0.00617107
-0.00621488
-0.00579333
-0.00468057
-0.00265455
0.000234253
6.0444e-05
-0.00042983
-0.00081671
-0.00102455
-0.00146678
-0.00209479
-0.00259782
-0.002847
-0.0030899
-0.00360609
-0.00429072
-0.00496027
-0.00556912
-0.00608104
-0.00642304
-0.006473
-0.00605043
-0.00492685
-0.00288306
0.000189728
1.54712e-05
-0.000479598
-0.000916841
-0.00117428
-0.00160812
-0.00220923
-0.00273639
-0.00305601
-0.00333367
-0.00383689
-0.00451426
-0.00518806
-0.00580227
-0.00632082
-0.00667166
-0.00672757
-0.00630586
-0.00517486
-0.00311598
0.000142785
-3.36709e-05
-0.000532431
-0.00101439
-0.00132257
-0.001757
-0.00233471
-0.00287598
-0.00325797
-0.00357731
-0.00407249
-0.00474088
-0.00541889
-0.00603957
-0.00656287
-0.00691966
-0.0069802
-0.00655992
-0.00542415
-0.00335281
9.34906e-05
-8.67279e-05
-0.000588712
-0.00111003
-0.00146878
-0.00191118
-0.00247064
-0.00301896
-0.00345304
-0.0038191
-0.00431295
-0.00497074
-0.00565171
-0.00627947
-0.00680766
-0.00716902
-0.007233
-0.0068139
-0.00567521
-0.00359392
4.1964e-05
-0.000143271
-0.000648521
-0.0012045
-0.0016124
-0.00206885
-0.00261585
-0.00316755
-0.00364264
-0.00405642
-0.00455781
-0.00520571
-0.00588743
-0.00652137
-0.00705474
-0.00741992
-0.00748669
-0.00706848
-0.00592776
-0.00383912
-1.16047e-05
-0.000202875
-0.000712009
-0.00129832
-0.00175305
-0.00222853
-0.00276851
-0.00332256
-0.00382909
-0.00428697
-0.00480393
-0.00544577
-0.00612769
-0.00676734
-0.00730616
-0.00767449
-0.00774342
-0.00732532
-0.00618228
-0.00408743
-6.72534e-05
-0.000265029
-0.000778836
-0.00139216
-0.00189054
-0.00238885
-0.00292688
-0.00348408
-0.004016
-0.00451155
-0.00504817
-0.00568795
-0.00637039
-0.00701605
-0.00756153
-0.0079338
-0.00800538
-0.00758774
-0.00644271
-0.0043423
-0.000124782
-0.000329333
-0.000848498
-0.00148619
-0.002025
-0.00254888
-0.00308911
-0.00364967
-0.00420498
-0.00473315
-0.00529128
-0.0059328
-0.00661549
-0.00726672
-0.00781911
-0.00819628
-0.00827149
-0.00785589
-0.00671046
-0.00460607
-0.000184148
-0.00039526
-0.000920395
-0.00158023
-0.00215626
-0.00270804
-0.00325531
-0.00381795
-0.00439382
-0.00495077
-0.00553098
-0.00618
-0.00686498
-0.00752212
-0.00808137
-0.00846402
-0.00854281
-0.00812978
-0.00698516
-0.00487876
-0.000244945
-0.000462566
-0.000994254
-0.00167454
-0.00228445
-0.00286447
-0.0034245
-0.00398974
-0.0045839
-0.00516602
-0.00576455
-0.00642368
-0.00711436
-0.00778017
-0.0083488
-0.00873915
-0.0088234
-0.00841368
-0.00727012
-0.00516265
-0.00030701
-0.000530056
-0.00106864
-0.00176775
-0.00240925
-0.00301808
-0.00359562
-0.00416364
-0.00477307
-0.00538151
-0.00599662
-0.00666457
-0.00736196
-0.00803766
-0.00861794
-0.00901871
-0.00911263
-0.00871029
-0.00757098
-0.0054645
-0.000371129
-0.000597819
-0.00114329
-0.0018598
-0.00253026
-0.00316644
-0.00376684
-0.00434133
-0.00495806
-0.00559057
-0.00622405
-0.00690132
-0.00760698
-0.0082948
-0.00888855
-0.00930071
-0.00940503
-0.00901592
-0.00789084
-0.00579439
-0.000435341
-0.000662988
-0.00121741
-0.00195139
-0.00265134
-0.0033126
-0.00393655
-0.00452452
-0.00514463
-0.00579594
-0.00644667
-0.00713012
-0.0078423
-0.00854542
-0.0091577
-0.00958474
-0.00969848
-0.00931683
-0.00820444
-0.00613066
-0.000503522
-0.000721312
-0.00127794
-0.00203592
-0.00276908
-0.00345434
-0.00410225
-0.00470514
-0.00532951
-0.00599841
-0.00667064
-0.00736267
-0.0080813
-0.00879814
-0.00943519
-0.00989039
-0.0100248
-0.00964782
-0.00852696
-0.00644705
-0.000587987
-0.000791973
-0.00133838
-0.0021159
-0.00288379
-0.00359149
-0.00426488
-0.00487879
-0.00549464
-0.00617189
-0.00686847
-0.0075803
-0.0083134
-0.00904199
-0.00970564
-0.0102122
-0.0104032
-0.0100734
-0.0089913
-0.00692318
-0.000610514
-0.000837054
-0.00141569
-0.00219866
-0.00299378
-0.00375365
-0.00445917
-0.00507265
-0.00565422
-0.00629824
-0.00699144
-0.00771103
-0.00845183
-0.00917917
-0.00983221
-0.0103526
-0.010615
-0.0104165
-0.00948566
-0.00756862
-0.000731057
-0.000900498
-0.0014912
-0.00221338
-0.00299629
-0.00386472
-0.00466915
-0.00533763
-0.00594446
-0.0065691
-0.0072773
-0.00799682
-0.00873296
-0.00943494
-0.0100319
-0.0104089
-0.0104919
-0.0101475
-0.00917429
-0.00726073
-0.00067007
-0.00099745
-0.00156167
-0.00235551
-0.00321729
-0.00399665
-0.00465327
-0.0052235
-0.00580385
-0.00646593
-0.00721377
-0.00799333
-0.0088027
-0.00965872
-0.0105748
-0.0114303
-0.0120085
-0.012004
-0.0115077
-0.009728
-0.000490598
-0.00112746
-0.00180067
-0.00260863
-0.00337676
-0.00426156
-0.00506718
-0.00566533
-0.00621358
-0.0069137
-0.0076736
-0.00837768
-0.00882985
-0.00891587
-0.00859167
-0.00794889
-0.00718773
-0.00666621
-0.00640432
-0.00727639
-0.00055231
-0.00114335
-0.00186438
-0.00261677
-0.00326854
-0.00388339
-0.00444446
-0.00509157
-0.00582869
-0.00663733
-0.00755194
-0.0085821
-0.0096745
-0.0108286
-0.0120072
-0.0131155
-0.013971
-0.0143209
-0.0138549
-0.012379
-0.000425463
-0.00121887
-0.00196096
-0.00273505
-0.00339865
-0.00418266
-0.00500127
-0.00586023
-0.00665577
-0.00727631
-0.00789037
-0.00860943
-0.00928805
-0.0097521
-0.00985317
-0.009582
-0.00907063
-0.00862989
-0.0086585
-0.00951425
-0.000456797
-0.00126386
-0.00201872
-0.00272728
-0.00322975
-0.00371096
-0.0040997
-0.00469619
-0.00549928
-0.00654549
-0.00782984
-0.00940486
-0.0112054
-0.0130907
-0.0148461
-0.0162998
-0.0172806
-0.0175964
-0.0170117
-0.0153237
0.0277497
0.00606349
-0.0030671
-0.00357596
-0.00289744
-0.00299685
-0.00372728
-0.00462058
-0.00530489
-0.00560858
-0.00580452
-0.00612692
-0.00649972
-0.00688795
-0.00726735
-0.0075465
-0.0078166
-0.00810968
-0.00835637
-0.00861325
-0.00893903
-0.00924004
-0.00954914
-0.00990377
-0.0102909
-0.010685
-0.0110824
-0.0113192
-0.0115242
-0.0119814
-0.0125182
-0.0129623
-0.0133324
-0.013793
-0.0142837
-0.014819
-0.0153974
-0.0160093
-0.0166743
-0.0172569
-0.0179018
-0.0185208
-0.0192423
-0.0199409
-0.0206692
-0.0215012
-0.0222489
-0.023237
-0.023857
-0.0244243
0.0270573
0.00611141
-0.00302852
-0.00355908
-0.00288698
-0.00298956
-0.00372185
-0.00461644
-0.0053017
-0.005606
-0.00580231
-0.00612508
-0.0064982
-0.0068867
-0.00726631
-0.00754563
-0.00781584
-0.00810902
-0.00835578
-0.00861271
-0.00893852
-0.00923957
-0.00954869
-0.00990334
-0.0102905
-0.0106846
-0.011082
-0.0113189
-0.0115239
-0.0119811
-0.0125179
-0.0129621
-0.0133322
-0.0137928
-0.0142835
-0.0148188
-0.0153972
-0.0160092
-0.0166742
-0.0172567
-0.0179017
-0.0185207
-0.0192422
-0.0199408
-0.0206691
-0.0215012
-0.0222488
-0.0232369
-0.023857
-0.0244242
0.0264436
0.00621508
-0.00296172
-0.00353902
-0.00287626
-0.00298214
-0.00371657
-0.00461257
-0.00529882
-0.00560364
-0.00580026
-0.00612336
-0.0064968
-0.00688555
-0.00726539
-0.00754485
-0.00781515
-0.00810842
-0.00835526
-0.00861221
-0.00893808
-0.00923916
-0.0095483
-0.00990296
-0.0102901
-0.0106843
-0.0110817
-0.0113186
-0.0115236
-0.0119809
-0.0125177
-0.0129618
-0.013332
-0.0137926
-0.0142833
-0.0148186
-0.015397
-0.016009
-0.0166741
-0.0172566
-0.0179016
-0.0185206
-0.0192421
-0.0199407
-0.020669
-0.0215011
-0.0222487
-0.0232369
-0.0238569
-0.0244242
0.025891
0.00635626
-0.00286228
-0.00351153
-0.00286336
-0.00297339
-0.00371043
-0.00460813
-0.00529559
-0.00560104
-0.005798
-0.00612147
-0.00649524
-0.00688428
-0.00726438
-0.00754401
-0.00781442
-0.00810781
-0.00835471
-0.00861172
-0.00893763
-0.00923875
-0.0095479
-0.00990259
-0.0102898
-0.0106839
-0.0110814
-0.0113183
-0.0115233
-0.0119806
-0.0125174
-0.0129616
-0.0133318
-0.0137924
-0.0142831
-0.0148185
-0.0153969
-0.0160089
-0.0166739
-0.0172565
-0.0179015
-0.0185205
-0.019242
-0.0199406
-0.0206689
-0.021501
-0.0222487
-0.0232368
-0.0238569
-0.0244241
0.0253371
0.00651114
-0.00273873
-0.00347705
-0.00284781
-0.00296274
-0.00370284
-0.00460244
-0.00529142
-0.00559778
-0.00579524
-0.00611914
-0.00649328
-0.00688265
-0.00726311
-0.007543
-0.00781357
-0.0081071
-0.0083541
-0.00861117
-0.00893716
-0.00923832
-0.00954749
-0.0099022
-0.0102894
-0.0106836
-0.0110811
-0.0113181
-0.011523
-0.0119803
-0.0125172
-0.0129614
-0.0133316
-0.0137922
-0.0142829
-0.0148183
-0.0153967
-0.0160088
-0.0166738
-0.0172564
-0.0179013
-0.0185204
-0.0192419
-0.0199405
-0.0206688
-0.0215009
-0.0222486
-0.0232368
-0.0238569
-0.024424
0.0247673
0.0066708
-0.00260077
-0.00343888
-0.00283068
-0.00295059
-0.00369388
-0.00459536
-0.005286
-0.00559358
-0.00579179
-0.00611621
-0.00649071
-0.00688048
-0.00726142
-0.00754169
-0.00781251
-0.00810625
-0.00835338
-0.00861056
-0.00893665
-0.00923785
-0.00954705
-0.0099018
-0.0102891
-0.0106832
-0.0110808
-0.0113178
-0.0115226
-0.01198
-0.012517
-0.0129612
-0.0133313
-0.0137919
-0.0142827
-0.0148181
-0.0153966
-0.0160086
-0.0166737
-0.0172563
-0.0179012
-0.0185203
-0.0192418
-0.0199404
-0.0206687
-0.0215009
-0.0222485
-0.0232367
-0.0238569
-0.0244239
0.0241854
0.00683268
-0.00245367
-0.00339942
-0.00281314
-0.00293765
-0.00368407
-0.00458719
-0.00527938
-0.00558832
-0.00578752
-0.00611257
-0.00648742
-0.00687761
-0.00725913
-0.00753996
-0.00781118
-0.00810519
-0.00835253
-0.00860986
-0.00893609
-0.00923734
-0.00954656
-0.00990136
-0.0102887
-0.0106829
-0.0110805
-0.0113174
-0.0115222
-0.0119797
-0.0125167
-0.0129609
-0.0133311
-0.0137917
-0.0142825
-0.0148179
-0.0153964
-0.0160085
-0.0166736
-0.0172561
-0.0179011
-0.0185202
-0.0192417
-0.0199403
-0.0206686
-0.0215008
-0.0222484
-0.0232367
-0.0238569
-0.0244238
0.0235963
0.00699514
-0.0022995
-0.00335961
-0.00279591
-0.00292445
-0.00367389
-0.00457845
-0.00527189
-0.00558207
-0.00578237
-0.00610815
-0.00648337
-0.00687395
-0.00725613
-0.00753769
-0.00780948
-0.00810389
-0.0083515
-0.00860905
-0.00893547
-0.00923678
-0.00954601
-0.00990086
-0.0102883
-0.0106825
-0.0110802
-0.0113171
-0.0115218
-0.0119793
-0.0125165
-0.0129607
-0.0133308
-0.0137914
-0.0142823
-0.0148177
-0.0153962
-0.0160083
-0.0166734
-0.017256
-0.017901
-0.01852
-0.0192416
-0.0199402
-0.0206685
-0.0215007
-0.0222484
-0.0232366
-0.0238569
-0.0244236
0.0230026
0.00715665
-0.00213858
-0.00331953
-0.00277932
-0.00291129
-0.00366362
-0.00456953
-0.00526398
-0.00557509
-0.00577644
-0.006103
-0.00647861
-0.00686957
-0.00725239
-0.0075348
-0.00780735
-0.00810229
-0.00835028
-0.00860813
-0.00893476
-0.00923615
-0.00954537
-0.00990024
-0.0102878
-0.0106822
-0.0110799
-0.0113168
-0.0115214
-0.011979
-0.0125162
-0.0129605
-0.0133305
-0.0137912
-0.014282
-0.0148175
-0.015396
-0.0160081
-0.0166732
-0.0172559
-0.0179008
-0.0185199
-0.0192415
-0.0199401
-0.0206684
-0.0215006
-0.0222483
-0.0232365
-0.023857
-0.0244234
0.022406
0.007316
-0.00197051
-0.00327884
-0.00276349
-0.00289829
-0.00365339
-0.00456059
-0.00525596
-0.0055677
-0.00576989
-0.00609722
-0.00647324
-0.00686461
-0.00724803
-0.0075313
-0.00780476
-0.00810039
-0.00834887
-0.00860709
-0.00893398
-0.00923548
-0.00954468
-0.00989948
-0.0102872
-0.0106817
-0.0110797
-0.0113165
-0.0115209
-0.0119786
-0.012516
-0.0129602
-0.0133302
-0.0137909
-0.0142817
-0.0148172
-0.0153957
-0.0160078
-0.0166731
-0.0172557
-0.0179007
-0.0185198
-0.0192413
-0.01994
-0.0206683
-0.0215004
-0.0222482
-0.0232365
-0.023857
-0.0244232
0.0218079
0.00747231
-0.00179486
-0.00323714
-0.00274849
-0.00288553
-0.00364327
-0.00455171
-0.00524796
-0.00556013
-0.00576292
-0.00609094
-0.00646739
-0.00685922
-0.00724321
-0.00752728
-0.0078017
-0.00809818
-0.0083473
-0.00860596
-0.0089331
-0.00923475
-0.00954395
-0.0098986
-0.0102864
-0.0106812
-0.0110794
-0.0113162
-0.0115205
-0.0119782
-0.0125157
-0.0129599
-0.0133299
-0.0137906
-0.0142814
-0.0148169
-0.0153954
-0.0160076
-0.0166728
-0.0172555