/*--------------------------------*- C++ -*----------------------------------*\
| =========                 |                                                 |
| \\      /  F ield         | OpenFOAM: The Open Source CFD Toolbox           |
|  \\    /   O peration     | Version:  v2012                                 |
|   \\  /    A nd           | Website:  www.openfoam.com                      |
|    \\/     M anipulation  |                                                 |
\*---------------------------------------------------------------------------*/
FoamFile
{
    version     2.0;
    format      ascii;
    class       surfaceScalarField;
    location    "2.9";
    object      phi;
}
// * * * * * * * * * * * * * * * * * * * * * * * * * * * * * * * * * * * * * //

dimensions      [0 3 -1 0 0 0 0];
oriented        oriented;


internalField   nonuniform List<scalar> 
13830
(
9.40558e-07
-2.65638e-07
9.23119e-07
9.00579e-07
9.01667e-07
6.2702e-08
9.05047e-07
-1.21358e-06
9.6993e-07
-1.20438e-06
9.65326e-07
-8.5815e-07
9.25685e-07
-6.50963e-07
9.74577e-07
3.81029e-07
9.7395e-07
5.77788e-07
9.60601e-07
3.44571e-07
9.73447e-07
1.10993e-06
9.42713e-07
1.48093e-07
9.67606e-07
6.738e-07
9.46564e-07
1.46171e-07
9.58059e-07
4.70256e-07
9.39606e-07
8.04131e-08
9.45909e-07
2.42503e-07
9.28207e-07
-2.71114e-08
9.28225e-07
5.77805e-08
-9.21376e-08
9.02155e-07
9.76029e-07
-2.69135e-07
9.61525e-07
9.15083e-07
9.36959e-07
8.72683e-08
9.38365e-07
-1.21499e-06
1.00275e-06
-1.26877e-06
9.98108e-07
-8.53505e-07
9.63108e-07
-6.15964e-07
1.01062e-06
3.33515e-07
1.01133e-06
5.77075e-07
9.96559e-07
3.59346e-07
1.00791e-06
1.09858e-06
9.80856e-07
1.75146e-07
9.98385e-07
6.56271e-07
9.8616e-07
1.58397e-07
9.8697e-07
4.69447e-07
9.81581e-07
8.58022e-08
9.74944e-07
2.4914e-07
9.7358e-07
-2.57472e-08
9.58826e-07
7.25347e-08
-8.76512e-08
9.54339e-07
1.01204e-06
-2.71722e-07
1.0021e-06
9.25022e-07
9.75571e-07
1.13799e-07
9.74352e-07
-1.21377e-06
1.03383e-06
-1.32824e-06
1.03189e-06
-8.51572e-07
1.00114e-06
-5.85211e-07
1.04808e-06
2.86578e-07
1.04937e-06
5.75779e-07
1.037e-06
3.71718e-07
1.04334e-06
1.09224e-06
1.02359e-06
1.949e-07
1.0324e-06
6.47454e-07
1.03021e-06
1.60586e-07
1.02431e-06
4.75352e-07
1.02716e-06
8.29532e-08
1.01768e-06
2.58616e-07
1.02044e-06
-2.85046e-08
1.00664e-06
8.63301e-08
-8.31665e-08
1.00216e-06
1.049e-06
-2.72945e-07
1.04343e-06
9.3059e-07
1.017e-06
1.40232e-07
1.0133e-06
-1.21007e-06
1.0638e-06
-1.37875e-06
1.06678e-06
-8.54548e-07
1.04159e-06
-5.60018e-07
1.08481e-06
2.43353e-07
1.08865e-06
5.71942e-07
1.07889e-06
3.81472e-07
1.08212e-06
1.08902e-06
1.06769e-06
2.09335e-07
1.07174e-06
6.43398e-07
1.07478e-06
1.57545e-07
1.06819e-06
4.81946e-07
1.07291e-06
7.82312e-08
1.06474e-06
2.66782e-07
1.06644e-06
-3.02032e-08
1.05474e-06
9.80371e-08
-7.62992e-08
1.04787e-06
1.08734e-06
-2.72735e-07
1.08537e-06
9.32565e-07
1.06126e-06
1.64346e-07
1.05506e-06
-1.20388e-06
1.09372e-06
-1.4174e-06
1.10248e-06
-8.63313e-07
1.08445e-06
-5.41984e-07
1.121e-06
2.06805e-07
1.12856e-06
5.64378e-07
1.1212e-06
3.88835e-07
1.12347e-06
1.08674e-06
1.11149e-06
2.21313e-07
1.11359e-06
6.41299e-07
1.11878e-06
1.52359e-07
1.11325e-06
4.87479e-07
1.11766e-06
7.38189e-08
1.11077e-06
2.73666e-07
1.11058e-06
-3.00077e-08
1.10023e-06
1.0839e-07
-6.73225e-08
1.09125e-06
1.12747e-06
-2.71358e-07
1.12842e-06
9.3161e-07
1.10839e-06
1.84374e-07
1.09942e-06
-1.19491e-06
1.12517e-06
-1.44314e-06
1.13867e-06
-8.76814e-07
1.12918e-06
-5.325e-07
1.1583e-06
1.77691e-07
1.16873e-06
5.5394e-07
1.16376e-06
3.93804e-07
1.1664e-06
1.08411e-06
1.15539e-06
2.32326e-07
1.15638e-06
6.40308e-07
1.16257e-06
1.46171e-07
1.15807e-06
4.91977e-07
1.1618e-06
7.00843e-08
1.15581e-06
2.79662e-07
1.15385e-06
-2.80505e-08
1.14451e-06
1.17734e-07
-5.68625e-08
1.13405e-06
1.16957e-06
-2.69231e-07
1.17323e-06
9.27949e-07
1.15812e-06
1.99483e-07
1.14629e-06
-1.18307e-06
1.15957e-06
-1.45642e-06
1.17538e-06
-8.92623e-07
1.17483e-06
-5.31949e-07
1.19831e-06
1.54208e-07
1.20969e-06
5.42555e-07
1.20714e-06
3.96355e-07
1.21084e-06
1.08041e-06
1.20058e-06
2.42582e-07
1.2005e-06
6.40393e-07
1.20716e-06
1.39512e-07
1.20351e-06
4.95628e-07
1.20646e-06
6.71275e-08
1.20119e-06
2.84939e-07
1.19756e-06
-2.44252e-08
1.18911e-06
1.26181e-07
-4.53546e-08
1.1776e-06
1.21365e-06
-2.66702e-07
1.22019e-06
9.21417e-07
1.20989e-06
2.09783e-07
1.19566e-06
-1.16884e-06
1.19763e-06
-1.4584e-06
1.2129e-06
-9.07896e-07
1.22048e-06
-5.3953e-07
1.24147e-06
1.33224e-07
1.25249e-06
5.31537e-07
1.25218e-06
3.96665e-07
1.25729e-06
1.0753e-06
1.24801e-06
2.51855e-07
1.24674e-06
6.41669e-07
1.25325e-06
1.32996e-07
1.25036e-06
4.98517e-07
1.25228e-06
6.52131e-08
1.24767e-06
2.89551e-07
1.24231e-06
-1.90715e-08
1.23472e-06
1.33774e-07
-3.30698e-08
1.22243e-06
1.25956e-06
-2.63914e-07
1.26918e-06
9.11803e-07
1.26301e-06
2.15949e-07
1.24742e-06
-1.15325e-06
1.23942e-06
-1.45039e-06
1.25157e-06
-9.20044e-07
1.26568e-06
-5.53645e-07
1.28719e-06
1.11719e-07
1.29785e-06
5.20873e-07
1.2996e-06
3.94917e-07
1.3062e-06
1.06871e-06
1.29798e-06
2.60068e-07
1.29534e-06
6.44312e-07
1.30093e-06
1.2741e-07
1.29873e-06
5.00712e-07
1.29922e-06
6.47204e-08
1.29528e-06
2.9349e-07
1.28815e-06
-1.19387e-08
1.28139e-06
1.40537e-07
-2.02415e-08
1.26856e-06
1.30718e-06
-2.60812e-07
1.31974e-06
8.99236e-07
1.31691e-06
2.18785e-07
1.30124e-06
-1.13759e-06
1.28471e-06
-1.43387e-06
1.29175e-06
-9.27076e-07
1.31035e-06
-5.72253e-07
1.33449e-06
8.75838e-08
1.34575e-06
5.0961e-07
1.34966e-06
3.91009e-07
1.35762e-06
1.06075e-06
1.35022e-06
2.6747e-07
1.34597e-06
6.48555e-07
1.34981e-06
1.23577e-07
1.34825e-06
5.02265e-07
1.34698e-06
6.59972e-08
1.3438e-06
2.96666e-07
1.33498e-06
-3.12146e-09
1.32903e-06
1.46493e-07
-7.12627e-09
1.31591e-06
1.35648e-06
-2.57268e-07
1.37138e-06
8.8433e-07
1.37117e-06
2.18995e-07
1.35659e-06
-1.123e-06
1.33328e-06
-1.41056e-06
1.334e-06
-9.27793e-07
1.35469e-06
-5.92942e-07
1.38237e-06
5.99062e-08
1.39533e-06
4.96649e-07
1.40181e-06
3.84527e-07
1.41094e-06
1.05162e-06
1.40389e-06
2.74516e-07
1.39791e-06
6.54538e-07
1.39933e-06
1.22159e-07
1.39847e-06
5.03117e-07
1.39523e-06
6.92423e-08
1.39301e-06
2.98887e-07
1.38274e-06
7.14888e-09
1.37761e-06
1.51617e-07
5.99687e-09
1.36449e-06
1.40759e-06
-2.53206e-07
1.42388e-06
8.68047e-07
1.4257e-06
2.17173e-07
1.41292e-06
-1.11022e-06
1.38494e-06
-1.38258e-06
1.37914e-06
-9.21997e-07
1.39914e-06
-6.12936e-07
1.42993e-06
2.91194e-08
1.44516e-06
4.81419e-07
1.45466e-06
3.75018e-07
1.46485e-06
1.04144e-06
1.45779e-06
2.81576e-07
1.45026e-06
6.62069e-07
1.44896e-06
1.23462e-07
1.44906e-06
5.03011e-07
1.44389e-06
7.44205e-08
1.44288e-06
2.99889e-07
1.43151e-06
1.85227e-08
1.42727e-06
1.55862e-07
1.88544e-08
1.41441e-06
1.46072e-06
-2.48678e-07
1.4774e-06
8.51365e-07
1.48071e-06
2.13867e-07
1.46987e-06
-1.09939e-06
1.43949e-06
-1.35221e-06
1.42807e-06
-9.10578e-07
1.44449e-06
-6.29352e-07
1.47662e-06
-3.01165e-09
1.49381e-06
4.64226e-07
1.50645e-06
3.62381e-07
1.51776e-06
1.03013e-06
1.51069e-06
2.88643e-07
1.50232e-06
6.70436e-07
1.49845e-06
1.27329e-07
1.49997e-06
5.01495e-07
1.49312e-06
8.12676e-08
1.49361e-06
2.99403e-07
1.48155e-06
3.05857e-08
1.47823e-06
1.59182e-07
3.12173e-08
1.46586e-06
1.51604e-06
-2.43846e-07
1.53241e-06
8.35e-07
1.53666e-06
2.09614e-07
1.52736e-06
-1.09009e-06
1.49666e-06
-1.32151e-06
1.48141e-06
-8.95324e-07
1.49179e-06
-6.39737e-07
1.5226e-06
-3.38134e-08
1.54063e-06
4.46187e-07
1.55589e-06
3.47124e-07
1.56852e-06
1.0175e-06
1.56196e-06
2.95209e-07
1.55395e-06
6.78442e-07
1.54808e-06
1.33204e-07
1.55153e-06
4.98036e-07
1.54341e-06
8.93869e-08
1.54557e-06
2.97246e-07
1.53321e-06
4.29432e-08
1.53081e-06
1.61585e-07
4.29291e-08
1.5191e-06
1.57368e-06
-2.38915e-07
1.5894e-06
8.19277e-07
1.59411e-06
2.04905e-07
1.58564e-06
-1.08161e-06
1.55615e-06
-1.29202e-06
1.53924e-06
-8.78415e-07
1.54215e-06
-6.42642e-07
1.56891e-06
-6.05813e-08
1.58632e-06
4.28779e-07
1.60313e-06
3.30316e-07
1.61728e-06
1.00335e-06
1.61204e-06
3.00452e-07
1.6058e-06
6.8468e-07
1.59862e-06
1.40386e-07
1.60444e-06
4.92212e-07
1.59544e-06
9.83849e-08
1.59926e-06
2.93428e-07
1.58693e-06
5.52756e-08
1.58535e-06
1.63159e-07
5.39159e-08
1.57437e-06
1.63369e-06
-2.34064e-07
1.64879e-06
8.04175e-07
1.65356e-06
2.00137e-07
1.64516e-06
-1.07322e-06
1.61771e-06
-1.26456e-06
1.6011e-06
-8.61808e-07
1.59633e-06
-6.37871e-07
1.61728e-06
-8.15369e-08
1.63285e-06
4.1321e-07
1.64992e-06
3.1325e-07
1.66561e-06
9.87659e-07
1.6624e-06
3.03658e-07
1.65915e-06
6.87929e-07
1.6512e-06
1.48338e-07
1.65952e-06
4.83891e-07
1.64992e-06
1.07981e-07
1.65518e-06
2.88173e-07
1.64306e-06
6.73938e-08
1.64216e-06
1.64062e-07
6.41778e-08
1.6319e-06
1.69608e-06
-2.2939e-07
1.71078e-06
7.89466e-07
1.71536e-06
1.95566e-07
1.70645e-06
-1.06431e-06
1.68122e-06
-1.23933e-06
1.66621e-06
-8.46803e-07
1.65463e-06
-6.26291e-07
1.66944e-06
-9.63439e-08
1.68269e-06
3.99959e-07
1.69893e-06
2.97008e-07
1.71592e-06
9.7067e-07
1.71496e-06
3.04623e-07
1.71543e-06
6.87451e-07
1.70689e-06
1.56884e-07
1.71748e-06
4.73297e-07
1.70742e-06
1.18041e-07
1.7137e-06
2.81888e-07
1.70189e-06
7.92081e-08
1.70146e-06
1.6449e-07
7.37677e-08
1.69187e-06
1.76083e-06
-2.24903e-07
1.77544e-06
7.7486e-07
1.7797e-06
1.91305e-07
1.76994e-06
-1.05455e-06
1.7467e-06
-1.21609e-06
1.73385e-06
-8.33952e-07
1.7169e-06
-6.0934e-07
1.72649e-06
-1.05934e-07
1.73772e-06
3.88733e-07
1.75255e-06
2.82176e-07
1.77044e-06
9.5278e-07
1.77127e-06
3.03795e-07
1.77566e-06
6.83054e-07
1.76636e-06
1.66187e-07
1.77874e-06
4.60922e-07
1.76823e-06
1.28551e-07
1.77505e-06
2.75063e-07
1.76359e-06
9.06745e-08
1.76343e-06
1.64642e-07
8.27497e-08
1.75445e-06
1.82797e-06
-2.20538e-07
1.84273e-06
7.60102e-07
1.84669e-06
1.87341e-07
1.83597e-06
-1.04382e-06
1.81428e-06
-1.19441e-06
1.80357e-06
-8.23244e-07
1.78276e-06
-5.88524e-07
1.78867e-06
-1.11851e-07
1.79862e-06
3.78788e-07
1.81194e-06
2.68851e-07
1.83038e-06
9.34342e-07
1.83206e-06
3.02111e-07
1.84016e-06
6.74957e-07
1.82982e-06
1.76526e-07
1.84335e-06
4.47391e-07
1.83241e-06
1.3949e-07
1.83931e-06
2.68163e-07
1.82823e-06
1.01761e-07
1.8282e-06
1.64671e-07
9.11849e-08
1.81976e-06
1.89754e-06
-2.16182e-07
1.91264e-06
7.45009e-07
1.91641e-06
1.83567e-07
1.90474e-06
-1.03215e-06
1.88408e-06
-1.17374e-06
1.87522e-06
-8.14389e-07
1.85183e-06
-5.65134e-07
1.85555e-06
-1.15569e-07
1.86496e-06
3.69376e-07
1.87695e-06
2.56868e-07
1.8958e-06
9.15485e-07
1.89724e-06
3.0067e-07
1.90862e-06
6.63577e-07
1.89707e-06
1.88079e-07
1.91118e-06
4.3328e-07
1.8999e-06
1.5077e-07
1.90651e-06
2.61553e-07
1.89586e-06
1.12417e-07
1.89585e-06
1.64674e-07
9.91101e-08
1.88793e-06
1.96962e-06
-2.117e-07
1.98516e-06
7.29476e-07
1.98891e-06
1.79816e-07
1.9764e-06
-1.01965e-06
1.95623e-06
-1.15357e-06
1.94886e-06
-8.07018e-07
1.92393e-06
-5.40197e-07
1.92646e-06
-1.18103e-07
1.93581e-06
3.60022e-07
1.94661e-06
2.46074e-07
1.96604e-06
8.96047e-07
1.96629e-06
3.00428e-07
1.98052e-06
6.49341e-07
1.96778e-06
2.00823e-07
1.98201e-06
4.19045e-07
1.9706e-06
1.62185e-07
1.97667e-06
2.55476e-07
1.96651e-06
1.22583e-07
1.96649e-06
1.64689e-07
1.06541e-07
1.95906e-06
2.04431e-06
-2.06962e-07
2.06032e-06
7.13465e-07
2.06424e-06
1.759e-07
2.05106e-06
-1.00647e-06
2.03088e-06
-1.1334e-06
2.02463e-06
-8.0077e-07
1.99898e-06
-5.14544e-07
2.00084e-06
-1.19963e-07
2.01029e-06
3.50576e-07
2.01986e-06
2.36503e-07
2.04026e-06
8.75651e-07
2.03869e-06
3.01999e-07
2.05536e-06
6.3267e-07
2.04166e-06
2.14523e-07
2.05571e-06
4.0499e-07
2.04441e-06
1.73485e-07
2.04984e-06
2.5005e-07
2.04023e-06
1.32188e-07
2.0402e-06
1.64719e-07
1.13471e-07
2.03327e-06
2.12173e-06
-2.01857e-07
2.1382e-06
6.97003e-07
2.14245e-06
1.71649e-07
2.12879e-06
-9.92815e-07
2.10817e-06
-1.11277e-06
2.10271e-06
-7.95308e-07
2.07706e-06
-4.88895e-07
2.07839e-06
-1.21292e-07
2.08789e-06
3.4107e-07
2.09599e-06
2.28407e-07
2.11778e-06
8.53854e-07
2.11417e-06
3.05609e-07
2.13283e-06
6.14009e-07
2.11857e-06
2.28787e-07
2.13222e-06
3.91341e-07
2.12132e-06
1.8438e-07
2.12607e-06
2.45308e-07
2.11708e-06
1.41177e-07
2.11705e-06
1.64743e-07
1.19875e-07
2.11065e-06
2.20204e-06
-1.96313e-07
2.21888e-06
6.80162e-07
2.22358e-06
1.66947e-07
2.20967e-06
-9.78908e-07
2.18826e-06
-1.09136e-06
2.18325e-06
-7.90299e-07
2.15824e-06
-4.63883e-07
2.15896e-06
-1.22014e-07
2.16848e-06
3.3155e-07
2.17473e-06
2.22161e-07
2.19825e-06
8.30333e-07
2.19269e-06
3.11174e-07
2.21287e-06
5.93826e-07
2.1985e-06
2.43154e-07
2.21156e-06
3.78286e-07
2.20133e-06
1.94603e-07
2.20543e-06
2.41212e-07
2.19708e-06
1.49525e-07
2.19711e-06
1.64719e-07
1.25724e-07
2.19126e-06
2.28538e-06
-1.90301e-07
2.30249e-06
6.6305e-07
2.30768e-06
1.61762e-07
2.29376e-06
-9.64986e-07
2.27135e-06
-1.06895e-06
2.26646e-06
-7.85416e-07
2.24263e-06
-4.40048e-07
2.24255e-06
-1.21932e-07
2.25207e-06
3.22027e-07
2.25619e-06
2.18036e-07
2.28155e-06
8.04973e-07
2.2743e-06
3.18431e-07
2.29554e-06
5.72587e-07
2.28149e-06
2.57199e-07
2.29383e-06
3.65948e-07
2.28445e-06
2.03986e-07
2.288e-06
2.3766e-07
2.2803e-06
1.57224e-07
2.28043e-06
1.64593e-07
1.30987e-07
2.27516e-06
2.37192e-06
-1.8384e-07
2.3892e-06
6.45772e-07
2.3948e-06
1.56164e-07
2.38108e-06
-9.51265e-07
2.35762e-06
-1.0455e-06
2.35254e-06
-7.80329e-07
2.33032e-06
-4.17832e-07
2.32915e-06
-1.20758e-07
2.3387e-06
3.12473e-07
2.34063e-06
2.16108e-07
2.36774e-06
7.77865e-07
2.35917e-06
3.26996e-07
2.38099e-06
5.50772e-07
2.36766e-06
2.70524e-07
2.37918e-06
3.54427e-07
2.37071e-06
2.12458e-07
2.37378e-06
2.34584e-07
2.36679e-06
1.6422e-07
2.36709e-06
1.64292e-07
1.35651e-07
2.36242e-06
2.46182e-06
-1.76986e-07
2.47919e-06
6.28401e-07
2.48504e-06
1.50319e-07
2.47168e-06
-9.3791e-07
2.44728e-06
-1.02109e-06
2.44166e-06
-7.74708e-07
2.4214e-06
-3.97571e-07
2.4188e-06
-1.18162e-07
2.42853e-06
3.02746e-07
2.42829e-06
2.16351e-07
2.4569e-06
7.49253e-07
2.44749e-06
3.3641e-07
2.46942e-06
5.28841e-07
2.45712e-06
2.82826e-07
2.46779e-06
3.43754e-07
2.46019e-06
2.20055e-07
2.46246e-06
2.32322e-07
2.45672e-06
1.69953e-07
2.45716e-06
1.63856e-07
1.39702e-07
2.45311e-06
2.55523e-06
-1.69817e-07
2.57268e-06
6.10957e-07
2.57853e-06
1.44463e-07
2.56562e-06
-9.24996e-07
2.5405e-06
-9.95974e-07
2.534e-06
-7.68211e-07
2.51595e-06
-3.79516e-07
2.51166e-06
-1.13872e-07
2.52172e-06
2.92683e-07
2.51945e-06
2.18627e-07
2.54917e-06
7.19531e-07
2.53947e-06
3.46113e-07
2.56105e-06
5.07253e-07
2.55006e-06
2.93816e-07
2.55983e-06
3.33987e-07
2.55294e-06
2.26941e-07
2.55829e-06
2.26973e-07
2.55175e-06
1.7649e-07
2.55079e-06
1.64823e-07
1.43143e-07
2.54735e-06
2.65228e-06
-1.62421e-07
2.66985e-06
5.93393e-07
2.67546e-06
1.38853e-07
2.66295e-06
-9.12492e-07
2.63744e-06
-9.70459e-07
2.62972e-06
-7.60496e-07
2.61405e-06
-3.63842e-07
2.60791e-06
-1.07732e-07
2.61841e-06
2.82185e-07
2.6144e-06
2.22633e-07
2.64467e-06
6.89261e-07
2.63538e-06
3.55404e-07
2.65607e-06
4.86565e-07
2.64675e-06
3.03133e-07
2.65569e-06
3.25048e-07
2.6485e-06
2.34127e-07
2.64987e-06
2.25604e-07
2.64596e-06
1.80402e-07
2.64809e-06
1.62697e-07
1.45997e-07
2.64523e-06
2.75311e-06
-1.54879e-07
2.7709e-06
5.75605e-07
2.77602e-06
1.3373e-07
2.76378e-06
-9.00248e-07
2.73822e-06
-9.44905e-07
2.72896e-06
-7.51234e-07
2.71573e-06
-3.5061e-07
2.70775e-06
-9.97518e-08
2.7187e-06
2.71231e-07
2.71344e-06
2.27899e-07
2.74353e-06
6.59166e-07
2.73558e-06
3.63354e-07
2.75459e-06
4.67554e-07
2.7477e-06
3.10023e-07
2.75495e-06
3.17802e-07
2.74832e-06
2.40761e-07
2.74854e-06
2.25378e-07
2.74451e-06
1.84439e-07
2.74929e-06
1.57915e-07
1.48543e-07
2.74674e-06
2.85784e-06
-1.4726e-07
2.87599e-06
5.57449e-07
2.88046e-06
1.29265e-07
2.86821e-06
-8.87999e-07
2.84298e-06
-9.19677e-07
2.83187e-06
-7.40117e-07
2.82105e-06
-3.39793e-07
2.81135e-06
-9.00548e-08
2.82275e-06
2.59834e-07
2.81677e-06
2.33876e-07
2.846e-06
6.29936e-07
2.84025e-06
3.69106e-07
2.85689e-06
4.50911e-07
2.85329e-06
3.13626e-07
2.85937e-06
3.11722e-07
2.85957e-06
2.40565e-07
2.86691e-06
2.18038e-07
2.86482e-06
1.86522e-07
2.85507e-06
1.67666e-07
1.51512e-07
2.8521e-06
2.96659e-06
-1.39609e-07
2.98527e-06
5.3877e-07
2.989e-06
1.25539e-07
2.97639e-06
-8.75395e-07
2.95182e-06
-8.95099e-07
2.93861e-06
-7.26914e-07
2.93007e-06
-3.3125e-07
2.91891e-06
-7.88945e-08
2.93067e-06
2.48071e-07
2.92452e-06
2.40027e-07
2.95251e-06
6.01942e-07
2.94928e-06
3.72346e-07
2.96356e-06
4.36629e-07
2.96318e-06
3.14006e-07
2.96999e-06
3.04906e-07
2.96838e-06
2.42175e-07
2.96184e-06
2.24582e-07
2.9558e-06
1.92558e-07
2.96344e-06
1.60028e-07
1.53309e-07
2.96164e-06
3.07951e-06
-1.31955e-07
3.09884e-06
5.19434e-07
3.10186e-06
1.22522e-07
3.08849e-06
-8.62029e-07
3.06485e-06
-8.7146e-07
3.04938e-06
-7.11437e-07
3.04293e-06
-3.24802e-07
3.03059e-06
-6.65598e-08
3.0427e-06
2.3597e-07
3.03672e-06
2.45999e-07
3.06348e-06
5.75181e-07
3.0622e-06
3.73628e-07
3.07571e-06
4.23123e-07
3.07607e-06
3.1364e-07
3.08238e-06
2.98598e-07
3.08725e-06
2.37304e-07
3.09301e-06
2.18822e-07
3.09057e-06
1.95002e-07
3.07741e-06
1.73186e-07
1.55551e-07
3.07517e-06
3.19672e-06
-1.24313e-07
3.21679e-06
4.99365e-07
3.21925e-06
1.20061e-07
3.20468e-06
-8.47456e-07
3.18226e-06
-8.49047e-07
3.16433e-06
-6.93501e-07
3.15984e-06
-3.20312e-07
3.14661e-06
-5.33332e-08
3.15897e-06
2.23608e-07
3.15343e-06
2.5154e-07
3.17947e-06
5.49144e-07
3.1782e-06
3.74899e-07
3.19379e-06
4.07534e-07
3.19244e-06
3.14985e-07
3.20001e-06
2.91026e-07
3.18861e-06
2.48713e-07
3.18783e-06
2.19599e-07
3.18614e-06
1.96693e-07
3.19335e-06
1.65969e-07
1.55524e-07
3.19338e-06
3.31838e-06
-1.16685e-07
3.3392e-06
4.78545e-07
3.34131e-06
1.17954e-07
3.32518e-06
-8.31328e-07
3.30408e-06
-8.27947e-07
3.28384e-06
-6.73253e-07
3.28081e-06
-3.17286e-07
3.26742e-06
-3.99425e-08
3.27937e-06
2.11652e-07
3.27551e-06
2.55405e-07
3.2996e-06
5.25056e-07
3.30026e-06
3.74234e-07
3.31462e-06
3.93176e-07
3.30774e-06
3.21869e-07
3.31053e-06
2.88232e-07
3.30884e-06
2.50403e-07
3.30823e-06
2.20212e-07
3.3065e-06
1.98422e-07
3.31511e-06
1.57353e-07
1.55076e-07
3.31556e-06
3.44467e-06
-1.09075e-07
3.46618e-06
4.57036e-07
3.46821e-06
1.15927e-07
3.45021e-06
-8.13328e-07
3.43045e-06
-8.08184e-07
3.40814e-06
-6.50951e-07
3.40607e-06
-3.15216e-07
3.39322e-06
-2.7087e-08
3.4041e-06
2.00775e-07
3.40338e-06
2.5612e-07
3.42391e-06
5.04526e-07
3.42817e-06
3.6998e-07
3.43861e-06
3.82736e-07
3.44621e-06
3.14264e-07
3.45314e-06
2.813e-07
3.45978e-06
2.43767e-07
3.46436e-06
2.15628e-07
3.46141e-06
2.0137e-07
3.44336e-06
1.75409e-07
1.56762e-07
3.44167e-06
3.57576e-06
-1.01492e-07
3.59782e-06
4.3498e-07
3.60012e-06
1.13625e-07
3.57984e-06
-7.9305e-07
3.56168e-06
-7.9002e-07
3.53725e-06
-6.26526e-07
3.53623e-06
-3.14192e-07
3.5236e-06
-1.44554e-08
3.53416e-06
1.90209e-07
3.53411e-06
2.56177e-07
3.55574e-06
4.82888e-07
3.55806e-06
3.67667e-07
3.57237e-06
3.68419e-07
3.57041e-06
3.16231e-07
3.56854e-06
2.83171e-07
3.56328e-06
2.49028e-07
3.56332e-06
2.15584e-07
3.56363e-06
2.01061e-07
3.57222e-06
1.66817e-07
1.55379e-07
3.5736e-06
3.71182e-06
-9.39253e-08
3.7343e-06
4.12498e-07
3.73708e-06
1.10849e-07
3.71456e-06
-7.70538e-07
3.69762e-06
-7.73076e-07
3.6718e-06
-6.00709e-07
3.67091e-06
-3.13298e-07
3.65968e-06
-3.22471e-09
3.66856e-06
1.81323e-07
3.67092e-06
2.53818e-07
3.6912e-06
4.6261e-07
3.69308e-06
3.6579e-07
3.70818e-06
3.53319e-07
3.69888e-06
3.25534e-07
3.70134e-06
2.80703e-07
3.69823e-06
2.52138e-07
3.69793e-06
2.15888e-07
3.69828e-06
2.00707e-07
3.70831e-06
1.56788e-07
1.54033e-07
3.70966e-06
3.85304e-06
-8.63787e-08
3.87579e-06
3.89755e-07
3.87921e-06
1.07428e-07
3.85462e-06
-7.4595e-07
3.83847e-06
-7.56924e-07
3.81202e-06
-5.74259e-07
3.81031e-06
-3.1159e-07
3.80189e-06
5.19354e-09
3.80688e-06
1.76334e-07
3.81382e-06
2.46882e-07
3.8282e-06
4.48231e-07
3.83804e-06
3.5594e-07
3.84035e-06
3.51014e-07
3.85921e-06
3.06675e-07
3.86611e-06
2.73799e-07
3.87429e-06
2.43965e-07
3.8788e-06
2.11374e-07
3.87525e-06
2.04261e-07
3.8527e-06
1.79331e-07
1.57018e-07
3.84972e-06
3.99966e-06
-7.8882e-08
4.02241e-06
3.66999e-07
4.02679e-06
1.03047e-07
3.99994e-06
-7.19091e-07
3.98494e-06
-7.41924e-07
3.95734e-06
-5.46664e-07
3.95587e-06
-3.10124e-07
3.94749e-06
1.35822e-08
3.95464e-06
1.69184e-07
3.9557e-06
2.45821e-07
3.97831e-06
4.25617e-07
3.97766e-06
3.56593e-07
3.99647e-06
3.32199e-07
3.98487e-06
3.18275e-07
3.98546e-06
2.73209e-07
3.9831e-06
2.46328e-07
3.98384e-06
2.10636e-07
3.98596e-06
2.02134e-07
3.99566e-06
1.69632e-07
1.55782e-07
3.9969e-06
4.15181e-06
-7.14091e-08
4.17451e-06
3.44294e-07
4.17975e-06
9.78152e-08
4.15119e-06
-6.9053e-07
4.13644e-06
-7.27184e-07
4.10909e-06
-5.1931e-07
4.10596e-06
-3.0699e-07
4.10079e-06
1.8752e-08
4.10498e-06
1.64994e-07
4.10656e-06
2.44234e-07
4.12947e-06
4.02714e-07
4.12637e-06
3.59692e-07
4.13526e-06
3.23311e-07
4.13435e-06
3.19184e-07
4.13619e-06
2.71369e-07
4.13424e-06
2.48275e-07
4.13448e-06
2.10394e-07
4.13669e-06
1.99925e-07
4.14777e-06
1.58557e-07
1.54991e-07
4.14856e-06
4.30976e-06
-6.39864e-08
4.33225e-06
3.21805e-07
4.33835e-06
9.17182e-08
4.3085e-06
-6.60675e-07
4.29328e-06
-7.11966e-07
4.26756e-06
-4.93596e-07
4.25987e-06
-2.99295e-07
4.26239e-06
1.62354e-08
4.25727e-06
1.70112e-07
4.26997e-06
2.3153e-07
4.27654e-06
3.96149e-07
4.28992e-06
3.46313e-07
4.29135e-06
3.2188e-07
4.31534e-06
2.9519e-07
4.32538e-06
2.61329e-07
4.33814e-06
2.35515e-07
4.34137e-06
2.07169e-07
4.33716e-06
2.04128e-07
4.31045e-06
1.85267e-07
1.60907e-07
4.30454e-06
4.47377e-06
-5.66734e-08
4.49579e-06
2.9979e-07
4.50298e-06
8.45255e-08
4.47158e-06
-6.29273e-07
4.45675e-06
-6.9714e-07
4.43092e-06
-4.67764e-07
4.42323e-06
-2.91608e-07
4.42404e-06
1.54276e-08
4.42223e-06
1.7192e-07
4.42778e-06
2.25978e-07
4.4402e-06
3.83733e-07
4.44454e-06
3.41973e-07
4.45292e-06
3.13503e-07
4.4538e-06
2.94308e-07
4.45484e-06
2.60286e-07
4.45577e-06
2.34586e-07
4.45368e-06
2.09257e-07
4.45813e-06
1.99683e-07
4.46868e-06
1.7471e-07
1.60681e-07
4.46891e-06
4.64396e-06
-4.94263e-08
4.66555e-06
2.78201e-07
4.67351e-06
7.65685e-08
4.64132e-06
-5.97087e-07
4.6259e-06
-6.81717e-07
4.60114e-06
-4.43003e-07
4.59255e-06
-2.83019e-07
4.5914e-06
1.65784e-08
4.59435e-06
1.68969e-07
4.593e-06
2.2733e-07
4.6105e-06
3.66227e-07
4.61235e-06
3.4013e-07
4.62082e-06
3.0503e-07
4.62175e-06
2.93378e-07
4.62486e-06
2.57173e-07
4.62474e-06
2.34705e-07
4.62847e-06
2.05529e-07
4.63163e-06
1.96526e-07
4.63667e-06
1.6967e-07
1.57924e-07
4.63943e-06
4.82067e-06
-4.23042e-08
4.84166e-06
2.57205e-07
4.85035e-06
6.78798e-08
4.81783e-06
-5.64564e-07
4.80102e-06
-6.64905e-07
4.77863e-06
-4.20617e-07
4.76703e-06
-2.71421e-07
4.76741e-06
1.61951e-08
4.76834e-06
1.68047e-07
4.76904e-06
2.26623e-07
4.7836e-06
3.51666e-07
4.78768e-06
3.36056e-07
4.79407e-06
2.98636e-07
4.79789e-06
2.89561e-07
4.80022e-06
2.54843e-07
4.80226e-06
2.32668e-07
4.8074e-06
2.00389e-07
4.81243e-06
1.9149e-07
4.8124e-06
1.69705e-07
1.54886e-07
4.81543e-06
5.00412e-06
-3.53549e-08
5.02438e-06
2.3695e-07
5.03377e-06
5.84811e-08
5.00111e-06
-5.31902e-07
4.98285e-06
-6.46647e-07
4.96276e-06
-4.0052e-07
4.94903e-06
-2.57697e-07
4.94959e-06
1.56402e-08
4.94959e-06
1.68046e-07
4.95136e-06
2.24852e-07
4.96448e-06
3.38551e-07
4.9696e-06
3.30931e-07
4.97516e-06
2.93078e-07
4.98063e-06
2.84088e-07
4.98263e-06
2.52845e-07
4.98551e-06
2.29791e-07
4.98726e-06
1.98633e-07
4.98852e-06
1.90238e-07
4.99491e-06
1.63308e-07
1.51769e-07
4.99803e-06
5.19454e-06
-2.85822e-08
5.21407e-06
2.17422e-07
5.2239e-06
4.86462e-08
5.19173e-06
-4.99733e-07
5.17126e-06
-6.26168e-07
5.15391e-06
-3.83176e-07
5.13806e-06
-2.4185e-07
5.13894e-06
1.47606e-08
5.13821e-06
1.6878e-07
5.14038e-06
2.22683e-07
5.15228e-06
3.26653e-07
5.1589e-06
3.24311e-07
5.16365e-06
2.88322e-07
5.16971e-06
2.78031e-07
5.172e-06
2.50552e-07
5.1757e-06
2.26093e-07
5.17953e-06
1.94799e-07
5.18537e-06
1.84401e-07
5.18512e-06
1.63558e-07
1.49199e-07
5.18769e-06
5.39224e-06
-2.20482e-08
5.41092e-06
1.98747e-07
5.42114e-06
3.84232e-08
5.38977e-06
-4.68362e-07
5.36692e-06
-6.03322e-07
5.35151e-06
-3.6776e-07
5.33502e-06
-2.25359e-07
5.33507e-06
1.47057e-08
5.33448e-06
1.69374e-07
5.33647e-06
2.20688e-07
5.34793e-06
3.152e-07
5.35508e-06
3.17158e-07
5.35961e-06
2.83787e-07
5.36598e-06
2.71667e-07
5.3693e-06
2.47235e-07
5.37183e-06
2.2356e-07
5.3737e-06
1.92924e-07
5.37602e-06
1.82083e-07
5.38172e-06
1.57864e-07
1.46224e-07
5.38469e-06
5.59746e-06
-1.57725e-08
5.61527e-06
1.80938e-07
5.62571e-06
2.79848e-08
5.59565e-06
-4.38302e-07
5.57037e-06
-5.78041e-07
5.55605e-06
-3.53445e-07
5.53941e-06
-2.08719e-07
5.53873e-06
1.53902e-08
5.53864e-06
1.69467e-07
5.54042e-06
2.18909e-07
5.55106e-06
3.04559e-07
5.55874e-06
3.09478e-07
5.56342e-06
2.79101e-07
5.56969e-06
2.65394e-07
5.57358e-06
2.43354e-07
5.57594e-06
2.21193e-07
5.57929e-06
1.89576e-07
5.58291e-06
1.78467e-07
5.58626e-06
1.54511e-07
1.4328e-07
5.5892e-06
5.81051e-06
-9.7995e-09
5.8274e-06
1.64046e-07
5.83795e-06
1.74294e-08
5.80965e-06
-4.1e-07
5.78211e-06
-5.50497e-07
5.76783e-06
-3.39165e-07
5.75145e-06
-1.92337e-07
5.75043e-06
1.64096e-08
5.75061e-06
1.69287e-07
5.75228e-06
2.17238e-07
5.76214e-06
2.94696e-07
5.77032e-06
3.01305e-07
5.77506e-06
2.74356e-07
5.78116e-06
2.59299e-07
5.78561e-06
2.38901e-07
5.7885e-06
2.18298e-07
5.79299e-06
1.85085e-07
5.79807e-06
1.73388e-07
5.79869e-06
1.53895e-07
1.4059e-07
5.80138e-06
6.03168e-06
-4.18094e-09
6.04755e-06
1.48173e-07
6.05823e-06
6.74828e-09
6.03144e-06
-3.83209e-07
6.0026e-06
-5.21652e-07
5.98702e-06
-3.23585e-07
5.97174e-06
-1.77064e-07
5.96999e-06
1.8164e-08
5.97079e-06
1.6849e-07
5.97237e-06
2.15653e-07
5.98174e-06
2.85325e-07
5.98979e-06
2.93255e-07
5.99492e-06
2.69231e-07
6.00068e-06
2.53533e-07
6.00602e-06
2.33562e-07
6.00878e-06
2.15536e-07
6.0109e-06
1.82967e-07
6.01305e-06
1.71244e-07
6.01885e-06
1.48091e-07
1.37557e-07
6.02188e-06
6.26127e-06
1.05088e-09
6.27608e-06
1.33362e-07
6.28681e-06
-3.98243e-09
6.26133e-06
-3.57732e-07
6.23166e-06
-4.91979e-07
6.21507e-06
-3.06996e-07
6.20016e-06
-1.62148e-07
6.19807e-06
2.02541e-08
6.19946e-06
1.67097e-07
6.2011e-06
2.14012e-07
6.20973e-06
2.76695e-07
6.21765e-06
2.85334e-07
6.2234e-06
2.63483e-07
6.22868e-06
2.48248e-07
6.23444e-06
2.27809e-07
6.23768e-06
2.12289e-07
6.24176e-06
1.78893e-07
6.24694e-06
1.66058e-07
6.24774e-06
1.47291e-07
1.34584e-07
6.25072e-06
6.49962e-06
5.83819e-09
6.5132e-06
1.1978e-07
6.52408e-06
-1.486e-08
6.49967e-06
-3.33329e-07
6.4697e-06
-4.62006e-07
6.45217e-06
-2.89464e-07
6.43765e-06
-1.47627e-07
6.43503e-06
2.28733e-08
6.43669e-06
1.65433e-07
6.43846e-06
2.12239e-07
6.44672e-06
2.68436e-07
6.45446e-06
2.77598e-07
6.46055e-06
2.57395e-07
6.46555e-06
2.43246e-07
6.47178e-06
2.2158e-07
6.47517e-06
2.08895e-07
6.47697e-06
1.77091e-07
6.47945e-06
1.63578e-07
6.48497e-06
1.41768e-07
1.31214e-07
6.48834e-06
6.74703e-06
1.01438e-08
6.75926e-06
1.07553e-07
6.77033e-06
-2.59303e-08
6.74689e-06
-3.09893e-07
6.71696e-06
-4.32071e-07
6.69903e-06
-2.71529e-07
6.68458e-06
-1.33176e-07
6.68105e-06
2.63948e-08
6.68297e-06
1.63518e-07
6.68511e-06
2.10094e-07
6.69298e-06
2.60575e-07
6.70029e-06
2.70286e-07
6.70687e-06
2.50817e-07
6.71164e-06
2.38474e-07
6.71764e-06
2.1558e-07
6.72165e-06
2.04885e-07
6.7253e-06
1.73438e-07
6.73032e-06
1.58556e-07
6.73156e-06
1.40529e-07
1.27822e-07
6.73495e-06
7.00387e-06
1.39235e-08
7.01456e-06
9.68594e-08
7.02592e-06
-3.72825e-08
7.00353e-06
-2.87504e-07
6.97381e-06
-4.02357e-07
6.9558e-06
-2.53521e-07
6.9414e-06
-1.18769e-07
6.93682e-06
3.09683e-08
6.93864e-06
1.61703e-07
6.94103e-06
2.07703e-07
6.94876e-06
2.52844e-07
6.95569e-06
2.63361e-07
6.96248e-06
2.44025e-07
6.96718e-06
2.33766e-07
6.97316e-06
2.09609e-07
6.97778e-06
2.00257e-07
6.97996e-06
1.7126e-07
6.98258e-06
1.5594e-07
6.98731e-06
1.358e-07
1.242e-07
6.99093e-06
7.27047e-06
1.71424e-08
7.27955e-06
8.77841e-08
7.29119e-06
-4.89251e-08
7.26988e-06
-2.66198e-07
7.24081e-06
-3.7328e-07
7.22294e-06
-2.35656e-07
7.20847e-06
-1.04301e-07
7.20251e-06
3.69278e-08
7.20406e-06
1.60156e-07
7.20678e-06
2.04987e-07
7.2145e-06
2.45116e-07
7.22095e-06
2.56912e-07
7.22792e-06
2.37055e-07
7.23285e-06
2.28845e-07
7.23831e-06
2.04149e-07
7.24335e-06
1.95216e-07
7.24641e-06
1.682e-07
7.25085e-06
1.51499e-07
7.25294e-06
1.3371e-07
1.20624e-07
7.25651e-06
7.54719e-06
1.97803e-08
7.55465e-06
8.03283e-08
7.56643e-06
-6.07089e-08
7.54643e-06
-2.46194e-07
7.51778e-06
-3.44635e-07
7.50079e-06
-2.18658e-07
7.48601e-06
-8.95238e-08
7.47871e-06
4.42246e-08
7.47978e-06
1.59093e-07
7.48262e-06
2.0214e-07
7.49042e-06
2.37317e-07
7.49659e-06
2.50743e-07
7.50339e-06
2.30253e-07
7.50861e-06
2.23629e-07
7.51365e-06
1.99105e-07
7.51911e-06
1.89762e-07
7.52194e-06
1.65373e-07
7.52518e-06
1.4826e-07
7.52878e-06
1.30109e-07
1.17067e-07
7.53233e-06
7.8344e-06
2.18304e-08
7.8403e-06
7.44319e-08
7.85201e-06
-7.24146e-08
7.83342e-06
-2.27607e-07
7.80508e-06
-3.16294e-07
7.78949e-06
-2.03065e-07
7.7743e-06
-7.43348e-08
7.76564e-06
5.2882e-08
7.76622e-06
1.58513e-07
7.76901e-06
1.99345e-07
7.77692e-06
2.29411e-07
7.78293e-06
2.44736e-07
7.78943e-06
2.2375e-07
7.79509e-06
2.17967e-07
7.79968e-06
1.94514e-07
7.80532e-06
1.84123e-07
7.80854e-06
1.62158e-07
7.81229e-06
1.4451e-07
7.81506e-06
1.27335e-07
1.13646e-07
7.81848e-06
8.13248e-06
2.33069e-08
8.13697e-06
6.99489e-08
8.14819e-06
-8.36346e-08
8.13117e-06
-2.10587e-07
8.10346e-06
-2.88584e-07
8.08891e-06
-1.88517e-07
8.07314e-06
-5.85619e-08
8.06377e-06
6.22445e-08
8.06391e-06
1.58381e-07
8.06642e-06
1.96829e-07
8.07429e-06
2.21547e-07
8.08043e-06
2.38589e-07
8.08643e-06
2.17747e-07
8.09247e-06
2.11934e-07
8.09674e-06
1.90246e-07
8.10244e-06
1.78415e-07
8.10587e-06
1.58734e-07
8.10952e-06
1.40856e-07
8.11236e-06
1.24501e-07
1.10429e-07
8.11557e-06
8.44183e-06
2.42379e-08
8.44515e-06
6.66258e-08
8.45519e-06
-9.3673e-08
8.43998e-06
-1.95373e-07
8.41335e-06
-2.61961e-07
8.39638e-06
-1.71541e-07
8.38257e-06
-4.47535e-08
8.3735e-06
7.13103e-08
8.37324e-06
1.58649e-07
8.37532e-06
1.94743e-07
8.38297e-06
2.139e-07
8.38942e-06
2.3214e-07
8.39488e-06
2.1229e-07
8.40119e-06
2.05623e-07
8.40537e-06
1.8606e-07
8.41088e-06
1.72909e-07
8.41447e-06
1.55146e-07
8.41805e-06
1.37274e-07
8.42099e-06
1.2156e-07
1.07431e-07
8.42399e-06
8.76284e-06
2.46802e-08
8.76536e-06
6.41123e-08
8.77315e-06
-1.01463e-07
8.75954e-06
-1.81769e-07
8.72978e-06
-2.32204e-07
8.71308e-06
-1.54838e-07
8.70322e-06
-3.48919e-08
8.69523e-06
7.93044e-08
8.69463e-06
1.59243e-07
8.69625e-06