/*--------------------------------*- C++ -*----------------------------------*\
| =========                 |                                                 |
| \\      /  F ield         | OpenFOAM: The Open Source CFD Toolbox           |
|  \\    /   O peration     | Version:  v2012                                 |
|   \\  /    A nd           | Website:  www.openfoam.com                      |
|    \\/     M anipulation  |                                                 |
\*---------------------------------------------------------------------------*/
FoamFile
{
    version     2.0;
    format      ascii;
    class       volVectorField;
    location    "2.9";
    object      U;
}
// * * * * * * * * * * * * * * * * * * * * * * * * * * * * * * * * * * * * * //

dimensions      [0 1 -1 0 0 0 0];


internalField   nonuniform List<vector> 
7000
(
(0.950669 -0.00210203 0)
(1.05145 0.00804373 0)
(0.926595 0.000459101 0)
(0.99397 -0.0139261 0)
(0.939882 -0.0149936 0)
(1.12165 -0.0125711 0)
(0.947263 -0.0112191 0)
(1.0271 0.00759437 0)
(1.05037 0.0122818 0)
(1.03105 0.00793753 0)
(1.01629 0.0300106 0)
(1.06019 0.00383981 0)
(0.957304 0.0235026 0)
(1.10143 0.00512051 0)
(0.925431 0.0207975 0)
(1.11222 0.00330697 0)
(0.89986 0.013588 0)
(1.11072 -0.00224429 0)
(0.875209 0.00386488 0)
(1.09951 -0.00783065 0)
(0.954675 -0.00213533 0)
(1.04719 0.00815485 0)
(0.936945 0.000757186 0)
(0.986853 -0.013943 0)
(0.944327 -0.0160267 0)
(1.10954 -0.0125561 0)
(0.951302 -0.0104991 0)
(1.0249 0.00686362 0)
(1.05228 0.0121249 0)
(1.02891 0.00832514 0)
(1.02068 0.0296571 0)
(1.05018 0.00487034 0)
(0.971479 0.0228166 0)
(1.07642 0.00591044 0)
(0.95667 0.0204318 0)
(1.0685 0.00420693 0)
(0.953267 0.0136624 0)
(1.04848 -0.00177678 0)
(0.952963 0.00470321 0)
(1.02022 -0.00815057 0)
(0.96209 -0.0021643 0)
(1.03869 0.00829753 0)
(0.952078 0.0010277 0)
(0.979134 -0.0139574 0)
(0.951779 -0.0168868 0)
(1.08999 -0.0124691 0)
(0.960805 -0.00987549 0)
(1.01933 0.00581251 0)
(1.05548 0.0120871 0)
(1.02543 0.00872354 0)
(1.02859 0.0293441 0)
(1.03785 0.00566923 0)
(0.992754 0.022183 0)
(1.05024 0.00623647 0)
(0.992242 0.0204505 0)
(1.03666 0.00424527 0)
(0.997017 0.0139487 0)
(1.02019 -0.00165109 0)
(0.997357 0.00556364 0)
(1.00144 -0.007137 0)
(0.971588 -0.0021782 0)
(1.02766 0.00838035 0)
(0.967752 0.00129557 0)
(0.97316 -0.0139311 0)
(0.960526 -0.0175993 0)
(1.06566 -0.0124619 0)
(0.974485 -0.0094172 0)
(1.01171 0.0048718 0)
(1.05669 0.0120899 0)
(1.02338 0.00897897 0)
(1.0349 0.0292233 0)
(1.03074 0.00614092 0)
(1.00856 0.0219936 0)
(1.03641 0.00615045 0)
(1.01434 0.0208201 0)
(1.02597 0.00396503 0)
(1.01867 0.0145614 0)
(1.01596 -0.00180681 0)
(1.01503 0.00648342 0)
(1.00275 -0.00640682 0)
(0.981457 -0.00218008 0)
(1.01638 0.00840922 0)
(0.981766 0.00155354 0)
(0.970553 -0.0138736 0)
(0.968487 -0.0181738 0)
(1.04056 -0.0125577 0)
(0.988255 -0.00906573 0)
(1.00538 0.00412813 0)
(1.05359 0.01199 0)
(1.02371 0.00916198 0)
(1.03686 0.0291736 0)
(1.02945 0.00651946 0)
(1.01546 0.0219545 0)
(1.0322 0.00597498 0)
(1.02369 0.0211605 0)
(1.02534 0.00371135 0)
(1.02633 0.0150749 0)
(1.01862 -0.001937 0)
(1.01988 0.00728962 0)
(1.00718 -0.00569279 0)
(0.990117 -0.00217256 0)
(1.00679 0.00840933 0)
(0.993319 0.00178141 0)
(0.971771 -0.0137855 0)
(0.974534 -0.0185867 0)
(1.01848 -0.0127328 0)
(0.998198 -0.0088329 0)
(1.00264 0.00353889 0)
(1.04717 0.0117831 0)
(1.02498 0.00930935 0)
(1.03566 0.0291219 0)
(1.03096 0.00687538 0)
(1.01706 0.0219126 0)
(1.03148 0.00576323 0)
(1.02664 0.0213687 0)
(1.02673 0.0035139 0)
(1.0282 0.0154271 0)
(1.02132 -0.00190391 0)
(1.02029 0.00800785 0)
(1.01036 -0.00491946 0)
(0.996555 -0.00215799 0)
(0.99999 0.00838799 0)
(1.00249 0.00196241 0)
(0.975983 -0.0136634 0)
(0.978988 -0.0188346 0)
(1.00126 -0.0129547 0)
(1.00283 -0.00875146 0)
(1.00313 0.00306497 0)
(1.0403 0.0115372 0)
(1.02565 0.0094067 0)
(1.03368 0.0290454 0)
(1.03295 0.00720127 0)
(1.01756 0.0218913 0)
(1.03121 0.00550843 0)
(1.02781 0.0215298 0)
(1.02773 0.00335623 0)
(1.02859 0.0157143 0)
(1.02284 -0.00171794 0)
(1.01985 0.00863471 0)
(1.01204 -0.00405471 0)
(1.0005 -0.0021394 0)
(0.996026 0.00834295 0)
(1.00971 0.00209305 0)
(0.981701 -0.0135094 0)
(0.98293 -0.0189286 0)
(0.988619 -0.0131887 0)
(1.00288 -0.0088211 0)
(1.00485 0.00266614 0)
(1.03507 0.0112996 0)
(1.0255 0.00944388 0)
(1.03249 0.0289304 0)
(1.03474 0.00749506 0)
(1.01898 0.0219119 0)
(1.03075 0.00524208 0)
(1.02888 0.0216756 0)
(1.02814 0.00323597 0)
(1.02873 0.01598 0)
(1.02341 -0.00142012 0)
(1.01936 0.00918901 0)
(1.01269 -0.00310584 0)
(1.00232 -0.00211869 0)
(0.9942 0.00827111 0)
(1.01527 0.00217802 0)
(0.987548 -0.013333 0)
(0.987205 -0.0188846 0)
(0.979428 -0.0133971 0)
(0.999865 -0.00901392 0)
(1.00597 0.00228497 0)
(1.03187 0.0110769 0)
(1.02515 0.00942532 0)
(1.03252 0.0287745 0)
(1.03645 0.00775735 0)
(1.02148 0.0219774 0)
(1.03015 0.00499953 0)
(1.02987 0.0217922 0)
(1.02806 0.00316631 0)
(1.02854 0.0162166 0)
(1.02324 -0.0010134 0)
(1.01868 0.00968526 0)
(1.01259 -0.0021004 0)
(1.00273 -0.0020958 0)
(0.993576 0.00817128 0)
(1.01921 0.00222423 0)
(0.992654 -0.0131486 0)
(0.991917 -0.0187196 0)
(0.972803 -0.0135444 0)
(0.995046 -0.00929584 0)
(1.00552 0.00186794 0)
(1.02991 0.0108519 0)
(1.02502 0.00935573 0)
(1.03357 0.028581 0)
(1.03813 0.00799255 0)
(1.02443 0.0220947 0)
(1.0293 0.00481003 0)
(1.0303 0.0218767 0)
(1.02734 0.00317492 0)
(1.02764 0.0164109 0)
(1.02235 -0.000497157 0)
(1.01752 0.0101274 0)
(1.01186 -0.0010622 0)
(1.00243 -0.00206957 0)
(0.993429 0.00804622 0)
(1.02141 0.00223907 0)
(0.996656 -0.0129713 0)
(0.996553 -0.0184537 0)
(0.968486 -0.013603 0)
(0.989342 -0.00963193 0)
(1.00321 0.00138446 0)
(1.02795 0.0105996 0)
(1.02475 0.00922981 0)
(1.03498 0.0283532 0)
(1.03931 0.00821109 0)
(1.02694 0.0222718 0)
(1.02783 0.00470445 0)
(1.02971 0.0219303 0)
(1.02581 0.00328823 0)
(1.02584 0.0165556 0)
(1.02074 0.00011788 0)
(1.01579 0.0105162 0)
(1.01058 -1.45998e-05 0)
(1.0019 -0.00203906 0)
(0.993423 0.00790321 0)
(1.02193 0.00222919 0)
(0.999538 -0.0128129 0)
(1.00039 -0.018112 0)
(0.966549 -0.0135616 0)
(0.983605 -0.00998001 0)
(0.999126 0.000831245 0)
(1.02486 0.0103013 0)
(1.02339 0.00903569 0)
(1.03561 0.0280931 0)
(1.03915 0.0084266 0)
(1.02814 0.0225066 0)
(1.02533 0.00470338 0)
(1.02784 0.0219517 0)
(1.02333 0.00350441 0)
(1.02315 0.0166379 0)
(1.01847 0.000808333 0)
(1.01357 0.0108468 0)
(1.0089 0.0010221 0)
(1.00137 -0.00200432 0)
(0.993543 0.0077518 0)
(1.02107 0.00220076 0)
(1.00148 -0.0126786 0)
(1.00286 -0.0177249 0)
(0.966958 -0.0134266 0)
(0.978731 -0.0102893 0)
(0.993595 0.000232598 0)
(1.01985 0.0099547 0)
(1.01995 0.00876651 0)
(1.03415 0.0278016 0)
(1.03685 0.00864228 0)
(1.02732 0.0227882 0)
(1.02164 0.00480559 0)
(1.02469 0.0219216 0)
(1.02002 0.00380988 0)
(1.01976 0.0166394 0)
(1.01572 0.0015562 0)
(1.01103 0.0111169 0)
(1.00696 0.00202937 0)
(1.00084 -0.00196642 0)
(0.993895 0.00760046 0)
(1.01934 0.00215978 0)
(1.00273 -0.0125661 0)
(1.00378 -0.0173232 0)
(0.969324 -0.0132196 0)
(0.975459 -0.0105122 0)
(0.987299 -0.000364573 0)
(1.01277 0.00957732 0)
(1.01405 0.00842949 0)
(1.02973 0.0274774 0)
(1.03214 0.00884721 0)
(1.02433 0.0230855 0)
(1.01695 0.00499657 0)
(1.02056 0.0218103 0)
(1.01619 0.00419255 0)
(1.01603 0.0165575 0)
(1.01275 0.00232354 0)
(1.0084 0.0113208 0)
(1.00494 0.00298922 0)
(1.00028 -0.00192704 0)
(0.994549 0.00745434 0)
(1.01727 0.00211182 0)
(1.00355 -0.0124678 0)
(1.00334 -0.0169311 0)
(0.972951 -0.0129732 0)
(0.974077 -0.010618 0)
(0.981155 -0.000906625 0)
(1.00435 0.00920009 0)
(1.0063 0.00804485 0)
(1.02244 0.0271163 0)
(1.02551 0.00902319 0)
(1.01963 0.023345 0)
(1.01186 0.00525381 0)
(1.01603 0.0216 0)
(1.01227 0.00462581 0)
(1.01236 0.0163866 0)
(1.0098 0.00310027 0)
(1.0059 0.0114634 0)
(1.00297 0.00389277 0)
(0.999664 -0.00188783 0)
(0.995461 0.00731494 0)
(1.01528 0.00206145 0)
(1.00414 -0.0123742 0)
(1.00198 -0.0165626 0)
(0.97705 -0.012721 0)
(0.974328 -0.0105965 0)
(0.976035 -0.00135107 0)
(0.995863 0.00885354 0)
(0.998113 0.00763971 0)
(1.01352 0.0267169 0)
(1.0181 0.00914518 0)
(1.01424 0.0235193 0)
(1.00708 0.00555196 0)
(1.01173 0.0212792 0)
(1.00869 0.00508811 0)
(1.00909 0.0161182 0)
(1.00709 0.00387392 0)
(1.00368 0.0115567 0)
(1.00115 0.00473742 0)
(0.999025 -0.00184986 0)
(0.996493 0.00718077 0)
(1.0136 0.0020124 0)
(1.00458 -0.0122772 0)
(1.00021 -0.0162233 0)
(0.980978 -0.0124875 0)
(0.975607 -0.0104561 0)
(0.972463 -0.00168048 0)
(0.988656 0.00855461 0)
(0.991047 0.0072415 0)
(1.00475 0.0262813 0)
(1.0112 0.00919974 0)
(1.00925 0.0235702 0)
(1.00321 0.00588095 0)
(1.00816 0.0208493 0)
(1.00572 0.00557578 0)
(1.00641 0.0157872 0)
(1.00474 0.00461548 0)
(1.00183 0.0116045 0)
(0.999544 0.00552667 0)
(0.998434 -0.00181347 0)
(0.997477 0.00704899 0)
(1.0123 0.00196684 0)
(1.00494 -0.0121715 0)
(0.998447 -0.015912 0)
(0.98435 -0.0122848 0)
(0.977281 -0.0102174 0)
(0.970485 -0.00190243 0)
(0.983551 0.00830221 0)
(0.986092 0.00686909 0)
(0.997662 0.0258167 0)
(1.00569 0.00919314 0)
(1.00542 0.0234798 0)
(1.00053 0.00623711 0)
(1.00553 0.0203366 0)
(1.00347 0.00608487 0)
(1.00435 0.0154158 0)
(1.0028 0.00532907 0)
(1.00035 0.0116209 0)
(0.998187 0.0062653 0)
(0.99796 -0.0017784 0)
(0.998272 0.00691707 0)
(1.01137 0.00192485 0)
(1.00523 -0.0120545 0)
(0.996925 -0.0156233 0)
(0.987022 -0.0121165 0)
(0.978922 -0.0099017 0)
(0.969788 -0.00204194 0)
(0.980642 0.00808491 0)
(0.98337 0.00652902 0)
(0.992948 0.0253324 0)
(1.00185 0.00914911 0)
(1.00293 0.0232524 0)
(0.998924 0.00662328 0)
(1.00377 0.0197586 0)
(1.00185 0.00661545 0)
(1.00282 0.0150329 0)
(1.00126 0.00602587 0)
(0.999199 0.0116231 0)
(0.997089 0.00695593 0)
(0.997652 -0.00174387 0)
(0.998798 0.00678296 0)
(1.01074 0.00188564 0)
(1.00545 -0.0119258 0)
(0.995744 -0.0153509 0)
(0.988996 -0.0119774 0)
(0.980349 -0.00953278 0)
(0.969939 -0.00212976 0)
(0.979471 0.00788617 0)
(0.982333 0.00622173 0)
(0.990434 0.0248356 0)
(0.999401 0.00909922 0)
(1.00155 0.0229029 0)
(0.998102 0.00704808 0)
(1.00264 0.0191429 0)
(1.00072 0.00716292 0)
(1.00169 0.0146601 0)
(1.00007 0.0067073 0)
(0.998317 0.0116277 0)
(0.996255 0.00760904 0)
(0.997521 -0.00170884 0)
(0.999036 0.00664524 0)
(1.01031 0.00184768 0)
(1.00563 -0.0117866 0)
(0.994907 -0.0150879 0)
(0.990342 -0.0118618 0)
(0.981546 -0.00913024 0)
(0.970574 -0.00218887 0)
(0.979388 0.00769126 0)
(0.982207 0.00594618 0)
(0.989449 0.0243246 0)
(0.997879 0.00907993 0)
(1.00083 0.0224434 0)
(0.997711 0.00752679 0)
(1.00187 0.0185195 0)
(0.999931 0.00771972 0)
(1.00083 0.0143071 0)
(0.999195 0.00735366 0)
(0.997651 0.0116329 0)
(0.995677 0.00822473 0)
(0.99755 -0.00167224 0)
(0.999019 0.00650333 0)
(1.01001 0.00180899 0)
(1.00577 -0.0116385 0)
(0.994375 -0.0148272 0)
(0.991152 -0.0117654 0)
(0.982555 -0.00870832 0)
(0.971473 -0.00223068 0)
(0.979844 0.00749555 0)
(0.982358 0.0057003 0)
(0.989272 0.0237883 0)
(0.996847 0.00911394 0)
(1.00036 0.0218955 0)
(0.997484 0.00804965 0)
(1.00126 0.0179007 0)
(0.999381 0.00827756 0)
(1.00013 0.0139994 0)
(0.998596 0.00796808 0)
(0.99716 0.0116346 0)
(0.995334 0.00879584 0)
(0.997703 -0.00163309 0)
(0.998809 0.00635721 0)
(1.00976 0.00176784 0)
(1.0059 -0.0114838 0)
(0.994097 -0.0145633 0)
(0.991532 -0.0116818 0)
(0.983411 -0.00828104 0)
(0.972529 -0.00226143 0)
(0.980497 0.00730223 0)
(0.982439 0.00548698 0)
(0.989384 0.02322 0)
(0.99604 0.00919781 0)
(0.999917 0.0212896 0)
(0.997272 0.00859081 0)
(1.00068 0.017294 0)
(0.998992 0.00881066 0)
(0.999548 0.0137183 0)
(0.998223 0.00854949 0)
(0.996809 0.0116483 0)
(0.995193 0.00933593 0)
(0.997933 -0.00159063 0)
(0.998489 0.00620708 0)
(1.00948 0.00172309 0)
(1.006 -0.0113252 0)
(0.994021 -0.0142906 0)
(0.991596 -0.0116075 0)
(0.984135 -0.00785745 0)
(0.973684 -0.00228525 0)
(0.981179 0.00710486 0)
(0.982344 0.00532429 0)
(0.989503 0.0226027 0)
(0.995341 0.00934409 0)
(0.99938 0.0206142 0)
(0.997018 0.00915077 0)
(1.00008 0.0167235 0)
(0.998715 0.00931374 0)
(0.999034 0.0134672 0)
(0.998027 0.00908232 0)
(0.996572 0.0116417 0)
(0.995206 0.00983238 0)
(0.998193 -0.00154436 0)
(0.998143 0.00605357 0)
(1.00913 0.00167328 0)
(1.00608 -0.0111646 0)
(0.994095 -0.0140057 0)
(0.991461 -0.0115385 0)
(0.984741 -0.00745007 0)
(0.974896 -0.00229207 0)
(0.98182 0.00689788 0)
(0.982109 0.00521063 0)
(0.989515 0.0219328 0)
(0.994718 0.0095557 0)
(0.998735 0.0198865 0)
(0.996722 0.00969669 0)
(0.99944 0.0161888 0)
(0.99851 0.00980357 0)
(0.998571 0.0132722 0)
(0.997948 0.00959241 0)
(0.996425 0.0116048 0)
(0.995329 0.0102604 0)
(0.998441 -0.00149441 0)
(0.997845 0.00589857 0)
(1.0087 0.00161738 0)
(1.00609 -0.0110049 0)
(0.99427 -0.0137073 0)
(0.991232 -0.0114671 0)
(0.985239 -0.00706958 0)
(0.976118 -0.00227782 0)
(0.982392 0.00669451 0)
(0.981828 0.00514319 0)
(0.989388 0.0212148 0)
(0.99417 0.00980583 0)
(0.998006 0.019156 0)
(0.996403 0.0102177 0)
(0.998779 0.0156671 0)
(0.998356 0.0102139 0)
(0.998157 0.013094 0)
(0.997936 0.0101092 0)
(0.996349 0.0116306 0)
(0.995519 0.0106456 0)
(0.998645 -0.00144122 0)
(0.997647 0.00574281 0)
(1.0082 0.00155871 0)
(1.00602 -0.01085 0)
(0.994506 -0.0133962 0)
(0.990994 -0.0113883 0)
(0.985641 -0.00671531 0)
(0.977305 -0.00224208 0)
(0.982881 0.00648323 0)
(0.981592 0.00513951 0)
(0.989129 0.0204674 0)
(0.993709 0.0100605 0)
(0.997233 0.0184182 0)
(0.996086 0.0107096 0)
(0.998121 0.0152215 0)
(0.998231 0.0106074 0)
(0.997814 0.0128812 0)
(0.99797 0.0104732 0)
(0.996335 0.0116654 0)
(0.995731 0.0110337 0)
(0.998787 -0.00138502 0)
(0.997576 0.00558513 0)
(1.00766 0.00150029 0)
(1.00586 -0.0107012 0)
(0.994768 -0.0130706 0)
(0.990804 -0.0113044 0)
(0.985956 -0.00639292 0)
(0.978416 -0.00217377 0)
(0.983281 0.00626719 0)
(0.981477 0.00516077 0)
(0.988766 0.0196932 0)
(0.993335 0.0103679 0)
(0.996465 0.0176544 0)
(0.995803 0.011151 0)
(0.997517 0.0147721 0)
(0.998124 0.0110187 0)
(0.997529 0.0127775 0)
(0.998028 0.0107793 0)
(0.996411 0.0115613 0)
(0.995963 0.011338 0)
(0.99886 -0.00132642 0)
(0.997635 0.00542647 0)
(1.00713 0.00144158 0)
(1.0056 -0.0105573 0)
(0.995022 -0.0127379 0)
(0.990694 -0.0112017 0)
(0.986189 -0.0061159 0)
(0.979425 -0.00208292 0)
(0.983586 0.00606673 0)
(0.98152 0.00524422 0)
(0.988348 0.0188495 0)
(0.993054 0.0106736 0)
(0.995747 0.016966 0)
(0.995565 0.0114978 0)
(0.997006 0.014398 0)
(0.99806 0.0113015 0)
(0.997338 0.0125939 0)
(0.998069 0.0112384 0)
(0.996537 0.0115485 0)
(0.996212 0.011531 0)
(0.998867 -0.00126746 0)
(0.997808 0.00526886 0)
(1.00666 0.0013844 0)
(1.00527 -0.0104124 0)
(0.995239 -0.0124143 0)
(0.990671 -0.0110716 0)
(0.986344 -0.00588531 0)
(0.980319 -0.00193349 0)
(0.983805 0.00578983 0)
(0.981725 0.00541362 0)
(0.987917 0.0180162 0)
(0.992871 0.0109536 0)
(0.995122 0.0162057 0)
(0.995395 0.0119018 0)
(0.996609 0.0139066 0)
(0.998005 0.0117531 0)
(0.997271 0.0123931 0)
(0.998158 0.0114722 0)
(0.996695 0.0114636 0)
(0.996437 0.0117988 0)
(0.998818 -0.00120358 0)
(0.99807 0.00510078 0)
(1.00627 0.00134411 0)
(1.0049 -0.0102862 0)
(0.995394 -0.0120621 0)
(0.990727 -0.0109479 0)
(0.986431 -0.00567393 0)
(0.981095 -0.00178044 0)
(0.983953 0.00556839 0)
(0.982079 0.00549805 0)
(0.987533 0.0172534 0)
(0.992756 0.0111594 0)
(0.994635 0.0156615 0)
(0.995289 0.0119819 0)
(0.996353 0.0136806 0)
(0.998029 0.0118228 0)
(0.997239 0.0124324 0)
(0.998221 0.0117521 0)
(0.996959 0.0114012 0)
(0.996723 0.0118645 0)
(0.998731 -0.00114769 0)
(0.998386 0.00494868 0)
(1.00597 0.00128709 0)
(1.00453 -0.0101206 0)
(0.995476 -0.0117704 0)
(0.990837 -0.0107251 0)
(0.986464 -0.00555662 0)
(0.981768 -0.00155279 0)
(0.984054 0.00530614 0)
(0.982537 0.00568656 0)
(0.987239 0.0164294 0)
(0.99274 0.011272 0)
(0.994262 0.0151634 0)
(0.995266 0.0121265 0)
(0.996205 0.0133988 0)
(0.998068 0.0118834 0)
(0.99738 0.0122614 0)
(0.998313 0.0119206 0)
(0.997156 0.0116309 0)
(0.996942 0.0121811 0)
(0.998627 -0.00108483 0)
(0.998721 0.00476861 0)
(1.00576 0.00126368 0)
(1.00417 -0.00999089 0)
(0.995485 -0.0114441 0)
(0.990975 -0.0105325 0)
(0.986473 -0.00541276 0)
(0.982341 -0.00136122 0)
(0.98414 0.00509752 0)
(0.983071 0.00578022 0)
(0.987055 0.0158023 0)
(0.992778 0.0112192 0)
(0.994061 0.0147515 0)
(0.995285 0.0120945 0)
(0.99617 0.0131961 0)
(0.998165 0.0119103 0)
(0.997496 0.0121791 0)
(0.998463 0.0118843 0)
(0.997505 0.0117871 0)
(0.997189 0.0125266 0)
(0.998521 -0.00101395 0)
(0.99905 0.00457152 0)
(1.00561 0.00125421 0)
(1.00387 -0.00986176 0)
(0.995435 -0.011097 0)
(0.991112 -0.0103431 0)
(0.986484 -0.00527528 0)
(0.982836 -0.00117679 0)
(0.984234 0.0049038 0)
(0.983643 0.00582156 0)
(0.986999 0.0151885 0)
(0.992889 0.0112585 0)
(0.993949 0.014344 0)
(0.995367 0.0119935 0)
(0.99621 0.0130759 0)
(0.998262 0.0117351 0)
(0.997711 0.0123242 0)
(0.998607 0.0122572 0)
(0.99779 0.0116893 0)
(0.99738 0.0123466 0)
(0.998426 -0.000970776 0)
(0.999355 0.00443628 0)
(1.0055 0.00117928 0)
(1.00364 -0.00960268 0)
(0.995347 -0.0109253 0)
(0.991237 -0.00992923 0)
(0.986522 -0.00533493 0)
(0.983252 -0.000790129 0)
(0.984367 0.00440577 0)
(0.984228 0.00621848 0)
(0.987066 0.0142137 0)
(0.993019 0.0115161 0)
(0.993969 0.0135362 0)
(0.995472 0.0124696 0)
(0.996292 0.0123032 0)
(0.998431 0.0123047 0)
(0.997959 0.0120988 0)
(0.998693 0.0126607 0)
(0.997992 0.0116839 0)
(0.997578 0.0123889 0)
(0.998349 -0.000901676 0)
(0.999629 0.00421196 0)
(1.00538 0.00119799 0)
(1.00347 -0.00947305 0)
(0.995239 -0.0105903 0)
(0.991347 -0.00970368 0)
(0.986597 -0.00522644 0)
(0.983615 -0.000614182 0)
(0.984553 0.00432657 0)
(0.984796 0.00611869 0)
(0.98723 0.0137637 0)
(0.993172 0.0112677 0)
(0.99407 0.013247 0)
(0.995585 0.0122732 0)
(0.99643 0.0123629 0)
(0.998587 0.0122176 0)
(0.998156 0.012085 0)
(0.998831 0.0124831 0)
(0.998173 0.0117718 0)
(0.997725 0.0125259 0)
(0.998299 -0.000828537 0)
(0.99986 0.0039872 0)
(1.00525 0.00120015 0)
(1.00334 -0.00928572 0)
(0.99514 -0.0102862 0)
(0.991435 -0.00944099 0)
(0.986732 -0.00511445 0)
(0.983947 -0.000477845 0)
(0.98476 0.00427284 0)
(0.985356 0.00586117 0)
(0.987471 0.0135187 0)
(0.993336 0.0109816 0)
(0.9942 0.0129588 0)
(0.995735 0.0121193 0)
(0.99655 0.0125716 0)
(0.998719 0.0119132 0)
(0.998354 0.0121522 0)
(0.998902 0.0123706 0)
(0.998374 0.0116498 0)
(0.997875 0.0124012 0)
(0.998278 -0.000793724 0)
(1.00005 0.00386475 0)
(1.00509 0.0010937 0)
(1.00324 -0.00890623 0)
(0.995079 -0.0102194 0)
(0.991498 -0.00885466 0)
(0.986936 -0.00530337 0)
(0.984242 -3.23171e-05 0)
(0.985011 0.00365984 0)
(0.985899 0.00636066 0)
(0.987751 0.0123831 0)
(0.993479 0.0113494 0)
(0.994388 0.0121878 0)
(0.995875 0.0124672 0)
(0.996658 0.0119467 0)
(0.998833 0.0125328 0)
(0.998543 0.0118498 0)
(0.99896 0.0129405 0)
(0.998474 0.011775 0)
(0.997987 0.0123619 0)
(0.998273 -0.000721728 0)
(1.0002 0.00360507 0)
(1.00489 0.00112304 0)
(1.00316 -0.0087435 0)
(0.995047 -0.00990449 0)
(0.99157 -0.00861536 0)
(0.987191 -0.00515382 0)
(0.984526 3.26021e-05 0)
(0.9853 0.0037634 0)
(0.986387 0.00591839 0)
(0.98807 0.0122187 0)
(0.993631 0.0109418 0)
(0.994562 0.0119727 0)
(0.996007 0.0121844 0)
(0.996816 0.0120608 0)
(0.998936 0.0122629 0)
(0.998699 0.0118175 0)
(0.999054 0.0127026 0)
(0.998482 0.0118984 0)
(0.998034 0.0124444 0)
(0.998291 -0.000637332 0)
(1.00033 0.00336209 0)
(1.00468 0.00111294 0)
(1.00306 -0.00848451 0)
(0.995063 -0.00963051 0)
(0.991648 -0.00830498 0)
(0.98748 -0.00502348 0)
(0.984845 -1.4607e-05 0)
(0.985551 0.00392505 0)
(0.986896 0.00551532 0)
(0.988398 0.0120681 0)
(0.993733 0.0105184 0)
(0.994754 0.0118416 0)
(0.996149 0.0119509 0)
(0.996891 0.0122218 0)
(0.998989 0.0118078 0)
(0.998854 0.0119034 0)
(0.999118 0.0123449 0)
(0.998596 0.011858 0)
(0.998101 0.012465 0)
(0.998325 -0.000630977 0)
(1.00041 0.003281 0)
(1.00446 0.00094437 0)
(1.00292 -0.00795842 0)
(0.995129 -0.00966786 0)
(0.991734 -0.00762537 0)
(0.987811 -0.00528823 0)
(0.985155 0.000554742 0)
(0.985862 0.00318218 0)
(0.987349 0.00622758 0)
(0.988723 0.0107253 0)
(0.993854 0.0111363 0)
(0.994945 0.0109732 0)
(0.996271 0.0123005 0)
(0.996976 0.0115448 0)
(0.999072 0.0124335 0)
(0.998997 0.01166 0)
(0.999174 0.0130176 0)
(0.99866 0.0118955 0)
(0.998145 0.0123875 0)
(0.998351 -0.000521661 0)
(1.0005 0.00295406 0)
(1.00421 0.00101337 0)
(1.00279 -0.00783707 0)
(0.995207 -0.0092767 0)
(0.991855 -0.00744964 0)
(0.988171 -0.00499056 0)
(0.985487 0.000345293 0)
(0.986171 0.0035445 0)
(0.987785 0.00562079 0)
(0.989072 0.0107024 0)
(0.993946 0.0107032 0)
(0.995115 0.0109541 0)
(0.99641 0.0118118 0)
(0.997098 0.0116142 0)
(0.999129 0.0120465 0)
(0.999154 0.0115094 0)
(0.999257 0.012766 0)
(0.998563 0.0122024 0)
(0.998147 0.0125224 0)
(0.998385 -0.000479223 0)
(1.00058 0.00278643 0)
(1.00397 0.000909893 0)
(1.00263 -0.007424 0)
(0.995304 -0.009101 0)
(0.992015 -0.00709303 0)
(0.988509 -0.0047813 0)
(0.985891 8.96794e-05 0)
(0.986459 0.00383944 0)
(0.988226 0.00520445 0)
(0.989421 0.0106756 0)
(0.994052 0.0101515 0)
(0.995268 0.0110854 0)
(0.99653 0.0113837 0)
(0.99718 0.0115744 0)
(0.999166 0.0112306 0)
(0.999325 0.0115394 0)
(0.999441 0.0121943 0)
(0.998707 0.012438 0)
(0.998092 0.0129404 0)
(0.998436 -0.000441764 0)
(1.00062 0.00265408 0)
(1.00375 0.000763295 0)
(1.00242 -0.00693912 0)
(0.995429 -0.00905138 0)
(0.992185 -0.00654431 0)
(0.988875 -0.00485289 0)
(0.986284 0.000401378 0)
(0.986792 0.00346898 0)
(0.988662 0.00552504 0)
(0.989759 0.00988357 0)
(0.994154 0.0104402 0)
(0.995441 0.010546 0)
(0.996619 0.0114269 0)
(0.997204 0.0110524 0)
(0.99927 0.0114565 0)
(0.999536 0.0114097 0)
(0.999616 0.0123572 0)
(0.998902 0.0124581 0)
(0.998117 0.0129464 0)
(0.998479 -0.000337311 0)
(1.00066 0.00234773 0)
(1.00354 0.000800033 0)
(1.00221 -0.00674564 0)
(0.995556 -0.0086663 0)
(0.992373 -0.00636156 0)
(0.98924 -0.00456737 0)
(0.986723 0.000295523 0)
(0.987125 0.00359873 0)
(0.989072 0.00530111 0)
(0.990135 0.00961786 0)
(0.994266 0.0103178 0)
(0.995568 0.0102893 0)
(0.996724 0.0111052 0)
(0.99733 0.0111357 0)
(0.999359 0.0116191 0)
(0.999697 0.0112187 0)
(0.999845 0.0123018 0)
(0.999024 0.0122247 0)
(0.99803 0.012479 0)
(0.998521 -0.000327208 0)
(1.00071 0.00225659 0)
(1.00333 0.000614354 0)
(1.002 -0.00623912 0)
(0.995676 -0.00856009 0)
(0.992593 -0.00598299 0)
(0.989603 -0.00435097 0)
(0.987171 0.000278502 0)
(0.987466 0.00346449 0)
(0.989509 0.00538533 0)
(0.990513 0.00930853 0)
(0.994365 0.0100626 0)
(0.995705 0.0100292 0)
(0.996886 0.0111178 0)
(0.99745 0.0111101 0)
(0.999394 0.0113145 0)
(0.999871 0.0111237 0)
(1.00001 0.0120838 0)
(0.999088 0.0117088 0)
(0.998007 0.0121274 0)
(0.998562 -0.00024786 0)
(1.00074 0.00203971 0)
(1.00313 0.000549423 0)
(1.00178 -0.00590565 0)
(0.995795 -0.00826286 0)
(0.992831 -0.00570729 0)
(0.989958 -0.00415173 0)
(0.987625 0.000283679 0)
(0.987843 0.00355249 0)
(0.989939 0.00535728 0)
(0.990876 0.00883618 0)
(0.994486 0.00991695 0)
(0.995889 0.00996508 0)
(0.997038 0.0108769 0)
(0.997505 0.0109141 0)
(0.999478 0.0112112 0)
(1.00006 0.0110256 0)
(1.00012 0.0117297 0)
(0.999186 0.011471 0)
(0.998066 0.0120068 0)
(0.998602 -0.00019677 0)
(1.00078 0.00185449 0)
(1.00295 0.000458773 0)
(1.00157 -0.00556047 0)
(0.995906 -0.00794968 0)
(0.993073 -0.00553399 0)
(0.990322 -0.00383173 0)
(0.988109 0.000267507 0)
(0.988206 0.00359787 0)
(0.99034 0.0051833 0)
(0.991275 0.0086056 0)
(0.994659 0.00974541 0)
(0.996019 0.00981156 0)
(0.997188 0.0104959 0)
(0.997668 0.0109034 0)
(0.999542 0.0111356 0)
(1.00017 0.0107483 0)
(1.00027 0.0114345 0)
(0.999345 0.0113677 0)
(0.998099 0.0118324 0)
(0.998646 -0.000159884 0)
(1.00081 0.00173251 0)
(1.00278 0.000303513 0)
(1.00136 -0.00514937 0)
(0.996012 -0.00769955 0)
(0.993338 -0.00525139 0)
(0.990684 -0.00357463 0)
(0.98857 0.000274188 0)
(0.988591 0.00349978 0)
(0.990772 0.00527854 0)
(0.991673 0.00832973 0)
(0.994806 0.00948212 0)
(0.996176 0.00952689 0)
(0.997393 0.0104276 0)
(0.997795 0.0107523 0)
(0.999559 0.0108908 0)
(1.00032 0.0105324 0)
(1.00046 0.0113183 0)
(0.999494 0.0111817 0)
(0.998142 0.011567 0)
(0.998689 -9.13369e-05 0)
(1.00084 0.00152992 0)
(1.00261 0.000247512 0)
(1.00116 -0.00488879 0)
(0.996117 -0.00726406 0)
(0.993601 -0.00508405 0)
(0.991046 -0.00332877 0)
(0.989052 0.00027845 0)
(0.988992 0.00364264 0)
(0.991173 0.00518529 0)
(0.992054 0.00797165 0)
(0.994992 0.00918988 0)
(0.996359 0.00952438 0)
(0.997581 0.0101336 0)
(0.997928 0.0104916 0)
(0.999614 0.0107964 0)
(1.00048 0.0104319 0)
(1.00062 0.0110757 0)
(0.999611 0.0108998 0)
(0.998183 0.0113231 0)
(0.998733 -6.08554e-05 0)
(1.00086 0.00141323 0)
(1.00246 0.000106527 0)
(1.00096 -0.00452368 0)
(0.996214 -0.00695741 0)
(0.99387 -0.00487024 0)
(0.991414 -0.00303739 0)
(0.989538 0.000332356 0)
(0.989384 0.00352961 0)
(0.991565 0.00511273 0)
(0.992456 0.0077818 0)
(0.995219 0.00903173 0)
(0.996522 0.00930921 0)
(0.997748 0.00985002 0)
(0.99812 0.0103073 0)
(0.999677 0.0106822 0)
(1.00059 0.0102209 0)
(1.00076 0.0107824 0)
(0.999773 0.0106558 0)
(0.998268 0.0111055 0)
(0.998778 -9.1241e-06 0)
(1.00088 0.00126439 0)
(1.00233 7.68409e-06 0)
(1.00078 -0.00425308 0)
(0.996309 -0.00656064 0)
(0.994149 -0.00459876 0)
(0.991783 -0.00280295 0)
(0.990005 0.00032187 0)
(0.989796 0.00352217 0)
(0.991984 0.00515586 0)
(0.992856 0.0075481 0)
(0.995414 0.00873629 0)
(0.996693 0.00907261 0)
(0.997963 0.00966017 0)
(0.998308 0.0100577 0)
(0.999725 0.0105588 0)
(1.0007 0.0100627 0)
(1.00093 0.0105508 0)
(0.999931 0.010452 0)
(0.99835 0.0108794 0)
(0.998823 3.21511e-05 0)
(1.0009 0.00112832 0)
(1.0022 -9.43151e-05 0)
(1.00062 -0.00397245 0)
(0.996406 -0.00615748 0)
(0.99442 -0.00437633 0)
(0.992145 -0.00256504 0)
(0.990498 0.000395227 0)
(0.990223 0.00351373 0)
(0.992365 0.0050601 0)
(0.993232 0.00729009 0)
(0.99566 0.00849342 0)
(0.996892 0.00891669 0)
(0.998137 0.00947361 0)
(0.998535 0.00981772 0)
(0.999818 0.0104175 0)
(1.00077 0.00987744 0)
(1.00106 0.0102956 0)
(1.00011 0.0102041 0)
(0.998452 0.0106081 0)
(0.998869 6.1902e-05 0)
(1.00092 0.00102784 0)
(1.00208 -0.000224342 0)
(1.00046 -0.00367821 0)
(0.996494 -0.0058097 0)
(0.994702 -0.00410035 0)
(0.992523 -0.00230267 0)
(0.990966 0.000452233 0)
(0.99064 0.00341031 0)
(0.992773 0.00502017 0)
(0.993638 0.00711456 0)
(0.995891 0.00830465 0)
(0.997087 0.00868471 0)
(0.998345 0.00929317 0)
(0.998751 0.00951493 0)
(0.999882 0.0101739 0)
(1.00085 0.00970869 0)
(1.00121 0.010085 0)
(1.00027 0.00998559 0)
(0.99856 0.0103507 0)
(0.998914 0.000104015 0)
(1.00093 0.000906205 0)
(1.00197 -0.000321331 0)
(1.00032 -0.00344753 0)
(0.996591 -0.00538948 0)
(0.994982 -0.00382991 0)
(0.992883 -0.00207492 0)
(0.991447 0.000502133 0)
(0.991086 0.00342119 0)
(0.993167 0.00497027 0)
(0.994014 0.00689165 0)
(0.996142 0.00804892 0)
(0.997303 0.00847311 0)
(0.998509 0.00909421 0)
(0.998979 0.0092256 0)
(1.00003 0.00999692 0)
(1.00094 0.00962724 0)
(1.00133 0.00988053 0)
(1.00043 0.00975781 0)
(0.998683 0.0100609 0)
(0.99896 0.000123104 0)
(1.00094 0.000832082 0)
(1.00187 -0.000451982 0)
(1.00019 -0.00316603 0)
(0.996682 -0.00503543 0)
(0.995262 -0.00357357 0)
(0.99326 -0.001841 0)
(0.991919 0.000636407 0)
(0.991516 0.00334657 0)
(0.993562 0.00488074 0)
(0.994412 0.00668355 0)
(0.996394 0.00788873 0)
(0.997524 0.00821561 0)
(0.998709 0.00894044 0)
(0.999221 0.00901962 0)
(1.00017 0.00976172 0)
(1.001 0.00944814 0)
(1.00144 0.00963259 0)
(1.00055 0.00950869 0)
(0.9988 0.0097522 0)
(0.999006 0.000153189 0)
(1.00095 0.000747227 0)
(1.00178 -0.000562546 0)
(1.00008 -0.00294506 0)
(0.996778 -0.00465786 0)
(0.995547 -0.00330698 0)
(0.993628 -0.00158994 0)
(0.992388 0.000730297 0)
(0.99196 0.00333997 0)
(0.993958 0.00482118 0)
(0.994803 0.00648931 0)
(0.996649 0.00768297 0)
(0.997761 0.00798796 0)
(0.998896 0.00874172 0)
(0.999438 0.00876536 0)
(1.00033 0.0094655 0)
(1.00109 0.00928051 0)
(1.00153 0.00940017 0)
(1.00069 0.00931825 0)
(0.998945 0.00949793 0)
(0.999051 0.000166953 0)
(1.00095 0.00069574 0)
(1.00171 -0.000694648 0)
(0.999988 -0.00270926 0)
(0.996872 -0.0042888 0)
(0.99583 -0.00307627 0)
(0.994006 -0.00134822 0)
(0.992853 0.000909831 0)
(0.992393 0.00331645 0)
(0.994345 0.00473836 0)
(0.995202 0.00625444 0)
(0.996912 0.00750006 0)
(0.998001 0.00774762 0)
(0.999103 0.00853168 0)
(0.999666 0.00857614 0)
(1.00052 0.00920333 0)
(1.00118 0.00911704 0)
(1.00163 0.00919594 0)
(1.00081 0.00913717 0)
(0.999055 0.00920756 0)
(0.999097 0.000185234 0)
(1.00095 0.000646448 0)
(1.00163 -0.00080362 0)
(0.999912 -0.00252134 0)
(0.996966 -0.00391716 0)
(0.996117 -0.00286263 0)
(0.994389 -0.00108849 0)
(0.99331 0.00108122 0)
(0.992823 0.00333022 0)
(0.994727 0.00468659 0)
(0.995602 0.00603845 0)
(0.997185 0.00732603 0)
(0.99825 0.00754389 0)
(0.99932 0.00831232 0)
(0.999879 0.00838208 0)
(1.00071 0.00890806 0)
(1.00129 0.00893333 0)
(1.00172 0.00896717 0)
(1.00091 0.00891423 0)
(0.999173 0.00893784 0)
(0.999141 0.00018926 0)
(1.00094 0.000616757 0)
(1.00156 -0.000917693 0)
(0.999853 -0.00232695 0)
(0.997061 -0.00355453 0)
(0.996403 -0.00264745 0)
(0.994781 -0.000848427 0)
(0.993765 0.00127254 0)
(0.993245 0.00334745 0)
(0.995094 0.00463548 0)
(0.996006 0.00582216 0)
(0.997472 0.007134 0)
(0.998497 0.00734527 0)
(0.999548 0.00806226 0)
(1.0001 0.00820204 0)
(1.00092 0.00864542 0)
(1.00141 0.00874283 0)
(1.00181 0.00873388 0)
(1.001 0.00871614 0)
(0.999283 0.00869863 0)
(0.999186 0.000194757 0)
(1.00093 0.000593439 0)
(1.0015 -0.00100683 0)
(0.999815 -0.00215612 0)
(0.997156 -0.00320432 0)
(0.996688 -0.0024063 0)
(0.995181 -0.00064632 0)
(0.994214 0.00144076 0)
(0.993661 0.00336647 0)
(0.995455 0.00460538 0)
(0.996409 0.00562557 0)
(0.997773 0.00693192 0)
(0.99875 0.00717283 0)
(0.999792 0.00781879 0)
(1.00032 0.00803867 0)
(1.00113 0.00838592 0)
(1.00154 0.00852384 0)
(1.00191 0.00850689 0)
(1.00109 0.0085119 0)
(0.999384 0.0084643 0)
(0.999229 0.000200952 0)
(1.00092 0.000566132 0)
(1.00145 -0.00105534 0)
(0.999793 -0.00200956 0)
(0.997255 -0.00282867 0)
(0.996967 -0.0021512 0)
(0.995584 -0.000507173 0)
(0.994667 0.00156758 0)
(0.994077 0.00339186 0)
(0.995803 0.00457248 0)
(0.996806 0.00542922 0)
(0.99809 0.00671032 0)
(0.999003 0.00700809 0)
(1.00004 0.00757023 0)
(1.00054 0.00784991 0)
(1.00133 0.00813021 0)
(1.00168 0.00830709 0)
(1.00201 0.00829552 0)
(1.00119 0.00830896 0)
(0.999482 0.00824667 0)
(0.999271 0.000196879 0)
(1.0009 0.000559025 0)
(1.0014 -0.00110404 0)
(0.999792 -0.00184805 0)