/*--------------------------------*- C++ -*----------------------------------*\
| =========                 |                                                 |
| \\      /  F ield         | OpenFOAM: The Open Source CFD Toolbox           |
|  \\    /   O peration     | Version:  v2012                                 |
|   \\  /    A nd           | Website:  www.openfoam.com                      |
|    \\/     M anipulation  |                                                 |
\*---------------------------------------------------------------------------*/
FoamFile
{
    version     2.0;
    format      ascii;
    class       volScalarField;
    location    "4.9";
    object      p;
}
// * * * * * * * * * * * * * * * * * * * * * * * * * * * * * * * * * * * * * //

dimensions      [0 2 -2 0 0 0 0];


internalField   nonuniform List<scalar> 
7000
(
6.16393e-10
0.00134262
0.000409918
0.00156592
0.00180194
0.00147383
6.62581e-05
0.00569084
0.00953277
0.0129055
0.0161113
0.0166729
0.0173026
0.0194305
0.0213206
0.0240347
0.0268614
0.0315186
0.035957
0.0435956
-2.19539e-06
0.00134027
0.000411875
0.00157482
0.00180326
0.00147454
7.95201e-05
0.00569637
0.00951795
0.0129078
0.0160179
0.0166682
0.0172958
0.0194208
0.0213216
0.0240056
0.0268726
0.0314552
0.0359858
0.0432799
-5.09995e-06
0.00133776
0.00041491
0.00158475
0.00180421
0.00147346
0.00010207
0.00569436
0.0094949
0.0129099
0.0159197
0.0166642
0.0172884
0.0194099
0.0213172
0.0239691
0.026873
0.031372
0.0359909
0.0427495
-7.76402e-06
0.00133625
0.000418247
0.0015936
0.00180494
0.00146981
0.00012322
0.00568934
0.00947123
0.012911
0.0158232
0.0166579
0.0172844
0.0193935
0.0213142
0.023922
0.0268686
0.0312762
0.0359452
0.0421945
-1.02139e-05
0.00133552
0.000421775
0.00160174
0.00180556
0.00146328
0.000143118
0.00568543
0.00944733
0.01291
0.0157285
0.0166484
0.0172846
0.0193724
0.0213128
0.0238656
0.0268649
0.0311639
0.0358611
0.0416579
-1.26197e-05
0.00133552
0.000425619
0.0016093
0.00180593
0.00145483
0.000164155
0.00568145
0.00942228
0.0129068
0.015636
0.0166357
0.0172887
0.0193456
0.0213125
0.0238012
0.0268596
0.0310365
0.0357465
0.0411405
-1.50957e-05
0.00133646
0.000429997
0.00161625
0.00180606
0.00144563
0.000186657
0.00567587
0.00939617
0.0129016
0.0155457
0.0166191
0.0172957
0.0193126
0.0213132
0.0237286
0.02685
0.0308968
0.0356022
0.0406338
-1.77198e-05
0.00133871
0.000435178
0.00162256
0.00180619
0.00143632
0.000210593
0.0056687
0.00936947
0.0128939
0.0154572
0.0165976
0.0173045
0.0192732
0.0213142
0.0236482
0.026834
0.0307469
0.0354265
0.0401316
-2.05316e-05
0.00134258
0.000441388
0.00162825
0.0018067
0.00142725
0.00023698
0.0056604
0.00934217
0.0128831
0.0153701
0.0165697
0.017314
0.0192269
0.0213147
0.0235612
0.0268089
0.0305879
0.0352182
0.0396295
-2.35225e-05
0.00134827
0.000448697
0.00163337
0.00180796
0.00141891
0.000267553
0.0056512
0.00931397
0.0128679
0.015284
0.0165343
0.0173233
0.0191739
0.0213135
0.0234689
0.0267719
0.0304206
0.0349773
0.0391238
-2.6652e-05
0.00135572
0.000457021
0.00163799
0.00181024
0.00141205
0.000304292
0.00564139
0.00928451
0.0128474
0.0151983
0.0164899
0.0173316
0.0191144
0.0213094
0.0233732
0.0267199
0.0302451
0.0347046
0.0386111
-2.98788e-05
0.00136467
0.000466213
0.00164216
0.00181351
0.00140761
0.000349186
0.00563169
0.0092534
0.0128201
0.0151128
0.0164359
0.0173382
0.0190492
0.0213006
0.0232755
0.0266503
0.0300611
0.0344015
0.0380883
-3.31857e-05
0.00137466
0.000476153
0.00164599
0.00181759
0.0014065
0.000403845
0.00562303
0.0092204
0.012785
0.0150271
0.0163714
0.0173423
0.0189794
0.0212849
0.0231773
0.0265609
0.0298675
0.0340699
0.0375528
-3.65849e-05
0.00138521
0.000486794
0.00164962
0.00182228
0.00140949
0.000469056
0.00561624
0.00918553
0.0127413
0.0149414
0.0162966
0.0173428
0.0189065
0.0212601
0.023079
0.0264505
0.029663
0.0337121
0.0370033
-4.01095e-05
0.00139587
0.000498166
0.00165318
0.00182752
0.00141695
0.000544598
0.00561174
0.00914913
0.0126884
0.0148557
0.0162118
0.0173387
0.0188319
0.0212241
0.0229807
0.0263184
0.0294457
0.0333304
0.036439
-4.37955e-05
0.00140631
0.000510354
0.00165681
0.00183337
0.00142882
0.00062935
0.00560934
0.00911176
0.0126265
0.0147702
0.0161177
0.0173282
0.018757
0.0211751
0.0228817
0.0261651
0.0292136
0.0329266
0.0358601
-4.76638e-05
0.00141629
0.000523469
0.00166054
0.00183999
0.0014446
0.000721651
0.00560836
0.00907414
0.0125557
0.0146852
0.0160155
0.0173094
0.018683
0.0211116
0.0227803
0.0259914
0.0289652
0.032502
0.0352669
-5.1712e-05
0.00142572
0.000537605
0.00166438
0.00184754
0.00146351
0.000819784
0.00560776
0.00903688
0.0124765
0.0146006
0.0159066
0.0172804
0.0186107
0.0210333
0.022674
0.025798
0.0286996
0.0320587
0.0346599
-5.59155e-05
0.00143459
0.000552826
0.0016683
0.00185616
0.00148465
0.000922364
0.00560645
0.0090004
0.0123896
0.0145157
0.0157931
0.0172391
0.0185398
0.0209406
0.0225607
0.0255849
0.0284149
0.0315985
0.0340405
-6.02312e-05
0.00144293
0.000569164
0.00167221
0.00186595
0.00150718
0.00102845
0.00560344
0.00896487
0.0122956
0.0144298
0.0156769
0.0171842
0.0184697
0.0208336
0.022439
0.0253539
0.028109
0.0311212
0.03341
-6.46033e-05
0.0014508
0.000586636
0.00167601
0.00187698
0.00153032
0.00113747
0.00559801
0.00893016
0.0121954
0.0143416
0.0155595
0.0171148
0.0183995
0.0207122
0.0223057
0.0251081
0.0277827
0.0306262
0.0327683
-6.89706e-05
0.00145822
0.000605253
0.00167958
0.0018893
0.00155351
0.00124906
0.00558969
0.00889594
0.0120899
0.0142498
0.0154427
0.0170301
0.0183282
0.0205785
0.022156
0.0248464
0.0274394
0.0301156
0.0321154
-7.32709e-05
0.0014652
0.000625031
0.00168282
0.00190297
0.00157627
0.00136293
0.00557827
0.00886169
0.0119803
0.0141528
0.0153279
0.01693
0.0182527
0.0204357
0.0219893
0.0245653
0.0270783
0.029593
0.0314527
-7.74425e-05
0.00147169
0.000646003
0.00168563
0.00191806
0.00159827
0.00147879
0.00556376
0.00882663
0.0118679
0.0140493
0.0152159
0.0168156
0.018169
0.0202838
0.0218084
0.0242655
0.0266957
0.0290586
0.0307828
-8.14232e-05
0.0014776
0.000668214
0.00168792
0.00193464
0.00161921
0.00159626
0.00554651
0.00878963
0.0117542
0.0139383
0.0151066
0.0166887
0.0180751
0.0201208
0.0216119
0.0239509
0.026292
0.0285101
0.0301068
-8.51529e-05
0.00148283
0.00069171
0.0016896
0.00195276
0.00163899
0.00171472
0.00552728
0.00874953
0.0116402
0.013819
0.0150002
0.0165502
0.0179689
0.0199482
0.0213972
0.0236216
0.0258708
0.0279487
0.0294246
-8.85731e-05
0.00148725
0.000716572
0.0016906
0.00197251
0.0016576
0.00183347
0.00550681
0.00870515
0.0115267
0.0136909
0.0148952
0.0164028
0.0178462
0.0197657
0.0211647
0.0232759
0.0254348
0.0273775
0.0287366
-9.1613e-05
0.00149069
0.000742924
0.00169082
0.00199392
0.00167494
0.00195195
0.00548593
0.00865517
0.011414
0.0135554
0.0147874
0.0162481
0.0177064
0.0195719
0.0209144
0.0229088
0.0249847
0.0268018
0.0280451
-9.42032e-05
0.00149298
0.000770828
0.00169026
0.00201694
0.00169123
0.00206909
0.00546567
0.00859913
0.0113021
0.0134114
0.0146793
0.016087
0.0175462
0.0193664
0.0206529
0.0225191
0.0245121
0.0262182
0.0273571
-9.62752e-05
0.00149398
0.000800339
0.00168897
0.00204138
0.00170711
0.0021833
0.00544695
0.00853637
0.0111922
0.0132575
0.014575
0.0159237
0.017366
0.0191413
0.0203802
0.0221168
0.0240161
0.0256306
0.0266707
-9.77068e-05
0.00149349
0.000831557
0.00168689
0.00206719
0.0017228
0.00229369
0.00543116
0.00846566
0.0110825
0.0130995
0.0144553
0.0157553
0.0171725
0.0188981
0.0200842
0.0216997
0.0235095
0.0250461
0.0259804
-9.84857e-05
0.00149138
0.000864458
0.00168418
0.00209398
0.00173916
0.00239905
0.00541856
0.00838763
0.010971
0.0129388
0.0143249
0.0155835
0.0169561
0.0186417
0.0197775
0.0212595
0.0229788
0.0244373
0.0252993
-9.8503e-05
0.00148744
0.000899213
0.00168069
0.00212146
0.00175663
0.00249885
0.00540832
0.0083034
0.0108579
0.0127757
0.0141805
0.0154125
0.0167196
0.018361
0.0194652
0.0208078
0.0224133
0.0238308
0.0246338
-9.73848e-05
0.00148132
0.000935809
0.00167657
0.00214934
0.00177552
0.00259273
0.00540116
0.00821199
0.0107403
0.0126166
0.0140088
0.0152282
0.0164807
0.0180605
0.0191286
0.0203498
0.0218371
0.023155
0.0239703
-9.54291e-05
0.00147333
0.000973678
0.00167285
0.00217593
0.00179861
0.00267748
0.00539713
0.00811383
0.0106198
0.0124514
0.0138499
0.0150304
0.0162207
0.017744
0.0187659
0.0198696
0.0212513
0.0225236
0.0233082
-9.25132e-05
0.00146304
0.00101331
0.00166898
0.00220172
0.00182515
0.00275289
0.0053951
0.00801265
0.010493
0.0122835
0.0136815
0.0148283
0.0159348
0.0173988
0.0183923
0.0193736
0.0206425
0.0219423
0.022656
-8.77458e-05
0.00144966
0.00105469
0.00166492
0.00222678
0.00185359
0.00282326
0.00539294
0.00790995
0.0103553
0.0121246
0.0134754
0.0146098
0.0156501
0.0170281
0.0179893
0.0188839
0.0200302
0.0212143
0.0220039
-8.19303e-05
0.0014343
0.00109637
0.00166308
0.00224745
0.00188924
0.00288074
0.00539079
0.00780541
0.0102125
0.0119513
0.013292
0.0143753
0.0153395
0.016644
0.0175659
0.0183761
0.0194197
0.0205531
0.0213453
-7.49219e-05
0.00141634
0.00113914
0.00166281
0.00226465
0.00192936
0.00292735
0.00538793
0.00770087
0.0100612
0.0117718
0.0130935
0.0141324
0.014998
0.0162336
0.0171295
0.0178624
0.0188049
0.0199696
0.0206805
-6.53517e-05
0.00139436
0.00118311
0.00166374
0.00227955
0.00196919
0.00297682
0.00537843
0.00760133
0.00989612
0.0115966
0.0128489
0.0138761
0.0146673
0.0157974
0.0166647
0.0173595
0.0181725
0.019143
0.0200151
-5.46876e-05
0.00137083
0.00122541
0.00166944
0.00228791
0.00201628
0.00301185
0.00536395
0.00750364
0.00972958
0.0113989
0.0126602
0.0136017
0.0143008
0.0153472
0.0161845
0.0168135
0.0175445
0.0184577
0.0193529
-4.23471e-05
0.00134475
0.00126692
0.00167878
0.00229171
0.00206639
0.0030366
0.00534561
0.00740299
0.00956288
0.0111918
0.0124003
0.0133046
0.0139215
0.0148736
0.0156804
0.016238
0.0169393
0.0179366
0.0186874
-2.68157e-05
0.00131399
0.00130784
0.00169082
0.00229389
0.00211138
0.00307303
0.00531591
0.00730716
0.00938427
0.0109859
0.0121383
0.0130285
0.0135455
0.0143803
0.0151457
0.0156665
0.0162505
0.0170436
0.0180404
-1.04933e-05
0.00128325
0.00134396
0.00170915
0.00229058
0.00215901
0.00309988
0.00527436
0.00721176
0.00920219
0.0107486
0.0118882
0.012733
0.0131468
0.0138767
0.0146046
0.0150658
0.0155456
0.016303
0.0174198
8.57836e-06
0.00124992
0.00137657
0.0017313
0.00228563
0.00220434
0.00312176
0.00522931
0.00710744
0.00901361
0.0105011
0.0116174
0.0124113
0.0127577
0.0133646
0.0140319
0.0144356
0.0148828
0.0156792
0.0167785
3.05985e-05
0.00121331
0.001405
0.00175674
0.0022808
0.00224383
0.00314553
0.00517625
0.00699734
0.00881663
0.0102471
0.0113072
0.0120901
0.0123769
0.0128285
0.0134399
0.013833
0.0142474
0.0149614
0.0161334
4.64734e-05
0.00117885
0.00142625
0.00178681
0.00227539
0.00228013
0.00316201
0.0051123
0.00688219
0.00861591
0.00997261
0.0109986
0.0117631
0.0119698
0.0122885
0.0128552
0.0132189
0.013596
0.0143195
0.0155053
7.45234e-05
0.00112624
0.00144182
0.00181784
0.00227386
0.00230863
0.00317528
0.00504586
0.00675662
0.00840318
0.00969608
0.0106761
0.0114023
0.0115712
0.0117667
0.0122399
0.012593
0.0129793
0.0136784
0.0148705
0.000102965
0.001089
0.0014503
0.00185037
0.00227421
0.00233307
0.00318289
0.00496645
0.00662087
0.0081916
0.00941082
0.0103282
0.0110319
0.0111812
0.011234
0.0116091
0.011984
0.0123657
0.013034
0.0142399
0.000133674
0.00105201
0.00145142
0.0018825
0.00227871
0.00235327
0.00317923
0.00487935
0.0064799
0.00797346
0.00911035
0.00998143
0.0106547
0.0107713
0.0107025
0.0109919
0.0113621
0.0117259
0.0124157
0.013646
0.000167421
0.00101404
0.00144614
0.00191232
0.00228731
0.00236719
0.0031715
0.00478674
0.00632519
0.00774549
0.00881556
0.00961469
0.0102471
0.0103454
0.0101901
0.0103743
0.0107172
0.0110996
0.0118073
0.0130604
0.000202735
0.000977909
0.00143368
0.00193926
0.00229709
0.00238015
0.00315457
0.00467967
0.00616005
0.00751861
0.00851329
0.0092324
0.00982262
0.00991364
0.00968636
0.00975576
0.010069
0.0104748
0.011206
0.0124719
0.00024066
0.000942612
0.00141452
0.0019608
0.00231028
0.00239042
0.00312758
0.00456705
0.00598649
0.00727918
0.00820251
0.00885089
0.00939059
0.00947114
0.00918284
0.00913661
0.00941364
0.00984869
0.0106008
0.0118946
0.000280385
0.000908948
0.00138865
0.00197749
0.00232324
0.00239748
0.00309566
0.00444477
0.0057971
0.00703293
0.00789414
0.00846179
0.00894202
0.00900876
0.00867177
0.00852877
0.00876872
0.00922589
0.0100004
0.0113124
0.000321793
0.000877235
0.00135689
0.00198695
0.00233546
0.00240341
0.00305364
0.00431366
0.00560035
0.00677787
0.00757781
0.00806423
0.00848075
0.00853527
0.00816691
0.00794054
0.00812376
0.00858217
0.00938032
0.0107393
0.000364738
0.000848026
0.00131923
0.00198885
0.00234571
0.00240564
0.00300536
0.0041765
0.00539224
0.00650906
0.00725785
0.00766619
0.00800882
0.00805168
0.00766125
0.00735688
0.0074714
0.00793125
0.0087825
0.0101792
0.000408359
0.000822226
0.00127682
0.00198202
0.00235217
0.00240454
0.00295003
0.00403092
0.00517467
0.00623069
0.00693335
0.00726432
0.0075237
0.0075542
0.00715331
0.00678045
0.00682805
0.00728727
0.00817137
0.00961109
0.000451868
0.000800306
0.00123045
0.00196588
0.00235221
0.00239908
0.00288969
0.00387819
0.00494972
0.00594102
0.00659849
0.00686263
0.00703142
0.00704345
0.00664082
0.0062136
0.00619722
0.00663744
0.00755403
0.00904419
0.000495183
0.000782462
0.00118157
0.00193964
0.00234472
0.00238616
0.00283116
0.00372041
0.00471794
0.00563976
0.00625282
0.00642763
0.00653469
0.00651689
0.00612174
0.00565753
0.00557858
0.00598975
0.00692753
0.00847396
0.000538042
0.000769248
0.00113156
0.0019023
0.00233035
0.00236405
0.00274432
0.00355915
0.00448297
0.00533044
0.00589688
0.00603038
0.00603838
0.00597804
0.0055963
0.00510914
0.00497242
0.00534865
0.00629858
0.00789813
0.00057893
0.00076114
0.00108056
0.0018556
0.00230433
0.00232826
0.00266138
0.00339455
0.00424335
0.00501501
0.00552885
0.00562954
0.00554607
0.00543001
0.00506149
0.00456426
0.00437884
0.00471808
0.00567061
0.00732125
0.000617403
0.000758169
0.00103092
0.00179648
0.00226407
0.00228727
0.00257711
0.00322333
0.00399627
0.00469392
0.00514868
0.00522165
0.00505969
0.00487719
0.00451465
0.0040189
0.00379735
0.00410253
0.00505214
0.00674282
0.000653211
0.000760594
0.000982563
0.00172296
0.00221241
0.00224274
0.00248559
0.00304297
0.00374082
0.00436998
0.00475853
0.00480357
0.00457824
0.00432397
0.00395561
0.00347085
0.00322674
0.00350108
0.00444198
0.00616537
0.000686019
0.000766552
0.000934932
0.00163859
0.00214949
0.00219111
0.00238705
0.00285613
0.00347734
0.00404165
0.00436036
0.00437433
0.0040995
0.00377337
0.00338982
0.0029182
0.00266105
0.00291079
0.0038462
0.00559728
0.000715296
0.000774718
0.000890227
0.00154578
0.00207266
0.00213042
0.00228276
0.00266369
0.00320329
0.00370869
0.00395836
0.00393254
0.00362225
0.00323053
0.00282224
0.00236114
0.00209976
0.00233338
0.00326619
0.00503794
0.000740925
0.000783799
0.000849075
0.00144553
0.00198102
0.00205987
0.00217261
0.00246638
0.0029183
0.00336958
0.00355464
0.00347944
0.00314515
0.00269761
0.00225757
0.0018011
0.00154129
0.00176462
0.00269547
0.00448592
0.000762767
0.000792149
0.00081121
0.00134011
0.00187534
0.00197783
0.00205531
0.00226506
0.00262286
0.00302076
0.00315194
0.00302061
0.00266317
0.00217165
0.00169858
0.00123942
0.000982241
0.00119968
0.00213178
0.00394149
0.000780592
0.000799067
0.000776356
0.0012313
0.00175618
0.00188261
0.00192944
0.0020602
0.00231966
0.00266069
0.0027508
0.00256008
0.00217441
0.00164884
0.00113397
0.000679855
0.000425579
0.00063809
0.00157475
0.00340197
0.0007943
0.000803823
0.000743914
0.00112038
0.00162438
0.00177287
0.00179391
0.00185281
0.00201181
0.00228775
0.00234797
0.00210065
0.00167989
0.00112852
0.000586645
0.000127272
-0.000118249
0.000107787
0.00103623
0.00288043
0.00080383
0.000805511
0.000713118
0.0010086
0.00148108
0.00164812
0.00164756
0.00164228
0.00170183
0.00190158
0.00193916
0.00164476
0.00118241
0.000610091
4.42168e-05
-0.000420761
-0.000664783
-0.000442832
0.000490554
0.00234797
0.00080918
0.000803447
0.000683021
0.000897116
0.00132741
0.00150785
0.00148951
0.00142707
0.00139209
0.0015047
0.00152095
0.00119342
0.000685999
9.26584e-05
-0.000493886
-0.000965149
-0.00120737
-0.000986177
-5.02033e-05
0.00181968
0.000810278
0.000797162
0.000652736
0.000786666
0.00116464
0.00135165
0.00131876
0.00120583
0.00108465
0.00110101
0.00109041
0.000745394
0.000194143
-0.000424122
-0.00102884
-0.00150611
-0.00174518
-0.00152264
-0.000583305
0.00129758
0.000807161
0.000786076
0.000621237
0.000677578
0.000994279
0.00118012
0.00113476
0.000977048
0.000780337
0.000695116
0.000646102
0.000295944
-0.000291785
-0.000938162
-0.00156
-0.00204361
-0.00227796
-0.00205194
-0.00110856
0.000781211
0.000799879
0.000769881
0.000587432
0.000569989
0.00081778
0.000993943
0.000937256
0.00073923
0.00047809
0.000291606
0.000189989
-0.000158964
-0.000771126
-0.00144742
-0.00208714
-0.00257737
-0.00280642
-0.00257513
-0.00162724
0.0002701
0.000788409
0.000748338
0.000550331
0.000463844
0.000636662
0.000793958
0.000726162
0.000491415
0.000176167
-0.000106108
-0.000274152
-0.000622284
-0.0012459
-0.00195066
-0.00260962
-0.00310715
-0.00333114
-0.0030929
-0.00213955
-0.000235838
0.000772838
0.000721371
0.000508875
0.000358723
0.000452344
0.000581294
0.000501949
0.000233141
-0.000127637
-0.0004956
-0.000741765
-0.0010967
-0.00171976
-0.0024458
-0.00312526
-0.00363253
-0.00385287
-0.0036066
-0.00264672
-0.00073714
0.000753182
0.000688943
0.000462118
0.000254171
0.000266226
0.000357178
0.000265139
-3.56551e-05
-0.000435704
-0.000876533
-0.00120768
-0.00158109
-0.00219613
-0.00293354
-0.00363272
-0.00415291
-0.00437227
-0.00411821
-0.00315027
-0.00123338
0.000729503
0.000650745
0.000409223
0.000149414
7.95366e-05
0.000123215
1.6271e-05
-0.000314548
-0.000749774
-0.00124989
-0.00166714
-0.00207217
-0.00267819
-0.00341707
-0.00413158
-0.00466666
-0.00488828
-0.00462726
-0.0036506
-0.00172588
0.000701745
0.000607203
0.000349808
4.36512e-05
-0.000106692
-0.000118874
-0.000244304
-0.00060275
-0.00107121
-0.00161766
-0.00211635
-0.00256573
-0.00316735
-0.00389992
-0.00462222
-0.00517154
-0.00539958
-0.00513466
-0.00414913
-0.00221574
0.000669845
0.000558536
0.000283575
-6.39949e-05
-0.000291637
-0.000366889
-0.000515649
-0.000899057
-0.00140038
-0.00198304
-0.00255371
-0.00305696
-0.00366229
-0.00438501
-0.00510772
-0.00566834
-0.00590463
-0.00563926
-0.00464653
-0.00270388
0.000633855
0.000505135
0.000210444
-0.000174508
-0.000474915
-0.000618786
-0.000796751
-0.00120242
-0.00173665
-0.00234914
-0.00297975
-0.00354113
-0.00415999
-0.00487472
-0.00559167
-0.00615831
-0.00640236
-0.00613928
-0.00514187
-0.00319062
0.000593728
0.000447249
0.000130673
-0.000288634
-0.000656495
-0.000872231
-0.00108629
-0.0015124
-0.00207844
-0.00271784
-0.00339631
-0.00401561
-0.00465612
-0.00536781
-0.00607659
-0.00664419
-0.00689432
-0.00663504
-0.0056353
-0.00367648
0.000549518
0.00038512
4.47656e-05
-0.000406978
-0.000836662
-0.0011256
-0.00138229
-0.00182883
-0.00242424
-0.00308995
-0.00380627
-0.0044797
-0.0051473
-0.00586078
-0.00656195
-0.00712727
-0.00738146
-0.0071264
-0.00612679
-0.00416279
0.000501311
0.000319188
-4.69245e-05
-0.000528366
-0.00101538
-0.00137715
-0.00168235
-0.00215068
-0.00277248
-0.00346495
-0.00421222
-0.00493414
-0.00563311
-0.00635346
-0.00704879
-0.00760939
-0.00786465
-0.00761285
-0.00661495
-0.00464822
0.000449025
0.000250116
-0.000143517
-0.000656172
-0.00119321
-0.00162569
-0.00198425
-0.00247743
-0.00312179
-0.0038403
-0.00461428
-0.00537793
-0.00611034
-0.00684348
-0.00753822
-0.0080943
-0.0083482
-0.00809771
-0.00710152
-0.00513346
0.000392628
0.000178174
-0.000243993
-0.000788059
-0.00136981
-0.00187019
-0.00228557
-0.00280825
-0.00347369
-0.00421581
-0.00501366
-0.00581265
-0.0065775
-0.00732561
-0.00802417
-0.00857959
-0.00883384
-0.00858438
-0.00758891
-0.00562019
0.000332535
0.000103696
-0.000346913
-0.000923043
-0.00154639
-0.00211057
-0.00258338
-0.00313906
-0.00382673
-0.0045903
-0.00541051
-0.00624129
-0.00703745
-0.00780184
-0.00850593
-0.00906311
-0.00932029
-0.00907299
-0.00807872
-0.00610981
0.000268818
2.63333e-05
-0.00044985
-0.00105854
-0.00172066
-0.00234627
-0.00287775
-0.0034687
-0.00417862
-0.00496043
-0.00580141
-0.00666135
-0.00748887
-0.00827368
-0.00898696
-0.00954691
-0.00980698
-0.00956392
-0.00857301
-0.00660449
0.000202157
-5.10476e-05
-0.000568568
-0.00119786
-0.00189406
-0.00257585
-0.00316634
-0.00379583
-0.00453046
-0.00532828
-0.00618435
-0.00706867
-0.00792739
-0.0087368
-0.009463
-0.010029
-0.0102937
-0.0100558
-0.00907067
-0.00710762
0.000131629
-0.000129813
-0.000653383
-0.00132874
-0.00206469
-0.00280288
-0.00345042
-0.0041153
-0.00487759
-0.00569525
-0.00656254
-0.00746562
-0.00835321
-0.00919047
-0.00993527
-0.0105127
-0.0107874
-0.010559
-0.00958009
-0.00761791
5.88537e-05
-0.000214909
-0.000767299
-0.00145394
-0.00222384
-0.00301949
-0.00372881
-0.00442878
-0.00520912
-0.00604708
-0.00692843
-0.00784726
-0.00875941
-0.00962352
-0.0103906
-0.0109852
-0.0112758
-0.0110661
-0.0101096
-0.00816838
-1.46773e-05
-0.000275616
-0.000847806
-0.00158899
-0.00240053
-0.00324104
-0.00400416
-0.00473966
-0.00553726
-0.00639022
-0.0072835
-0.00821481
-0.00914859
-0.0100373
-0.0108249
-0.011432
-0.0117315
-0.0115363
-0.0105989
-0.00868544
-0.000133962
-0.000371938
-0.000889353
-0.00165547
-0.0025549
-0.00345671
-0.0042693
-0.00502815
-0.00585203
-0.00672817
-0.00763133
-0.00857902
-0.00954231
-0.0104668
-0.011299
-0.0119377
-0.0122534
-0.0120554
-0.011108
-0.00918225
-0.000132042
-0.000420468
-0.00104587
-0.00184325
-0.00271521
-0.00364334
-0.00451626
-0.00530138
-0.00609882
-0.00696808
-0.00788976
-0.0088431
-0.00981001
-0.0107565
-0.0116456
-0.0123925
-0.0128382
-0.0127765
-0.0119582
-0.0101463
-0.000267495
-0.00049965
-0.00112025
-0.00186359
-0.00276765
-0.00382005
-0.00482631
-0.00567428
-0.00650255
-0.00735711
-0.00828564
-0.00921995
-0.0101564
-0.0110203
-0.0117467
-0.0122826
-0.0125599
-0.0124104
-0.0115971
-0.00986678
-0.000206929
-0.000583185
-0.00121129
-0.00206101
-0.00301072
-0.00397788
-0.00484565
-0.00562303
-0.00644779
-0.00738414
-0.00837708
-0.00940895
-0.0104761
-0.011617
-0.012769
-0.0137851
-0.0145353
-0.0146942
-0.0140773
-0.0124402
-3.12639e-05
-0.000746827
-0.00148395
-0.00233898
-0.00324124
-0.00430452
-0.00528966
-0.00608834
-0.00694505
-0.00792846
-0.00890955
-0.00978084
-0.0104184
-0.0106796
-0.0105391
-0.010097
-0.00949284
-0.00910228
-0.00922173
-0.0101943
-9.85057e-05
-0.000739656
-0.00149629
-0.00233819
-0.00311135
-0.00391375
-0.00475745
-0.00563626
-0.00653819
-0.00759716
-0.00880373
-0.0101186
-0.0114856
-0.0129053
-0.014299
-0.0155665
-0.0165308
-0.0169845
-0.0166502
-0.0152866
2.69121e-05
-0.00082666
-0.00164191
-0.00248976
-0.00328406
-0.00425508
-0.00527972
-0.0064219
-0.007522
-0.00840728
-0.00924517
-0.0101777
-0.0110625
-0.0117198
-0.0120154
-0.0119425
-0.0116348
-0.0113833
-0.0115706
-0.0125569
2.29558e-06
-0.000871738
-0.00166955
-0.00243566
-0.00304218
-0.00371481
-0.00444211
-0.00533328
-0.00636147
-0.00762608
-0.00916743
-0.0110377
-0.0131218
-0.0152494
-0.0172261
-0.0188812
-0.020021
-0.0204617
-0.0199893
-0.018416
0.0559684
0.0225885
0.00951786
0.00611546
0.00279912
-0.00154577
-0.00476449
-0.00609632
-0.00688932
-0.00835634
-0.0103645
-0.0124722
-0.0147407
-0.0169554
-0.0187135
-0.0203126
-0.02211
-0.0239549
-0.0258375
-0.0278399
-0.0298709
-0.0318993
-0.0340217
-0.0362086
-0.0384295
-0.0406879
-0.0429869
-0.0454395
-0.0480203
-0.050653
-0.0533239
-0.0560917
-0.0589843
-0.0620578
-0.0651923
-0.0684441
-0.0718245
-0.0753135
-0.0789542
-0.0826652
-0.0865967
-0.0905701
-0.0947906
-0.0990878
-0.103573
-0.108288
-0.113092
-0.118276
-0.123384
-0.128794
0.0546986
0.0226354
0.00956076
0.00613517
0.00281131
-0.00153776
-0.00475917
-0.00609222
-0.00688571
-0.00835327
-0.010362
-0.0124701
-0.0147389
-0.016954
-0.0187124
-0.0203116
-0.0221091
-0.0239542
-0.0258368
-0.0278393
-0.0298704
-0.0318987
-0.0340212
-0.0362081
-0.0384291
-0.0406875
-0.0429865
-0.0454392
-0.04802
-0.0506527
-0.0533237
-0.0560915
-0.058984
-0.0620576
-0.0651921
-0.0684439
-0.0718243
-0.0753133
-0.0789541
-0.0826651
-0.0865966
-0.09057
-0.0947905
-0.0990877
-0.103572
-0.108288
-0.113092
-0.118276
-0.123384
-0.128794
0.0537098
0.0227489
0.0096302
0.00615774
0.00282326
-0.00153043
-0.00475456
-0.00608845
-0.00688216
-0.0083503
-0.0103597
-0.0124682
-0.0147373
-0.0169528
-0.0187114
-0.0203106
-0.0221083
-0.0239535
-0.0258362
-0.0278388
-0.0298699
-0.0318983
-0.0340208
-0.0362077
-0.0384288
-0.0406872
-0.0429862
-0.0454389
-0.0480198
-0.0506525
-0.0533234
-0.0560913
-0.0589839
-0.0620574
-0.065192
-0.0684437
-0.0718242
-0.0753132
-0.078954
-0.082665
-0.0865965
-0.0905699
-0.0947904
-0.0990877
-0.103572
-0.108287
-0.113092
-0.118276
-0.123384
-0.128794
0.0527925
0.0228846
0.00972593
0.00618701
0.00283714
-0.00152224
-0.00474935
-0.00608411
-0.00687807
-0.008347
-0.0103573
-0.0124661
-0.0147356
-0.0169517
-0.0187104
-0.0203096
-0.0221074
-0.0239528
-0.0258356
-0.0278382
-0.0298695
-0.0318979
-0.0340204
-0.0362074
-0.0384284
-0.0406869
-0.0429859
-0.0454386
-0.0480195
-0.0506522
-0.0533232
-0.056091
-0.0589837
-0.0620572
-0.0651918
-0.0684436
-0.0718241
-0.0753131
-0.0789538
-0.0826649
-0.0865964
-0.0905698
-0.0947903
-0.0990876
-0.103572
-0.108287
-0.113091
-0.118276
-0.123384
-0.128794
0.0518531
0.0230197
0.00983845
0.00622192
0.00285341
-0.00151227
-0.00474259
-0.00607849
-0.00687297
-0.00834298
-0.0103544
-0.0124637
-0.0147337
-0.0169502
-0.0187092
-0.0203084
-0.0221064
-0.023952
-0.0258349
-0.0278376
-0.029869
-0.0318974
-0.03402
-0.036207
-0.0384281
-0.0406865
-0.0429856
-0.0454383
-0.0480192
-0.050652
-0.053323
-0.0560908
-0.0589834
-0.062057
-0.0651916
-0.0684434
-0.0718239
-0.0753129
-0.0789537
-0.0826648
-0.0865963
-0.0905697
-0.0947903
-0.0990875
-0.103572
-0.108287
-0.113091
-0.118276
-0.123384
-0.128794
0.0508879
0.0231503
0.00995926
0.00625867
0.00287065
-0.00150106
-0.00473435
-0.00607143
-0.00686666
-0.00833802
-0.0103507
-0.0124607
-0.0147312
-0.0169484
-0.0187076
-0.0203069
-0.0221052
-0.023951
-0.0258341
-0.027837
-0.0298684
-0.0318969
-0.0340195
-0.0362066
-0.0384277
-0.0406862
-0.0429852
-0.045438
-0.048019
-0.0506517
-0.0533227
-0.0560906
-0.0589832
-0.0620568
-0.0651915
-0.0684433
-0.0718238
-0.0753128
-0.0789536
-0.0826647
-0.0865962
-0.0905696
-0.0947902
-0.0990874
-0.103572
-0.108287
-0.113091
-0.118276
-0.123384
-0.128794
0.0499048
0.0232746
0.010084
0.00629473
0.00288735
-0.00148974
-0.00472543
-0.00606326
-0.00685916
-0.00833199
-0.0103462
-0.0124569
-0.014728
-0.0169461
-0.0187056
-0.020305
-0.0221036
-0.0239498
-0.0258331
-0.0278362
-0.0298678
-0.0318963
-0.034019
-0.0362061
-0.0384273
-0.0406858
-0.0429848
-0.0454376
-0.0480187
-0.0506514
-0.0533224
-0.0560903
-0.0589829
-0.0620566
-0.0651913
-0.0684431
-0.0718236
-0.0753127
-0.0789535
-0.0826645
-0.0865961
-0.0905695
-0.0947901
-0.0990873
-0.103572
-0.108287
-0.113091
-0.118276
-0.123384
-0.128795
0.0489086
0.0233906
0.0102112
0.00632921
0.00290264
-0.00147922
-0.00471682
-0.00605459
-0.00685066
-0.00832488
-0.0103406
-0.0124522
-0.0147242
-0.0169431
-0.018703
-0.0203026
-0.0221017
-0.0239483
-0.025832
-0.0278352
-0.0298669
-0.0318956
-0.0340185
-0.0362056
-0.0384268
-0.0406854
-0.0429844
-0.0454372
-0.0480184
-0.0506512
-0.0533222
-0.05609
-0.0589827
-0.0620564
-0.0651911
-0.0684429
-0.0718234
-0.0753125
-0.0789533
-0.0826644
-0.0865959
-0.0905694
-0.0947899
-0.0990872
-0.103572
-0.108287
-0.113091
-0.118276
-0.123384
-0.128795
0.0479016
0.0234964
0.0103409
0.00636185
0.00291583
-0.00147012
-0.00470925
-0.00604602
-0.00684146
-0.00831683
-0.0103341
-0.0124468
-0.0147198
-0.0169397
-0.0186999
-0.0202997
-0.0220992
-0.0239465
-0.0258306
-0.0278341
-0.029866
-0.0318948
-0.0340178
-0.0362051
-0.0384263
-0.0406849
-0.0429839
-0.0454368
-0.048018
-0.0506509
-0.0533219
-0.0560897
-0.0589824
-0.0620561
-0.0651908
-0.0684426
-0.0718232
-0.0753123
-0.0789532
-0.0826643
-0.0865958
-0.0905693
-0.0947898
-0.0990871
-0.103572
-0.108287
-0.113091
-0.118276
-0.123384
-0.128796
0.0468854
0.0235909
0.0104735
0.00639239
0.00292601
-0.00146308
-0.00470322
-0.00603808
-0.00683191
-0.00830809
-0.0103269
-0.0124406
-0.0147148
-0.0169358
-0.0186964
-0.0202963
-0.0220963
-0.0239443
-0.025829
-0.0278328
-0.0298648
-0.0318938
-0.034017
-0.0362044
-0.0384258
-0.0406845
-0.0429834
-0.0454362
-0.0480176
-0.0506505
-0.0533216
-0.0560894
-0.058982
-0.0620558
-0.0651905
-0.0684424
-0.071823
-0.0753121
-0.078953
-0.0826641
-0.0865957
-0.0905692
-0.0947897
-0.099087
-0.103572
-0.108287
-0.113091
-0.118275
-0.123384
-0.128796
0.0458623
0.0236731
0.0106089
0.00642047
0.00293222
-0.00145874
-0.00469917
-0.00603129
-0.00682247
-0.00829901
-0.0103192
-0.0124339
-0.0147095
-0.0169318
-0.0186927
-0.0202926
-0.022093
-0.0239418
-0.0258273
-0.0278314
-0.0298635
-0.0318926
-0.0340159
-0.0362036
-0.0384252
-0.040684
-0.0429828
-0.0454356
-0.0480172
-0.0506502
-0.0533213
-0.0560891
-0.0589817
-0.0620554
-0.0651902
-0.0684421
-0.0718227
-0.0753118
-0.0789528
-0.0826639
-0.0865955
-0.090569
-0.0947896
-0.0990869
-0.103572
-0.108287
-0.113091
-0.118275
-0.123384
-0.128797
0.0448347
0.0237417
0.0107468
0.00644564
0.00293373
-0.00145744
-0.00469729
-0.0060262
-0.00681378
-0.00829009
-0.0103114
-0.0124269
-0.014704
-0.0169278
-0.0186889
-0.0202886
-0.0220894
-0.023939
-0.0258254
-0.0278299
-0.029862
-0.0318912
-0.0340147
-0.0362025
-0.0384244
-0.0406835
-0.0429822
-0.0454349
-0.0480166
-0.0506497
-0.0533209
-0.0560888
-0.0589813
-0.0620551
-0.0651899
-0.0684417
-0.0718224
-0.0753116
-0.0789525
-0.0826637
-0.0865953
-0.0905689
-0.0947894
-0.0990867
-0.103571
-0.108287
-0.113091
-0.118275
-0.123384
-0.128798
0.0438054
0.0237956
0.0108868
0.00646757
0.00292963
-0.00145884
-0.00469726
-0.00602321
-0.00680662
-0.00828198
-0.0103039
-0.01242
-0.0146985
-0.0169239
-0.0186851
-0.0202845
-0.0220856
-0.023936
-0.0258234
-0.0278284
-0.0298606
-0.0318898
-0.0340132
-0.0362011
-0.0384234
-0.040683
-0.0429817
-0.0454342
-0.0480159
-0.0506492
-0.0533206
-0.0560885
-0.058981
-0.0620547
-0.0651895
-0.0684413
-0.071822
-0.0753112
-0.0789522
-0.0826634
-0.0865951
-0.0905687
-0.0947893
-0.0990866
-0.103571
-0.108286
-0.11309
-0.118275
-0.123384
-0.128799
0.0427771
0.0238339
0.0110287
0.00648626
0.00292141