/*--------------------------------*- C++ -*----------------------------------*\
| =========                 |                                                 |
| \\      /  F ield         | OpenFOAM: The Open Source CFD Toolbox           |
|  \\    /   O peration     | Version:  v2012                                 |
|   \\  /    A nd           | Website:  www.openfoam.com                      |
|    \\/     M anipulation  |                                                 |
\*---------------------------------------------------------------------------*/
FoamFile
{
    version     2.0;
    format      ascii;
    class       volScalarField;
    location    "5";
    object      p;
}
// * * * * * * * * * * * * * * * * * * * * * * * * * * * * * * * * * * * * * //

dimensions      [0 2 -2 0 0 0 0];


internalField   nonuniform List<scalar> 
7000
(
4.5622e-10
0.00473327
0.00117977
0.00126358
0.00453296
0.00198656
-0.000150956
0.00402464
0.000659667
0.00215996
0.00200244
0.00361817
0.00218127
0.00350306
0.00308477
0.00444553
0.0046684
0.00572983
0.00644149
0.00836575
9.76364e-06
0.00470081
0.00118481
0.0012836
0.00450645
0.00197397
-0.000124888
0.00401407
0.000674071
0.00215555
0.00199959
0.00360827
0.00219071
0.0034983
0.00309032
0.00443916
0.0046677
0.00571438
0.00644176
0.00825576
1.88451e-05
0.00466656
0.00119465
0.00130482
0.00446295
0.00196447
-0.000101206
0.00399602
0.000698649
0.00214462
0.00199889
0.00359292
0.00220842
0.0034822
0.00310442
0.00441791
0.00467286
0.00568149
0.00644003
0.00808774
2.65192e-05
0.00463541
0.00120733
0.00131877
0.00441997
0.00196107
-8.19315e-05
0.00397019
0.000728389
0.0021332
0.00200012
0.00357469
0.00222665
0.0034585
0.00312209
0.00439221
0.00468001
0.00564269
0.00642882
0.00790733
3.3968e-05
0.00460678
0.0012232
0.00132631
0.00438087
0.0019647
-6.34658e-05
0.00393518
0.000764657
0.00212155
0.00200043
0.00355329
0.00224525
0.00342927
0.00314267
0.00436477
0.00468776
0.0056005
0.00640674
0.00773667
4.22276e-05
0.00458164
0.00124258
0.00132859
0.00434669
0.0019756
-4.36869e-05
0.00389138
0.000808486
0.0021074
0.00199937
0.00352968
0.00226587
0.00339543
0.00316666
0.00433445
0.00469726
0.00555441
0.00637522
0.00758057
5.16715e-05
0.00456033
0.00126489
0.00132711
0.0043193
0.00199214
-2.17115e-05
0.00384101
0.000859159
0.00208979
0.00199852
0.00350486
0.00228881
0.00335778
0.00319353
0.00430077
0.00470861
0.00550415
0.00633506
0.00743496
6.25563e-05
0.0045422
0.00128924
0.00132415
0.00429919
0.00201149
2.57729e-06
0.00378666
0.000915433
0.00206926
0.00199918
0.00347873
0.00231383
0.00331692
0.00322255
0.00426388
0.00472003
0.00545049
0.00628566
0.00729534
7.49254e-05
0.00452617
0.00131483
0.00132175
0.0042849
0.00203109
2.89265e-05
0.00373033
0.000976383
0.00204677
0.00200174
0.00345074
0.00234094
0.00327305
0.00325335
0.00422384
0.00472943
0.00539502
0.006226
0.00715972
8.86818e-05
0.00451117
0.00134115
0.00132096
0.00427414
0.00204939
5.70491e-05
0.00367316
0.00104146
0.00202305
0.00200621
0.00342034
0.00237016
0.00322611
0.00328577
0.00418109
0.00473534
0.00533937
0.00615584
0.00702735
0.000103685
0.00449642
0.00136796
0.00132198
0.0042649
0.00206596
8.67999e-05
0.0036155
0.00111025
0.00199856
0.00201256
0.00338713
0.00240151
0.00317618
0.00331981
0.0041368
0.00473648
0.00528458
0.00607574
0.00689736
0.000119817
0.00448137
0.00139516
0.00132453
0.00425587
0.00208104
0.000118178
0.00355729
0.00118237
0.00197354
0.00202085
0.00335084
0.00243499
0.00312366
0.00335519
0.00409259
0.00473137
0.0052311
0.00598677
0.00676851
0.000137005
0.00446568
0.00142277
0.00132819
0.00424635
0.0020951
0.000151244
0.00349833
0.00125746
0.0019481
0.00203117
0.00331144
0.00247057
0.00306924
0.00339104
0.00405013
0.00471855
0.00517887
0.00589026
0.00663953
0.000155203
0.00444912
0.00145088
0.00133263
0.00423608
0.00210858
0.000186063
0.00343843
0.00133527
0.00192235
0.00204361
0.00326909
0.00250801
0.00301379
0.00342588
0.00401096
0.00469688
0.00512729
0.00578769
0.00650942
0.000174372
0.00443149
0.00147965
0.00133765
0.00422493
0.00212181
0.000222686
0.00337753
0.00141561
0.00189632
0.00205811
0.0032241
0.00254683
0.00295845
0.00345782
0.00397629
0.00466576
0.00507543
0.00568062
0.00637752
0.000194474
0.00441261
0.00150925
0.00134313
0.00421286
0.00213501
0.000261153
0.00331559
0.00149834
0.00187
0.00207444
0.003177
0.00258628
0.00290454
0.00348479
0.00394689
0.00462503
0.00502206
0.00557061
0.00624352
0.000215475
0.00439233
0.00153987
0.00134906
0.00419984
0.00214837
0.000301495
0.0032526
0.00158328
0.00184329
0.00209216
0.00312853
0.0026254
0.00285346
0.00350487
0.00392312
0.00457497
0.00496558
0.00545916
0.00610766
0.000237353
0.00437049
0.00157171
0.00135543
0.00418587
0.00216199
0.000343743
0.00318849
0.00167021
0.00181614
0.00211065
0.00307969
0.00266292
0.00280647
0.00351658
0.003905
0.00451641
0.00490383
0.0053472
0.00597078
0.000260117
0.004347
0.00160488
0.00136226
0.00417093
0.00217591
0.000387932
0.00312316
0.00175884
0.00178858
0.00212905
0.00303174
0.00269751
0.00276445
0.00351873
0.00389193
0.00445111
0.00483499
0.00523465
0.00583385
0.000283804
0.00432179
0.00163943
0.00136955
0.00415504
0.0021901
0.000434092
0.00305649
0.00184877
0.00176086
0.0021463
0.00298611
0.00272794
0.00272806
0.00351061
0.00388214
0.0043812
0.00475858
0.00512129
0.00569735
0.000308479
0.00429483
0.00167538
0.00137731
0.00413821
0.00220444
0.000482215
0.00298842
0.00193953
0.00173354
0.00216119
0.00294406
0.00275312
0.00269761
0.00349243
0.00387327
0.00430818
0.00467472
0.00500719
0.00556169
0.000334224
0.0042661
0.00171268
0.00138557
0.00412048
0.0022188
0.000532245
0.00291898
0.00203048
0.00170754
0.00217249
0.00290665
0.00277206
0.00267274
0.00346497
0.00386318
0.00423319
0.00458367
0.00489245
0.00542739
0.000361124
0.00423562
0.0017513
0.00139431
0.0041019
0.00223306
0.000584115
0.00284826
0.00212088
0.00168399
0.00217894
0.00287472
0.00278432
0.0026527
0.00342931
0.00384973
0.00415688
0.00448568
0.00477734
0.00529544
0.000389259
0.00420335
0.00179119
0.00140359
0.00408249
0.00224712
0.000637753
0.00277657
0.00220976
0.00166432
0.00217943
0.00284861
0.00278967
0.00263644
0.00338727
0.00383143
0.00407971
0.00438045
0.00466101
0.00516712
0.000418703
0.00416928
0.00183234
0.00141344
0.0040623
0.00226086
0.000692966
0.00270455
0.00229588
0.00164977
0.00217319
0.00282874
0.0027881
0.00262186
0.0033404
0.00380723
0.00400298
0.00426943
0.00454243
0.00504196
0.000449521
0.00413337
0.00187474
0.00142394
0.0040413
0.00227434
0.000749434
0.00263293
0.00237815
0.00164138
0.00215904
0.00281528
0.00278086
0.00260714
0.00328971
0.00377521
0.00392629
0.00415483
0.00442278
0.00491983
0.000481775
0.00409559
0.00191837
0.00143518
0.0040194
0.0022877
0.000806732
0.00256255
0.00245527
0.00164059
0.0021365
0.00280683
0.00276915
0.00259086
0.00323683
0.00373538
0.00384895
0.00403738
0.00430217
0.00480077
0.000515527
0.00405591
0.00196323
0.00144726
0.00399649
0.00230111
0.000864398
0.00249421
0.00252625
0.00164767
0.0021063
0.00280204
0.00275455
0.00257055
0.00318107
0.00368798
0.00377117
0.00392002
0.00418179
0.00468342
0.000550843
0.00401428
0.00200931
0.00146024
0.00397248
0.00231478
0.00092193
0.00242857
0.00259055
0.00166273
0.00206831
0.00279956
0.00273988
0.00254609
0.00312175
0.00363171
0.00369206
0.003805
0.00405985
0.00456875
0.000587775
0.0039707
0.00205648
0.00147437
0.0039471
0.00232939
0.000978413
0.00236658
0.00264708
0.00168687
0.00202267
0.00279773
0.00272574
0.00251801
0.00305933
0.00356739
0.00360625
0.00368915
0.00395053
0.00445731
0.000626422
0.00392515
0.0021047
0.00148969
0.0039201
0.00234528
0.00103372
0.00230864
0.00269522
0.00171959
0.0019705
0.00279517
0.00271262
0.00248603
0.00299243
0.00349546
0.00351518
0.00357127
0.00385357
0.0043491
0.000666812
0.00387763
0.00215377
0.00150643
0.00389124
0.00236263
0.00108754
0.00225543
0.00273483
0.00175944
0.00191518
0.00278729
0.00270328
0.00244998
0.00292096
0.00341964
0.00342252
0.00345137
0.00373381
0.00424631
0.000708954
0.00382821
0.0022035
0.00152528
0.00386017
0.0023823
0.00113892
0.00220702
0.00276593
0.00180414
0.00186185
0.00276994
0.00270002
0.00241007
0.00284321
0.00333708
0.00332689
0.00332626
0.00362033
0.00415311
0.000753153
0.00377672
0.00225379
0.00153811
0.00382686
0.00240414
0.00118911
0.00216168
0.00279123
0.00185107
0.00181114
0.00274259
0.00270244
0.00236893
0.00275991
0.00324811
0.00323071
0.00319853
0.00346025
0.00406744
0.000799174
0.00372335
0.0023041
0.00156044
0.00379035
0.00242911
0.00123699
0.00212267
0.00280697
0.00190363
0.00175999
0.00271164
0.00270256
0.00232708
0.00267001
0.00313835
0.00312807
0.00307379
0.00334377
0.00398625
0.000846856
0.00366839
0.00235404
0.0015911
0.00375019
0.00245799
0.00128129
0.00208956
0.00280903
0.00196225
0.00170953
0.00267616
0.00269901
0.0022816
0.00256938
0.00301926
0.00301704
0.00295399
0.00327762
0.0039089
0.000897161
0.00361138
0.00240361
0.00161962
0.0037075
0.00248822
0.00132667
0.00205419
0.00282098
0.00201258
0.00167096
0.00263055
0.00269409
0.00223812
0.00246195
0.00289493
0.00291111
0.00284218
0.00311229
0.00383384
0.000949224
0.00355298
0.00245195
0.00165279
0.00366029
0.00252257
0.00137045
0.00202403
0.00282193
0.00206575
0.00163377
0.00257966
0.0026878
0.00218278
0.00234293
0.00276399
0.00280401
0.0027403
0.00301018
0.00375891
0.00100273
0.00349373
0.00249835
0.00169421
0.00360806
0.0025618
0.00141161
0.00199955
0.00280015
0.00212675
0.00159152
0.00252233
0.00267708
0.002115
0.00221659
0.00263008
0.00269507
0.00264032
0.00297341
0.00368308
0.00106989
0.00343289
0.00254286
0.00173357
0.0035544
0.00259776
0.00145869
0.00196535
0.00281467
0.00217572
0.00156029
0.00245339
0.00265992
0.00207077
0.00209311
0.00249123
0.00259218
0.00253413
0.00276511
0.00360705
0.00112759
0.00337173
0.00258415
0.00178158
0.00349631
0.00263744
0.00150692
0.00193337
0.00281324
0.00222915
0.00153493
0.00237369
0.00263391
0.00200727
0.00195838
0.00234618
0.00247473
0.00244096
0.00267277
0.00353641
0.00118606
0.00331093
0.00262155
0.00187896
0.00343311
0.00268152
0.00155655
0.00190677
0.00277366
0.00229777
0.00150612
0.00228025
0.00259048
0.00195038
0.00181634
0.00219217
0.00233581
0.00235089
0.00270821
0.00348143
0.00125014
0.0032497
0.00265528
0.00192635
0.00337136
0.00271378
0.00161836
0.00186904
0.00276958
0.0023599
0.00148804
0.00218232
0.00255441
0.00190389
0.0016817
0.00202676
0.00218944
0.00221467
0.00249278
0.00344338
0.00131293
0.00319012
0.00268288
0.00199212
0.0033082
0.0027461
0.00168605
0.00183199
0.00275217
0.00241838
0.00148026
0.00207023
0.00251337
0.00186487
0.00155066
0.0018535
0.00202819
0.00206304
0.00236279
0.00342696
0.00137806
0.00313241
0.00270441
0.0020645
0.00324428
0.00277643
0.00175777
0.00180383
0.00269666
0.00247971
0.00147422
0.00195309
0.00245751
0.00183597
0.00142555
0.00167079
0.00184849
0.00192598
0.00232554
0.00341716
0.00144615
0.00307603
0.00272055
0.00213665
0.00318476
0.00279438
0.00183778
0.00177685
0.00264181
0.00253111
0.00147955
0.00183718
0.00238321
0.00181553
0.00131002
0.00148142
0.00168411
0.00181876
0.00224947
0.00340723
0.00151334
0.00302325
0.00272937
0.00221473
0.00312911
0.00280727
0.00192127
0.00175489
0.00257707
0.00256754
0.00150253
0.00171707
0.00228708
0.00179939
0.00120881
0.00129502
0.00152393
0.00171537
0.0022023
0.00340492
0.0015832
0.0029736
0.0027317
0.00229422
0.00308161
0.00280835
0.00200469
0.00174491
0.00248984
0.0025925
0.00153591
0.00159711
0.00218103
0.00178727
0.00112525
0.00111418
0.00136434
0.00161683
0.00216415
0.00340883
0.00165377
0.00292728
0.00272799
0.00237365
0.00304237
0.00280176
0.0020885
0.00174123
0.00240055
0.00260616
0.00157605
0.0014892
0.00206682
0.00176441
0.00105527
0.000944941
0.00120634
0.00151891
0.00213327
0.00341748
0.00172455
0.00288557
0.00271872
0.00245156
0.0030128
0.0027904
0.00216517
0.0017463
0.00230959
0.00260101
0.00162407
0.00139802
0.00193665
0.00172234
0.00100603
0.000800213
0.00105045
0.00141418
0.00209998
0.00343159
0.00179689
0.00284819
0.00270507
0.00252464
0.0029937
0.00277076
0.0022347
0.00176297
0.00220966
0.00257605
0.00167966
0.00132065
0.00179393
0.00166888
0.000978726
0.000673997
0.000886462
0.00130234
0.00206383
0.00345517
0.00186911
0.00281561
0.00268765
0.00259223
0.00298255
0.00275287
0.0022973
0.00178483
0.00211487
0.00253728
0.00173896
0.001256
0.00164602
0.00160386
0.000960485
0.000561935
0.000725113
0.0011933
0.00202918
0.00347388
0.00194179
0.00278813
0.00266765
0.0026523
0.00297995
0.00273471
0.002349
0.00181383
0.00202443
0.00248297
0.00179255
0.00120574
0.00150131
0.00152521
0.000943672
0.00047309
0.000579143
0.00108077
0.00197315
0.00348432
0.00201478
0.00276594
0.00264587
0.00270379
0.0029827
0.00271907
0.00239344
0.00184858
0.0019373
0.00241247
0.00183826
0.00117551
0.00136481
0.00142655
0.000918311
0.000411124
0.000446609
0.000955445
0.00191366
0.00349948
0.00208762
0.00274909
0.0026233
0.0027461
0.0029902
0.00270723
0.0024289
0.00188498
0.00186129
0.0023305
0.00187564
0.00116206
0.00123441
0.00131126
0.000888419
0.000373272
0.000330165
0.00083897
0.00185077
0.00349687
0.0021601
0.00273846
0.00260091
0.00277814
0.0029999
0.0026986
0.00245713
0.00192435
0.00179461
0.00223841
0.00189992
0.00116031
0.00111537
0.00119063
0.000848264
0.000349707
0.000241973
0.00072288
0.00176276
0.00348353
0.002232
0.00273406
0.00257968
0.0028002
0.00300997
0.00269314
0.00247928
0.00196492
0.00173787
0.00213887
0.00190867
0.00116772
0.00101195
0.00106656
0.000791032
0.000334448
0.000173169
0.000606702
0.0016775
0.00347703
0.00230254
0.0027363
0.00256052
0.00281336
0.00301744
0.00269256
0.00249453
0.00200311
0.0016954
0.00203746
0.00190146
0.00118113
0.000923849
0.00094366
0.000719558
0.000315312
0.000123591
0.000516772
0.00160192
0.00345891
0.00237165
0.00274527
0.00254499
0.00281627
0.00302169
0.0026891
0.00251404
0.00204139
0.00166661
0.00193615
0.00187829
0.00119755
0.000850803
0.000826864
0.000634712
0.000286805
9.54332e-05
0.000450793
0.00153072
0.0034347
0.00244005
0.00276018
0.00253415
0.00281009
0.00302424
0.00269261
0.00249298
0.00208431
0.00165367
0.00183937
0.00184034
0.0012129
0.00079164
0.000717496
0.000543723
0.000250786
7.77039e-05
0.000405595
0.00147479
0.00341399
0.00250603
0.00278158
0.0025284
0.00279908
0.00301763
0.00264245
0.00249294
0.00212997
0.00165544
0.00174969
0.00178914
0.00122513
0.000745678
0.000618677
0.000452823
0.000202457
6.05387e-05
0.000380433
0.00143769
0.00339913
0.00257054
0.00280771
0.00252953
0.00278164
0.00299964
0.0026315
0.00249054
0.00217048
0.00166754
0.00166955
0.00172749
0.00123113
0.000710754
0.000531178
0.00036303
0.000143602
4.15845e-05
0.000367822
0.00141816
0.00339428
0.00263369
0.00283711
0.00253775
0.00275527
0.00297398
0.00262107
0.00248476
0.00220649
0.00168791
0.00159964
0.00165615
0.00122663
0.000683205
0.000452714
0.000278208
8.16683e-05
1.64109e-05
0.00035942
0.00141447
0.00340241
0.00269487
0.00286864
0.00255198
0.00272949
0.00294156
0.00260968
0.00247724
0.00223792
0.00171317
0.00153826
0.00157791
0.00121183
0.000660896
0.000383461
0.000203287
2.14754e-05
-1.50809e-05
0.000353458
0.00142297
0.00342098
0.0027548
0.00290119
0.00257195
0.00270298
0.00290307
0.00259549
0.00246677
0.00226232
0.00174116
0.00148882
0.00149882
0.00118819
0.000642665
0.000323197
0.000136786
-3.43641e-05
-4.88702e-05
0.00034601
0.00143394
0.0034442
0.0028132
0.00293424
0.00259641
0.00267835
0.00286118
0.0025775
0.00245183
0.00227972
0.00177261
0.00145226
0.00142035
0.00115558
0.000627455
0.000269884
7.43126e-05
-8.47676e-05
-8.1751e-05
0.000335426
0.00144404
0.00347114
0.00287024
0.00296739
0.00262407
0.0026598
0.00281798
0.00255511
0.00243229
0.00229062
0.00180566
0.00142679
0.0013443
0.00111549
0.000613473
0.000221785
1.38085e-05
-0.000129264
-0.000108868
0.000326056
0.0014519
0.00349574
0.00292601
0.00300037
0.00265386
0.00264506
0.00277525
0.0025292
0.00240806
0.00229377
0.00183769
0.00141204
0.00127395
0.00106851
0.000598025
0.000180083
-4.33604e-05
-0.000169256
-0.000130463
0.000316988
0.00145481
0.00351691
0.00298059
0.00303301
0.002685
0.00263426
0.00273429
0.00250102
0.00237914
0.00228821
0.00186716
0.00140796
0.00121088
0.00101464
0.000580062
0.000146501
-9.73596e-05
-0.000210476
-0.000151555
0.000309118
0.00145995
0.00354044
0.00303394
0.00306521
0.00271684
0.00263963
0.00269614
0.00247155
0.00234573
0.00227384
0.00189216
0.00141243
0.00115602
0.00095564
0.000558623
0.000119866
-0.000148047
-0.000253737
-0.000171583
0.000307577
0.00147136
0.00356382
0.0030861
0.00309692
0.00274869
0.00263619
0.00266102
0.00244193
0.00230877
0.00225086
0.00191038
0.00142273
0.00111138
0.000894778
0.000531874
9.83151e-05
-0.000192418
-0.000296431
-0.000191386
0.000308553
0.00148359
0.00358505
0.00313704
0.00312808
0.00277998
0.00263464
0.00262895
0.00241325
0.00226958
0.00221958
0.00192013
0.00143672
0.00107866
0.000835329
0.000498182
7.93274e-05
-0.000229595
-0.000338564
-0.000214849
0.000306639
0.00149587
0.00360807
0.00318673
0.00315876
0.0028105
0.00263491
0.00259995
0.002386
0.00222936
0.00218117
0.00192052
0.00145167
0.00105716
0.000779965
0.000457279
5.95052e-05
-0.000260333
-0.00037868
-0.000241592
0.000301853
0.00150868
0.00363215
0.0032351
0.00318895
0.00284011
0.00263673
0.00257377
0.00236034
0.00218954
0.00213712
0.00191099
0.00146408
0.00104425
0.000731872
0.000411348
3.58805e-05
-0.000286077
-0.000414729
-0.000269785
0.000293322
0.00151868
0.0036544
0.0032821
0.00321866
0.00286858
0.00263985
0.00255015
0.00233631
0.00215125
0.00208877
0.00189136
0.00147158
0.00103723
0.000692959
0.000363912
6.72248e-06
-0.000309923
-0.000446911
-0.000298569
0.00028053
0.00152405
0.00367321
0.00332763
0.00324797
0.00289591
0.00264369
0.00252861
0.00231384
0.00211501
0.00203768
0.00186233
0.00147285
0.00103312
0.000662464
0.000318447
-2.796e-05
-0.000334965
-0.000476546
-0.00032743
0.000263619
0.00152356
0.00368723
0.00337167
0.0032767
0.00292202
0.00264806
0.00250889
0.00229275
0.00208095
0.00198563
0.00182507
0.00146644
0.00102899
0.000638452
0.000277633
-6.66393e-05
-0.000363332
-0.000505745
-0.000357054
0.000242439
0.00151716
0.00369654
0.0034141
0.00330495
0.00294697
0.0026525
0.00249059
0.00227285
0.00204913
0.00193442
0.00178087
0.00145101
0.001023
0.00061832
0.000241903
-0.000107326
-0.000396188
-0.000536427
-0.000387651
0.000218179
0.00150556
0.00370005
0.00345475
0.00333263
0.00297091
0.00265703
0.00247316
0.00225377
0.00201938
0.001885
0.0017318
0.00142598
0.00101342
0.000599712
0.000210152
-0.000148218
-0.00043353
-0.000569916
-0.000419887
0.000190759
0.00148779
0.00369624
0.00349369
0.0033595
0.00299376
0.00266155
0.00245642
0.00223529
0.00199127
0.00183757
0.00168021
0.00139119
0.000997711
0.000580709
0.00018092
-0.000187707
-0.000474381
-0.000607162
-0.000455369
0.000159504
0.00146434
0.00368513
0.00353073
0.00338564
0.00301567
0.00266615
0.00243992
0.00221703
0.00196468
0.00179191
0.00162806
0.00134773
0.000973849
0.000559424
0.000151924
-0.000225904
-0.000518536
-0.000649511
-0.000495714
0.000123787
0.00143594
0.0036677
0.00356587
0.00341077
0.00303649
0.00267085
0.00242361
0.00219835
0.00193954
0.00174725
0.00157655
0.00129836
0.000940258
0.000534931
0.000121996
-0.000264081
-0.000566073
-0.000698339
-0.000542995
8.12333e-05
0.00140081
0.00364328
0.00359909
0.00343475
0.00305621
0.00267566
0.00240733
0.00217894
0.00191587
0.00170284
0.00152565
0.00124629
0.000895336
0.000503858
9.00971e-05
-0.000302066
-0.000614714
-0.000752083
-0.000597267
3.03684e-05
0.00135656
0.00360849
0.00363031
0.00345753
0.00307465
0.00268076
0.00239135
0.00215794
0.00189356
0.00165877
0.00147387
0.0011947
0.00084091
0.000461226
5.17192e-05
-0.000342438
-0.000664445
-0.000809385
-0.000656988
-2.75283e-05
0.00130436
0.00356429
0.00365933
0.0034791
0.00309181
0.00268626
0.0023763
0.00213475
0.00187174
0.00161643
0.0014189
0.00114426
0.000783008
0.000407614
3.2396e-06
-0.000390391
-0.000719459
-0.000874163
-0.000725654
-9.51093e-05
0.00124304
0.00351196
0.00368602
0.00349933
0.00310757
0.002692
0.00236261
0.00210916
0.00184862
0.001577
0.00136011
0.00109213
0.000724868
0.000347457
-5.27896e-05
-0.000445268
-0.000778824
-0.000945681
-0.000805545
-0.00017754
0.00116504
0.00344275
0.00371021
0.00351807
0.00312211
0.00269779
0.00235091
0.00208213
0.0018218
0.00154001
0.00129856
0.00103475
0.000665512
0.000280019
-0.000117644
-0.000507989
-0.000842861
-0.00102003
-0.000891845
-0.000271873
0.00107044
0.00335457
0.00373168
0.00353605
0.00313562
0.00270335
0.00234073
0.00205455
0.00178987
0.00150378
0.00123737
0.000971868
0.000606333
0.000209334
-0.000191622
-0.000582999
-0.000918707
-0.00110393
-0.000987514
-0.000378746
0.000958421
0.00324582
0.00375001
0.0035529
0.00314819
0.00271087
0.00233419
0.00202777
0.00175264
0.00146563
0.00117693
0.000901402
0.000543555
0.000138331
-0.000269146
-0.000665847
-0.0010049
-0.00119728
-0.00109202
-0.000494772
0.000831405
0.00311163
0.00376351
0.00357068
0.00315908
0.00272049
0.00233334
0.00200458
0.00171187
0.00142518
0.00112195
0.000828177
0.000474549
6.39773e-05
-0.000353521
-0.000759976
-0.00110661
-0.00130579
-0.00120998
-0.000623446
0.000693085
0.00296462
0.00377576
0.00356446
0.00316123
0.0027184
0.00232295
0.00197687
0.0016656
0.00137866
0.00106989
0.00075831
0.000402986
-1.12498e-05
-0.000443273
-0.000865786
-0.00122605
-0.00143673
-0.00135393
-0.000780583
0.000525058
0.00279355
0.00378323
0.00362271
0.00320305
0.00274113
0.00230438
0.00193354
0.00160941
0.00132357
0.00101498
0.000689404
0.000329216
-8.75115e-05
-0.000534027
-0.000974099
-0.00135451
-0.00158909
-0.00153457
-0.000985525
0.000305282
0.0025704
0.00374175
0.00356636
0.00324323
0.00280904
0.0023162
0.00189356
0.00155441
0.00126814
0.000969049
0.000644363
0.000278983
-0.000147856
-0.000611271
-0.00107349
-0.00148633
-0.00176127
-0.00175202
-0.00124941
-3.67781e-06
0.00222068
0.00381523
0.00363269
0.00321162
0.00272821
0.00227074
0.00185048
0.00148133
0.00118936
0.000915955
0.000622266
0.000268164
-0.000152582
-0.000606696
-0.00105834
-0.0014705
-0.00176726
-0.00181015
-0.00139301
-0.000260219
0.00182876
0.00375235
0.00361648
0.00319585
0.00281339
0.0023832
0.00187053
0.00138636
0.00105509
0.000747614
0.000452918
7.68238e-05
-0.000347925
-0.000814277
-0.00124625
-0.00158822
-0.00175547
-0.00166503
-0.00114999
2.79181e-05
0.00213078
0.00386725
0.00359193
0.00319594
0.00272869
0.00224351
0.00182367
0.00149102
0.0012594
0.00100872
0.000690034
0.000283367
-0.00017756
-0.000715124
-0.00133125
-0.00199507
-0.00260258
-0.00297107
-0.00285787
-0.0019868
-0.000118858
0.0040994
0.00351048
0.00301177
0.0025268
0.00212888
0.00163048
0.00117276
0.000916598
0.000652228
0.000278115
-0.000137091
-0.00052625
-0.000682109
-0.000492447
8.45196e-05
0.000964403
0.00195839
0.00276103
0.00300321
0.00235392
0.00406219
0.00352931
0.00300564
0.00260605
0.00234206
0.00211102
0.00186212
0.00155831
0.00119167
0.00069583
9.05377e-05
-0.000621349
-0.00144519
-0.00235138
-0.00327762
-0.00412463
-0.00472787
-0.00485863
-0.00423821
-0.00261794
0.00422898
0.00348628
0.00294069
0.0025181
0.00222602
0.00182168
0.00135994
0.000846237
0.000403025
0.000115475
-0.000175429
-0.000584734
-0.00096129
-0.00114804
-0.000998485
-0.000509475
0.000197984
0.000823965
0.000975759
0.000290829
0.00420974
0.00345315
0.0029059
0.00257753
0.00248248
0.00241452
0.00230677
0.00206366
0.00163265
0.000916605
-6.5901e-05
-0.00134469
-0.00287777
-0.00450949
-0.00601742
-0.00721575
-0.0079501
-0.00803965
-0.00726102
-0.00541623
0.0104529
0.000172664
-0.00359063
-0.00223094
-6.99723e-05
0.00180097
0.00335404
0.00460689
0.00565327
0.00693161
0.0084629
0.00957181
0.0102943
0.011217
0.0122025
0.0132985
0.0147274
0.016051
0.0173063
0.018721
0.0198885
0.0209163
0.0222172
0.0237476
0.0252987
0.0267543
0.028311
0.0300694
0.0318425
0.0335566
0.0353445
0.0372919
0.0392729
0.0413566
0.0434647
0.0456774
0.0479468
0.0503349
0.0527917
0.0553028
0.0579299
0.0605701
0.0634008
0.066231
0.0692235
0.0722957
0.0754107
0.0787318
0.0818893
0.0852487
0.0102595
0.000229159
-0.00355116
-0.00221612
-6.27377e-05
0.00180572
0.003358
0.00461043
0.00565622
0.00693389
0.00846485
0.0095736
0.0102958
0.0112183
0.0122037
0.0132996
0.0147284
0.016052
0.0173072
0.0187217
0.0198893
0.0209169
0.0222177
0.0237481
0.0252991
0.0267547
0.0283114
0.0300697
0.0318428
0.0335569
0.0353447
0.0372921
0.0392731
0.0413568
0.0434648
0.0456776
0.047947
0.0503351
0.0527918
0.0553029
0.05793
0.0605702
0.0634009
0.0662311
0.0692236
0.0722958
0.0754108
0.0787318
0.0818893
0.0852488
0.0100221
0.000321947
-0.00348644
-0.00219527
-5.34532e-05
0.001811
0.00336173
0.00461363
0.00565893
0.00693607
0.00846678
0.00957532
0.0102971
0.0112194
0.0122048
0.0133005
0.0147294
0.0160529
0.0173079
0.0187225
0.0198899
0.0209174
0.0222181
0.0237485
0.0252995
0.026755
0.0283117
0.03007
0.0318431
0.0335571
0.035345
0.0372923
0.0392733
0.0413569
0.043465
0.0456778
0.0479471
0.0503352
0.052792
0.055303
0.0579301
0.0605703
0.063401
0.0662311
0.0692237
0.0722959
0.0754109
0.0787319
0.0818894
0.0852489
0.00980946
0.000451569
-0.00338879
-0.00216188
-3.87202e-05
0.0018185
0.00336597
0.00461688
0.00566186
0.00693859
0.00846901
0.00957721
0.0102985
0.0112206
0.0122058
0.0133013
0.0147303
0.0160539
0.0173087
0.0187233
0.0198907
0.0209179
0.0222185
0.0237489
0.0252999
0.0267554
0.0283119
0.0300703
0.0318434
0.0335574
0.0353452
0.0372925
0.0392735
0.0413571
0.0434652
0.0456779
0.0479473
0.0503353
0.0527921
0.0553031
0.0579302
0.0605704
0.063401
0.0662312
0.0692237
0.0722959
0.0754109
0.078732
0.0818895
0.085249
0.00961698
0.000604605
-0.00326407
-0.00211539
-1.70636e-05
0.00182958
0.0033715
0.00462054
0.00566531
0.00694177
0.0084717
0.00957936
0.0103
0.0112219
0.0122069
0.0133021
0.0147312
0.0160549
0.0173094
0.0187241
0.0198915
0.0209185
0.022219
0.0237494
0.0253004
0.0267557
0.0283122
0.0300706
0.0318437
0.0335576
0.0353454
0.0372927
0.0392737
0.0413573
0.0434654
0.0456781
0.0479474
0.0503355
0.0527922
0.0553033
0.0579303
0.0605705
0.0634011
0.0662313
0.0692238
0.072296
0.075411
0.078732
0.0818896
0.0852492
0.0094247
0.000767917
-0.00312351
-0.00206017
1.02084e-05
0.00184433
0.0033788
0.00462493
0.00566943
0.00694563
0.00847477
0.00958168
0.0103018
0.0112235
0.0122082
0.013303
0.0147322
0.0160559
0.0173102
0.0187251
0.0198925
0.0209191
0.0222195
0.0237499
0.0253009
0.0267562
0.0283126
0.0300709
0.031844
0.0335579
0.0353456
0.0372929
0.0392739
0.0413575
0.0434655
0.0456782
0.0479476
0.0503356
0.0527924
0.0553034
0.0579304
0.0605706
0.0634012
0.0662314
0.0692239
0.0722961
0.0754111
0.0787321
0.0818897
0.0852494
0.00922551
0.000936021
-0.00297334
-0.00200009
4.07812e-05
0.0018619
0.00338796
0.00463032
0.00567426
0.00695004
0.00847799
0.00958393
0.0103036
0.0112254
0.0122098
0.0133041
0.0147334
0.0160569
0.0173109
0.0187261
0.0198936
0.0209198
0.0222201
0.0237506
0.0253015
0.0267566
0.028313
0.0300713
0.0318444
0.0335582
0.0353458
0.0372932
0.0392741
0.0413577
0.0434657
0.0456784
0.0479478
0.0503358
0.0527925
0.0553035
0.0579306
0.0605707
0.0634013
0.0662315
0.069224
0.0722962
0.0754112
0.0787322
0.0818899
0.0852497
0.00902082
0.00110765
-0.00281567
-0.00193707
7.30014e-05
0.00188127
0.00339874
0.00463679
0.00567979
0.00695476
0.00848104
0.0095858
0.0103053
0.0112274
0.0122118
0.0133057
0.0147349
0.016058
0.0173115
0.0187272
0.0198947
0.0209207
0.0222208
0.0237513
0.0253021
0.0267572
0.0283134
0.0300717
0.0318448
0.0335585
0.0353461
0.0372934
0.0392743
0.0413579
0.0434659
0.0456786
0.0479479
0.050336
0.0527927
0.0553037
0.0579307
0.0605708
0.0634015
0.0662316
0.0692241
0.0722963
0.0754112
0.0787323
0.0818901
0.08525
0.00881361
0.00128223
-0.0026509
-0.00187168
0.000106067
0.00190177
0.00341074
0.00464422
0.00568582
0.00695951
0.00848367
0.00958705
0.0103064
0.0112293
0.012214
0.0133079
0.0147371
0.0160594
0.0173119
0.0187281
0.0198959
0.0209216
0.0222217
0.0237522
0.0253029
0.0267578
0.0283139
0.0300723
0.0318453
0.0335589
0.0353464
0.0372937
0.0392746
0.0413582
0.0434662
0.0456788
0.0479481
0.0503361
0.0527929
0.0553038
0.0579309
0.060571
0.0634016
0.0662317
0.0692242
0.0722964
0.0754113
0.0787324
0.0818903
0.0852505
0.00860568
0.00145897
-0.00247893
-0.00180387
0.000139676
0.00192304
0.00342371
0.00465242
0.00569218
0.00696406
0.00848571
0.0095876
0.0103069
0.0112307
0.0122161
0.0133106
0.0147402
0.0160613
0.0173123
0.0187287
0.019897
0.0209226
0.0222227
0.0237532
0.0253038
0.0267585
0.0283146
0.0300729
0.0318459
0.0335594
0.0353468
0.0372941
0.0392749
0.0413584
0.0434664
0.045679
0.0479483
0.0503363
0.0527931
0.055304
0.057931
0.0605711
0.0634017
0.0662318
0.0692243
0.0722965
0.0754114
0.0787326
0.0818907
0.085251
0.0083979
0.00163702
-0.00229955
-0.00173338
0.000173711
0.00194495
0.00343754
0.00466134
0.0056988
0.00696829
0.00848706
0.00958743
0.0103067
0.0112315
0.0122178
0.0133133
0.014744
0.0160639
0.0173126
0.018729
0.0198978
0.0209234
0.0222238
0.0237543
0.0253048
0.0267594
0.0283153
0.0300736
0.0318466
0.03356
0.0353473
0.0372945
0.0392752
0.0413587
0.0434667
0.0456793
0.0479486
0.0503366
0.0527933
0.0553042
0.0579312
0.0605713
0.0634019
0.066232
0.0692244
0.0722967
0.0754116
0.0787328
0.0818911
0.0852517
0.00819085
0.00181557
-0.00211267
-0.00165992
0.000208096
0.00196746
0.00345226
0.00467103
0.00570571
0.00697222
0.00848766
0.00958658
0.0103059
0.0112318
0.012219
0.0133158
0.0147483
0.0160672
0.0173129
0.0187288
0.0198981
0.020924
0.0222249
0.0237556
0.0253059
0.0267603
0.0283161
0.0300745
0.0318474
0.0335608
0.0353479
0.037295
0.0392756
0.041359
0.043467
0.0456795
0.0479488
0.0503368
0.0527935
0.0553044
0.0579314
0.0605715
0.0634021
0.0662321
0.0692246
0.0722968
0.0754117
0.078733
0.0818916
0.0852525
0.00798513
0.0019938
-0.00191833
-0.00158319
0.000242762
0.00199052
0.00346795
0.00468162
0.00571305
0.00697597
0.0084875
0.00958505
0.0103046
0.0112317
0.0122196
0.0133175
0.0147524
0.016071
0.0173132
0.018728
0.0198978
0.0209242
0.022226
0.023757
0.0253071
0.0267613
0.028317
0.0300754
0.0318483
0.0335616
0.0353487
0.0372956
0.039276
0.0413594
0.0434674
0.0456798
0.0479491
0.050337
0.0527938
0.0553047
0.0579317
0.0605717
0.0634023
0.0662323
0.0692247
0.072297
0.0754118
0.0787332
0.0818922
0.0852534
0.00778133
0.0021709
-0.0017167
-0.00150286
0.000277658
0.0020141
0.00348469
0.00469322
0.005721
0.00697969
0.0084866
0.00958282
0.0103029