/*--------------------------------*- C++ -*----------------------------------*\
| =========                 |                                                 |
| \\      /  F ield         | OpenFOAM: The Open Source CFD Toolbox           |
|  \\    /   O peration     | Version:  v2012                                 |
|   \\  /    A nd           | Website:  www.openfoam.com                      |
|    \\/     M anipulation  |                                                 |
\*---------------------------------------------------------------------------*/
FoamFile
{
    version     2.0;
    format      ascii;
    class       surfaceScalarField;
    location    "5";
    object      phi;
}
// * * * * * * * * * * * * * * * * * * * * * * * * * * * * * * * * * * * * * //

dimensions      [0 3 -1 0 0 0 0];
oriented        oriented;


internalField   nonuniform List<scalar> 
13830
(
9.94006e-07
1.63972e-07
8.65659e-07
2.91942e-07
9.19544e-07
-8.29801e-07
9.96127e-07
4.32689e-07
8.85614e-07
9.22818e-07
8.78389e-07
-6.52613e-07
9.74944e-07
-6.04267e-07
9.29266e-07
-8.82416e-07
9.58636e-07
1.59213e-07
9.3518e-07
3.1809e-07
9.31139e-07
2.47183e-07
9.23231e-07
1.70435e-07
9.35955e-07
2.30408e-07
9.28142e-07
1.47931e-07
9.28064e-07
2.56006e-07
9.19926e-07
2.14402e-07
9.12468e-07
2.06183e-07
9.08651e-07
1.80185e-07
9.01926e-07
1.55884e-07
1.43198e-07
8.91616e-07
1.03004e-06
1.06459e-07
9.05179e-07
4.16808e-07
9.60566e-07
-8.85188e-07
1.03744e-06
3.55818e-07
9.24102e-07
1.03615e-06
9.16405e-07
-6.44916e-07
1.01047e-06
-6.98328e-07
9.62479e-07
-8.34428e-07
9.94152e-07
1.2754e-07
9.71947e-07
3.40294e-07
9.6667e-07
2.52461e-07
9.59071e-07
1.78034e-07
9.70813e-07
2.18666e-07
9.64638e-07
1.54106e-07
9.6027e-07
2.60374e-07
9.58903e-07
2.15769e-07
9.42396e-07
2.2269e-07
9.49036e-07
1.73545e-07
9.28319e-07
1.766e-07
1.32256e-07
9.39261e-07
1.0642e-06
5.171e-08
9.53504e-07
5.27506e-07
1.0032e-06
-9.34887e-07
1.07962e-06
2.79401e-07
9.71745e-07
1.14403e-06
9.59927e-07
-6.33098e-07
1.04509e-06
-7.83493e-07
1.00212e-06
-7.91457e-07
1.02772e-06
1.01944e-07
1.01682e-06
3.51189e-07
1.00176e-06
2.67527e-07
1.00305e-06
1.76737e-07
1.00409e-06
2.17629e-07
1.00841e-06
1.49787e-07
9.92565e-07
2.76218e-07
9.9988e-07
2.08454e-07
9.76885e-07
2.45685e-07
9.84619e-07
1.6581e-07
9.66472e-07
1.94747e-07
1.29093e-07
9.69636e-07
1.09742e-06
2.06951e-09
1.00753e-06
6.17396e-07
1.04658e-06
-9.73936e-07
1.11987e-06
2.06104e-07
1.02528e-06
1.23862e-06
1.00827e-06
-6.16091e-07
1.07823e-06
-8.53456e-07
1.04664e-06
-7.59867e-07
1.06285e-06
8.57353e-08
1.06482e-06
3.49217e-07
1.04061e-06
2.9174e-07
1.04808e-06
1.69267e-07
1.04124e-06
2.2447e-07
1.05005e-06
1.40979e-07
1.0311e-06
2.9517e-07
1.03729e-06
2.02264e-07
1.01862e-06
2.64353e-07
1.0206e-06
1.63834e-07
1.0095e-06
2.05838e-07
1.31208e-07
1.00739e-06
1.13005e-06
-4.04217e-08
1.06416e-06
6.83279e-07
1.08941e-06
-9.99187e-07
1.15569e-06
1.39826e-07
1.08136e-06
1.31296e-06
1.05964e-06
-5.94372e-07
1.11026e-06
-9.0408e-07
1.09345e-06
-7.43056e-07
1.10112e-06
7.80707e-08
1.11235e-06
3.37986e-07
1.08482e-06
3.19265e-07
1.09253e-06
1.61555e-07
1.08345e-06
2.33552e-07
1.09066e-06
1.33772e-07
1.07475e-06
3.11081e-07
1.07659e-06
2.00424e-07
1.06389e-06
2.77054e-07
1.06202e-06
1.65707e-07
1.05497e-06
2.12881e-07
1.35031e-07
1.05115e-06
1.1629e-06
-7.44743e-08
1.12039e-06
7.25785e-07
1.13137e-06
-1.01017e-06
1.1868e-06
8.43971e-08
1.13676e-06
1.36299e-06
1.11202e-06
-5.69624e-07
1.14283e-06
-9.34889e-07
1.13962e-06
-7.3985e-07
1.1429e-06
7.47897e-08
1.1585e-06
3.22389e-07
1.13368e-06
3.44087e-07
1.13769e-06
1.5754e-07
1.12931e-06
2.41932e-07
1.13295e-06
1.30129e-07
1.12067e-06
3.23366e-07
1.11972e-06
2.01372e-07
1.11046e-06
2.8631e-07
1.10763e-06
1.68542e-07
1.10233e-06
2.1818e-07
1.38889e-07
1.09847e-06
1.1971e-06
-9.98798e-08
1.17444e-06
7.48446e-07
1.17312e-06
-1.00885e-06
1.21497e-06
4.25466e-08
1.18912e-06
1.38884e-06
1.16404e-06
-5.44543e-07
1.17797e-06
-9.48824e-07
1.18377e-06
-7.45643e-07
1.18687e-06
7.16845e-08
1.20401e-06
3.05247e-07
1.18451e-06
3.63594e-07
1.18423e-06
1.57816e-07
1.17632e-06
2.49843e-07
1.17728e-06
1.2917e-07
1.16693e-06
3.33714e-07
1.16544e-06
2.02865e-07
1.15767e-06
2.94077e-07
1.15525e-06
1.70968e-07
1.15097e-06
2.2246e-07
1.42295e-07
1.14756e-06
1.23378e-06
-1.17475e-07
1.22612e-06
7.56099e-07
1.21589e-06
-9.98612e-07
1.24311e-06
1.53283e-08
1.23767e-06
1.39428e-06
1.21537e-06
-5.22241e-07
1.2171e-06
-9.50553e-07
1.22627e-06
-7.54814e-07
1.23096e-06
6.69896e-08
1.24919e-06
2.87023e-07
1.23469e-06
3.78089e-07
1.23144e-06
1.61063e-07
1.22286e-06
2.58425e-07
1.22263e-06
1.294e-07
1.21299e-06
3.43355e-07
1.21217e-06
2.03687e-07
1.20531e-06
3.00933e-07
1.20349e-06
1.72791e-07
1.20026e-06
2.25692e-07
1.45256e-07
1.1973e-06
1.27361e-06
-1.28736e-07
1.27627e-06
7.53444e-07
1.26073e-06
-9.83071e-07
1.27404e-06
2.01388e-09
1.28345e-06
1.38487e-06
1.26643e-06
-5.05217e-07
1.26051e-06
-9.44631e-07
1.26852e-06
-7.62825e-07
1.27399e-06
6.15244e-08
1.29364e-06
2.67372e-07
1.28293e-06
3.88797e-07
1.27836e-06
1.65637e-07
1.26856e-06
2.68221e-07
1.26821e-06
1.29746e-07
1.25905e-06
3.52517e-07
1.2592e-06
2.03542e-07
1.25344e-06
3.06693e-07
1.25195e-06
1.74276e-07
1.24995e-06
2.27692e-07
1.47876e-07
1.24733e-06
1.31677e-06
-1.35229e-07
1.32602e-06
7.44192e-07
1.30815e-06
-9.65196e-07
1.30968e-06
4.83396e-10
1.32856e-06
1.36599e-06
1.3179e-06
-4.94554e-07
1.3077e-06
-9.34436e-07
1.31205e-06
-7.67174e-07
1.31621e-06
5.73674e-08
1.33711e-06
2.46472e-07
1.32917e-06
3.96734e-07
1.32452e-06
1.70284e-07
1.31375e-06
2.78994e-07
1.31388e-06
1.2961e-07
1.30561e-06
3.60793e-07
1.30661e-06
2.02538e-07
1.30234e-06
3.10963e-07
1.3009e-06
1.75721e-07
1.30023e-06
2.28364e-07
1.50226e-07
1.29788e-06
1.36299e-06
-1.38197e-07
1.37633e-06
7.30852e-07
1.35815e-06
-9.47016e-07
1.35068e-06
7.95343e-09
1.37501e-06
1.34166e-06
1.37034e-06
-4.89883e-07
1.35785e-06
-9.21945e-07
1.3579e-06
-7.67221e-07
1.35879e-06
5.64734e-08
1.37997e-06
2.2529e-07
1.37414e-06
4.02568e-07
1.37019e-06
1.74236e-07
1.35905e-06
2.90129e-07
1.35996e-06
1.28697e-07
1.35319e-06
3.67564e-07
1.35486e-06
2.00873e-07
1.35244e-06
3.13383e-07
1.35084e-06
1.77315e-07
1.35145e-06
2.27759e-07
1.52348e-07
1.34933e-06
1.41188e-06
-1.38424e-07
1.42781e-06
7.14926e-07
1.41047e-06
-9.29683e-07
1.39676e-06
2.16691e-08
1.42406e-06
1.31435e-06
1.42413e-06
-4.89949e-07
1.4102e-06
-9.08013e-07
1.4064e-06
-7.63422e-07
1.40295e-06
5.99259e-08
1.42313e-06
2.05103e-07
1.41893e-06
4.06774e-07
1.41607e-06
1.77092e-07
1.40522e-06
3.0098e-07
1.40699e-06
1.26931e-07
1.40227e-06
3.72279e-07
1.40437e-06
1.98771e-07
1.40403e-06
3.13724e-07
1.4022e-06
1.79142e-07
1.40392e-06
2.26039e-07
1.5427e-07
1.402e-06
1.46317e-06
-1.36347e-07
1.48082e-06
6.97275e-07
1.46479e-06
-9.13657e-07
1.44721e-06
3.92508e-08
1.47616e-06
1.2854e-06
1.47946e-06
-4.93248e-07
1.46424e-06
-8.92797e-07
1.45738e-06
-7.56555e-07
1.44947e-06
6.78273e-08
1.46763e-06
1.86943e-07
1.4647e-06
4.09705e-07
1.46312e-06
1.7868e-07
1.45308e-06
3.11013e-07
1.45556e-06
1.2445e-07
1.45325e-06
3.74595e-07
1.4555e-06
1.96518e-07
1.4573e-06
3.11929e-07
1.45523e-06
1.81212e-07
1.45784e-06
2.23426e-07
1.56014e-07
1.4561e-06
1.5168e-06
-1.32275e-07
1.53561e-06
6.78465e-07
1.52083e-06
-8.98881e-07
1.5014e-06
5.8681e-08
1.53129e-06
1.25552e-06
1.5364e-06
-4.98356e-07
1.51976e-06
-8.76157e-07
1.5105e-06
-7.47294e-07
1.49878e-06
7.95424e-08
1.51442e-06
1.71307e-07
1.51252e-06
4.11599e-07
1.51224e-06
1.78963e-07
1.50346e-06
3.19789e-07
1.50632e-06
1.21592e-07
1.50652e-06
3.74398e-07
1.50855e-06
1.94483e-07
1.51238e-06
3.08107e-07
1.51009e-06
1.83495e-07
1.51335e-06
2.20168e-07
1.57596e-07
1.51177e-06
1.57292e-06
-1.26579e-07
1.59239e-06
6.58993e-07
1.57842e-06
-8.84909e-07
1.55895e-06
7.81471e-08
1.58934e-06
1.22513e-06
1.59498e-06
-5.04002e-07
1.57674e-06
-8.57909e-07
1.56556e-06
-7.36121e-07
1.55109e-06
9.40165e-08
1.56425e-06
1.58143e-07
1.56325e-06
4.126e-07
1.56419e-06
1.78019e-07
1.55708e-06
3.26907e-07
1.55982e-06
1.18844e-07
1.56243e-06
3.71793e-07
1.56391e-06
1.92998e-07
1.56946e-06
3.02558e-07
1.56702e-06
1.85944e-07
1.57066e-06
2.16526e-07
1.59027e-07
1.56923e-06
1.63174e-06
-1.19773e-07
1.65136e-06
6.39374e-07
1.6375e-06
-8.71055e-07
1.61969e-06
9.59608e-08
1.65023e-06
1.19459e-06
1.65526e-06
-5.09038e-07
1.63532e-06
-8.37967e-07
1.62262e-06
-7.23417e-07
1.60661e-06
1.10026e-07
1.61774e-06
1.47008e-07
1.61756e-06
4.12782e-07
1.61952e-06
1.7606e-07
1.61442e-06
3.32003e-07
1.61649e-06
1.16774e-07
1.62127e-06
3.67021e-07
1.62192e-06
1.9234e-07
1.62878e-06
2.957e-07
1.62623e-06
1.88491e-07
1.63001e-06
2.12748e-07
1.60317e-07
1.62872e-06
1.69344e-06
-1.1246e-07
1.7127e-06
6.20114e-07
1.69822e-06
-8.56579e-07
1.68354e-06
1.10638e-07
1.71391e-06
1.16423e-06
1.71733e-06
-5.12463e-07
1.69575e-06
-8.16382e-07
1.68189e-06
-7.09561e-07
1.66556e-06
1.26354e-07
1.67533e-06
1.37245e-07
1.67595e-06
4.12156e-07
1.67855e-06
1.73463e-07
1.67576e-06
3.34793e-07
1.67659e-06
1.15947e-07
1.68322e-06
3.60384e-07
1.68285e-06
1.92716e-07
1.69055e-06
2.87997e-07
1.68799e-06
1.91056e-07
1.69168e-06
2.09052e-07
1.61478e-07
1.69052e-06
1.75806e-06
-1.05207e-07
1.77655e-06
6.01624e-07
1.76084e-06
-8.40866e-07
1.7504e-06
1.21077e-07
1.7803e-06
1.13433e-06
1.78134e-06
-5.13505e-07
1.75829e-06
-7.93333e-07
1.7437e-06
-6.94965e-07
1.72813e-06
1.41918e-07
1.73721e-06
1.28168e-07
1.73873e-06
4.10633e-07
1.74145e-06
1.70745e-07
1.7411e-06
3.3515e-07
1.74024e-06
1.16807e-07
1.74837e-06
3.52253e-07
1.74686e-06
1.94224e-07
1.75495e-06
2.79905e-07
1.75245e-06
1.93551e-07
1.7559e-06
2.05603e-07
1.6253e-07
1.75485e-06
1.82555e-06
-9.84162e-08
1.84302e-06
5.8415e-07
1.82572e-06
-8.23565e-07
1.82008e-06
1.26719e-07
1.84931e-06
1.1051e-06
1.84751e-06
-5.11708e-07
1.82326e-06
-7.69083e-07
1.80832e-06
-6.80025e-07
1.79436e-06
1.55877e-07
1.80332e-06
1.19212e-07
1.80598e-06
4.07972e-07
1.80824e-06
1.68482e-07
1.81024e-06
3.33149e-07
1.80743e-06
1.19618e-07
1.81666e-06
3.43026e-07
1.81404e-06
1.9684e-07
1.82212e-06
2.71829e-07
1.81977e-06
1.95896e-07
1.82287e-06
2.02509e-07
1.63494e-07
1.8219e-06
1.89575e-06
-9.22665e-08
1.91216e-06
5.67741e-07
1.89321e-06
-8.04615e-07
1.89235e-06
1.2758e-07
1.92082e-06
1.07662e-06
1.91608e-06
-5.06965e-07
1.89093e-06
-7.43932e-07
1.87597e-06
-6.65061e-07
1.86416e-06
1.67689e-07
1.87331e-06
1.10059e-07
1.87751e-06
4.03775e-07
1.87878e-06
1.67207e-07
1.88289e-06
3.29043e-07
1.87806e-06
1.24444e-07
1.88799e-06
3.33094e-07
1.88442e-06
2.00412e-07
1.89215e-06
2.64102e-07
1.89002e-06
1.98027e-07
1.89271e-06
1.99819e-07
1.64389e-07
1.89181e-06
1.96857e-06
-8.67333e-08
1.98403e-06
5.52282e-07
1.9636e-06
-7.84185e-07
1.96703e-06
1.24147e-07
1.99479e-06
1.04886e-06
1.98731e-06
-4.99481e-07
1.96155e-06
-7.18176e-07
1.94676e-06
-6.50266e-07
1.93735e-06
1.77094e-07
1.94671e-06
1.00702e-07
1.95292e-06
3.97565e-07
1.95281e-06
1.67311e-07
1.95868e-06
3.23174e-07
1.95198e-06
1.31151e-07
1.96225e-06
3.22818e-07
1.95797e-06
2.04695e-07
1.9651e-06
2.56971e-07
1.96322e-06
1.9991e-07
1.9655e-06
1.97533e-07
1.65237e-07
1.96465e-06
2.04399e-06
-8.1676e-08
2.05871e-06
5.37564e-07
2.03707e-06
-7.62543e-07
2.04404e-06
1.17176e-07
2.07122e-06
1.02168e-06
2.06141e-06
-4.89668e-07
2.03532e-06
-6.92086e-07
2.02074e-06
-6.35682e-07
2.01378e-06
1.84045e-07
2.02303e-06
9.14545e-08
2.03166e-06
3.88936e-07
2.02998e-06
1.68993e-07
2.03727e-06
3.15887e-07
2.02899e-06
1.39423e-07
2.0393e-06
3.12513e-07
2.03461e-06
2.09387e-07
2.04099e-06
2.50593e-07
2.03937e-06
2.0153e-07
2.04128e-06
1.95622e-07
1.66053e-07
2.04046e-06
2.1221e-06
-7.69337e-08
2.13631e-06
5.23352e-07
2.11371e-06
-7.39944e-07
2.1234e-06
1.0749e-07
2.15019e-06
9.94889e-07
2.13854e-06
-4.7802e-07
2.11238e-06
-6.65922e-07
2.09791e-06
-6.21219e-07
2.09337e-06
1.88588e-07
2.10192e-06
8.29001e-08
2.11316e-06
3.77699e-07
2.1099e-06
1.72254e-07
2.11831e-06
3.07482e-07
2.10893e-06
1.48799e-07
2.119e-06
3.02445e-07
2.11422e-06
2.1416e-07
2.11977e-06
2.45051e-07
2.11841e-06
2.02889e-07
2.12001e-06
1.94019e-07
1.66844e-07
2.11922e-06
2.20304e-06
-7.239e-08
2.21696e-06
5.09435e-07
2.19357e-06
-7.16559e-07
2.20522e-06
9.58424e-08
2.23181e-06
9.68301e-07
2.2188e-06
-4.6501e-07
2.19283e-06
-6.39958e-07
2.17829e-06
-6.06672e-07
2.17609e-06
1.90788e-07
2.18324e-06
7.57515e-08
2.197e-06
3.63936e-07
2.1923e-06
1.7695e-07
2.20157e-06
2.98219e-07
2.19162e-06
1.58749e-07
2.20124e-06
2.92822e-07
2.1967e-06
2.187e-07
2.20138e-06
2.40365e-07
2.20025e-06
2.04021e-07
2.20165e-06
1.92619e-07
1.67592e-07
2.2009e-06
2.287e-06
-6.7993e-08
2.3008e-06
4.95633e-07
2.2767e-06
-6.92461e-07
2.28968e-06
8.28669e-08
2.31621e-06
9.41762e-07
2.30222e-06
-4.51019e-07
2.27676e-06
-6.14497e-07
2.26186e-06
-5.91773e-07
2.26196e-06
1.90695e-07
2.26706e-06
7.06514e-08
2.28299e-06
3.48e-07
2.2771e-06
1.82845e-07
2.28695e-06
2.88363e-07
2.27697e-06
1.68735e-07
2.28598e-06
2.83807e-07
2.28193e-06
2.22755e-07
2.28579e-06
2.36502e-07
2.28479e-06
2.05021e-07
2.28618e-06
1.91228e-07
1.6826e-07
2.28551e-06
2.37413e-06
-6.37396e-08
2.38798e-06
4.81787e-07
2.36317e-06
-6.67654e-07
2.37695e-06
6.90907e-08
2.40355e-06
9.15154e-07
2.38885e-06
-4.36312e-07
2.36421e-06
-5.8986e-07
2.34867e-06
-5.76231e-07
2.35101e-06
1.88357e-07
2.35364e-06
6.80206e-08
2.37122e-06
3.30417e-07
2.36441e-06
1.89659e-07
2.37455e-06
2.78221e-07
2.36503e-06
1.78255e-07
2.3733e-06
2.75535e-07
2.3699e-06
2.26156e-07
2.37295e-06
2.33452e-07
2.37184e-06
2.06127e-07
2.37362e-06
1.89447e-07
1.68794e-07
2.37309e-06
2.46459e-06
-5.96469e-08
2.47863e-06
4.6774e-07
2.45309e-06
-6.42111e-07
2.46721e-06
5.49689e-08
2.49397e-06
8.8839e-07
2.4787e-06
-4.2104e-07
2.45519e-06
-5.66352e-07
2.43875e-06
-5.59792e-07
2.44328e-06
1.83836e-07
2.44328e-06
6.80174e-08
2.46194e-06
3.11757e-07
2.45452e-06
1.97082e-07
2.46457e-06
2.68169e-07
2.45594e-06
1.86884e-07
2.46333e-06
2.68139e-07
2.46073e-06
2.28757e-07
2.46246e-06
2.31724e-07
2.46125e-06
2.07334e-07
2.46408e-06
1.86622e-07
1.69161e-07
2.46371e-06
2.55848e-06
-5.57258e-08
2.57289e-06
4.53324e-07
2.54659e-06
-6.15802e-07
2.56064e-06
4.09137e-08
2.58764e-06
8.61391e-07
2.57185e-06
-4.05252e-07
2.54973e-06
-5.44232e-07
2.53221e-06
-5.42273e-07
2.53884e-06
1.7721e-07
2.53627e-06
7.05848e-08
2.5555e-06
2.92535e-07
2.54779e-06
2.04792e-07
2.55738e-06
2.5857e-07
2.54991e-06
1.94361e-07
2.55635e-06
2.61695e-07
2.55462e-06
2.3049e-07
2.56034e-06
2.26002e-07
2.56166e-06
2.06014e-07
2.55774e-06
1.90538e-07
1.69352e-07
2.55755e-06
2.65592e-06
-5.19628e-08
2.67088e-06
4.38357e-07
2.6438e-06
-5.88723e-07
2.65741e-06
2.73064e-08
2.68474e-06
8.34062e-07
2.6684e-06
-3.88912e-07
2.64787e-06
-5.23698e-07
2.62916e-06
-5.23565e-07
2.63778e-06
1.68587e-07
2.63289e-06
7.54734e-08
2.65223e-06
2.73203e-07
2.6446e-06
2.12422e-07
2.65337e-06
2.49797e-07
2.64719e-06
2.00545e-07
2.6531e-06
2.55776e-07
2.65024e-06
2.33358e-07
2.65116e-06
2.25078e-07
2.65051e-06
2.06662e-07
2.6547e-06
1.86351e-07
1.69259e-07
2.65479e-06
2.757e-06
-4.83127e-08
2.7727e-06
4.22656e-07
2.74489e-06
-5.60905e-07
2.7577e-06
1.44908e-08
2.78548e-06
8.06287e-07
2.76851e-06
-3.71945e-07
2.74964e-06
-5.04828e-07
2.72977e-06
-5.03694e-07
2.74014e-06
1.58212e-07
2.7334e-06
8.22132e-08
2.75235e-06
2.54256e-07
2.74543e-06
2.19341e-07
2.75273e-06
2.42495e-07
2.74827e-06
2.05007e-07
2.75347e-06
2.50577e-07
2.75013e-06
2.36698e-07
2.75004e-06
2.25173e-07
2.74932e-06
2.07379e-07
2.7555e-06
1.80164e-07
1.69179e-07
2.75558e-06
2.86185e-06
-4.47016e-08
2.87844e-06
4.06059e-07
2.84997e-06
-5.32433e-07
2.86169e-06
2.76875e-09
2.89007e-06
7.77913e-07
2.87236e-06
-3.5424e-07
2.85514e-06
-4.87607e-07
2.83417e-06
-4.82722e-07
2.84602e-06
1.46361e-07
2.83799e-06
9.0244e-08
2.85608e-06
2.36169e-07
2.85056e-06
2.24862e-07
2.8558e-06
2.37254e-07
2.85332e-06
2.07486e-07
2.85868e-06
2.45222e-07
2.86295e-06
2.32421e-07
2.86802e-06
2.20103e-07
2.8693e-06
2.061e-07
2.86041e-06
1.89059e-07
1.69457e-07
2.86013e-06
2.97058e-06
-4.10368e-08
2.98818e-06
3.88454e-07
2.9592e-06
-5.03446e-07
2.96957e-06
-7.60575e-09
2.99874e-06
7.48749e-07
2.98015e-06
-3.35651e-07
2.9645e-06
-4.7196e-07
2.94254e-06
-4.60759e-07
2.95553e-06
1.33364e-07
2.94675e-06
9.90299e-08
2.96371e-06
2.19211e-07
2.96004e-06
2.28524e-07
2.96319e-06
2.34103e-07
2.96269e-06
2.07993e-07
2.96352e-06
2.44389e-07
2.96199e-06
2.33946e-07
2.95985e-06
2.22247e-07
2.95887e-06
2.07079e-07
2.96893e-06
1.79003e-07
1.69549e-07
2.96884e-06
3.08334e-06
-3.72197e-08
3.102e-06
3.69792e-07
3.07269e-06
-4.74137e-07
3.08151e-06
-1.64234e-08
3.11169e-06
7.18575e-07
3.09209e-06
-3.16057e-07
3.07784e-06
-4.57704e-07
3.05506e-06
-4.37984e-07
3.06886e-06
1.19562e-07
3.05976e-06
1.08134e-07
3.07548e-06
2.03493e-07
3.07357e-06
2.30435e-07
3.07561e-06
2.32061e-07
3.07591e-06
2.07697e-07
3.08157e-06
2.38729e-07
3.08874e-06
2.26769e-07
3.09339e-06
2.17604e-07
3.09458e-06
2.05887e-07
3.08187e-06
1.91709e-07
1.69704e-07
3.08172e-06
3.20031e-06
-3.31661e-08
3.21998e-06
3.50116e-07
3.19062e-06
-4.44775e-07
3.19767e-06
-2.34716e-08
3.22912e-06
6.87129e-07
3.20838e-06
-2.95323e-07
3.19537e-06
-4.44695e-07
3.17192e-06
-4.14527e-07
3.18622e-06
1.05256e-07
3.17705e-06
1.17304e-07
3.19186e-06
1.88685e-07
3.19021e-06
2.32081e-07
3.19408e-06
2.28189e-07
3.19328e-06
2.085e-07
3.19917e-06
2.3284e-07
3.18997e-06
2.3597e-07
3.18813e-06
2.19444e-07
3.18943e-06
2.04592e-07
3.1982e-06
1.82935e-07
1.68615e-07
3.19929e-06
3.32166e-06
-2.88137e-08
3.34224e-06
3.29535e-07
3.3131e-06
-4.15634e-07
3.31827e-06
-2.86378e-08
3.3511e-06
6.54292e-07
3.32931e-06
-2.73533e-07
3.31718e-06
-4.32561e-07
3.29352e-06
-3.90863e-07
3.30754e-06
9.12283e-08
3.29931e-06
1.25538e-07
3.31227e-06
1.75727e-07
3.31251e-06
2.31836e-07
3.31545e-06
2.25252e-07
3.30905e-06
2.14904e-07
3.30957e-06
2.32315e-07
3.30967e-06
2.35876e-07
3.30884e-06
2.20271e-07
3.3096e-06
2.03828e-07
3.31992e-06
1.7262e-07
1.67372e-07
3.32116e-06
3.44761e-06
-2.41462e-08
3.46891e-06
3.08241e-07
3.4403e-06
-3.87021e-07
3.44348e-06
-3.18221e-08
3.47774e-06
6.20032e-07
3.45515e-06
-2.50938e-07
3.44337e-06
-4.20787e-07
3.42018e-06
-3.67668e-07
3.43298e-06
7.84212e-08
3.4269e-06
1.31617e-07
3.43664e-06
1.65991e-07
3.44019e-06
2.28282e-07
3.43797e-06
2.27471e-07
3.44717e-06
2.05712e-07
3.45231e-06
2.27167e-07
3.45977e-06
2.28425e-07
3.46522e-06
2.14822e-07
3.46518e-06
2.0386e-07
3.44746e-06
1.90341e-07
1.67508e-07
3.44733e-06
3.5784e-06
-1.92032e-08
3.60012e-06
2.86525e-07
3.57247e-06
-3.59376e-07
3.57339e-06
-3.27386e-08
3.60925e-06
5.84168e-07
3.58587e-06
-2.27549e-07
3.57453e-06
-4.09449e-07
3.55144e-06
-3.4458e-07
3.56372e-06
6.61376e-08
3.55766e-06
1.37677e-07
3.56823e-06
1.55425e-07
3.5693e-06
2.27212e-07
3.57212e-06
2.2465e-07
3.56604e-06
2.11789e-07
3.56635e-06
2.26863e-07
3.56425e-06
2.30522e-07
3.56391e-06
2.15159e-07
3.56639e-06
2.01379e-07
3.5773e-06
1.7944e-07
1.65841e-07
3.57896e-06
3.71422e-06
-1.40343e-08
3.73611e-06
2.64632e-07
3.7097e-06
-3.3297e-07
3.70837e-06
-3.14004e-08
3.74555e-06
5.46982e-07
3.7219e-06
-2.03896e-07
3.71031e-06
-3.97862e-07
3.68843e-06
-3.22695e-07
3.69873e-06
5.58338e-08
3.69438e-06
1.42025e-07
3.7036e-06
1.46208e-07
3.70542e-06
2.25391e-07
3.71e-06
2.20065e-07
3.70115e-06
2.20641e-07
3.70141e-06
2.26604e-07
3.69952e-06
2.32411e-07
3.69876e-06
2.1592e-07
3.70061e-06
1.99528e-07
3.71347e-06
1.66584e-07
1.64208e-07
3.7151e-06
3.85528e-06
-8.72512e-09
3.87708e-06
2.42828e-07
3.85219e-06
-3.08071e-07
3.84866e-06
-2.78799e-08
3.88672e-06
5.08925e-07
3.86351e-06
-1.80686e-07
3.85066e-06
-3.85009e-07
3.8316e-06
-3.03639e-07
3.83778e-06
4.96548e-08
3.83772e-06
1.42087e-07
3.8402e-06
1.43728e-07
3.84824e-06
2.1735e-07
3.84235e-06
2.25955e-07
3.86011e-06
2.02881e-07
3.86689e-06
2.1982e-07
3.87492e-06
2.24385e-07
3.88076e-06
2.10076e-07
3.87859e-06
2.017e-07
3.85668e-06
1.88498e-07
1.65084e-07
3.8558e-06
4.00184e-06
-3.41303e-09
4.02317e-06
2.21504e-07
4.00035e-06
-2.8525e-07
3.99417e-06
-2.17065e-08
4.03327e-06
4.69825e-07
4.01026e-06
-1.57672e-07
3.99715e-06
-3.719e-07
3.97819e-06
-2.8468e-07
3.98557e-06
4.22716e-08
3.98161e-06
1.46053e-07
3.99157e-06
1.33762e-07
3.99761e-06
2.11317e-07
4.00116e-06
2.22405e-07
3.98691e-06
2.17123e-07
3.98696e-06
2.19771e-07
3.98517e-06
2.26178e-07
3.98517e-06
2.10074e-07
3.98798e-06
1.98887e-07
4.00061e-06
1.75876e-07
1.62731e-07
4.00296e-06
4.15404e-06
1.82934e-09
4.17471e-06
2.00833e-07
4.15401e-06
-2.64547e-07
4.14561e-06
-1.33047e-08
4.18491e-06
4.30517e-07
4.16302e-06
-1.35776e-07
4.14835e-06
-3.57234e-07
4.13145e-06
-2.67774e-07
4.13745e-06
3.62723e-08
4.13316e-06
1.50336e-07
4.14331e-06
1.23618e-07
4.13758e-06
2.17047e-07
4.13627e-06
2.23716e-07
4.13616e-06
2.1723e-07
4.13846e-06
2.17472e-07
4.13693e-06
2.27706e-07
4.13623e-06
2.10776e-07
4.1385e-06
1.96619e-07
4.15272e-06
1.61652e-07
1.60612e-07
4.15484e-06
4.31211e-06
6.90649e-09
4.33193e-06
1.81008e-07
4.31341e-06
-2.46023e-07
4.30321e-06
-3.10741e-09
4.34182e-06
3.91906e-07
4.32229e-06
-1.1624e-07
4.30334e-06
-3.38288e-07
4.2925e-06
-2.5693e-07
4.2919e-06
3.6872e-08
4.29402e-06
1.48215e-07
4.29218e-06
1.2546e-07
4.31248e-06
1.96748e-07
4.31391e-06
2.22287e-07
4.32273e-06
2.08408e-07
4.32922e-06
2.10975e-07
4.33971e-06
2.17224e-07
4.34518e-06
2.05303e-07
4.34062e-06
2.01176e-07
4.3137e-06
1.88576e-07
1.6295e-07
4.31136e-06
4.47633e-06
1.16652e-08
4.49488e-06
1.62455e-07
4.479e-06
-2.30139e-07
4.46667e-06
9.21822e-09
4.50495e-06
3.53631e-07
4.48668e-06
-9.79722e-08
4.46736e-06
-3.18968e-07
4.4551e-06
-2.44671e-07
4.45754e-06
3.44282e-08
4.45497e-06
1.50784e-07
4.45558e-06
1.24852e-07
4.45751e-06
1.94819e-07
4.45628e-06
2.23521e-07
4.45545e-06
2.09233e-07
4.45787e-06
2.0856e-07
4.45902e-06
2.16074e-07
4.45696e-06
2.07363e-07
4.45952e-06
1.98611e-07
4.47354e-06
1.74562e-07
1.60661e-07
4.47583e-06
4.64679e-06
1.60818e-08
4.66413e-06
1.45118e-07
4.65037e-06
-2.16386e-07
4.637e-06
2.25909e-08
4.67377e-06
3.16861e-07
4.65776e-06
-8.19582e-08
4.63713e-06
-2.98338e-07
4.62382e-06
-2.31362e-07
4.62934e-06
2.89048e-08
4.62146e-06
1.5867e-07
4.6249e-06
1.21405e-07
4.62592e-06
1.93805e-07
4.62656e-06
2.2288e-07
4.62355e-06
2.12246e-07
4.62793e-06
2.04176e-07
4.62837e-06
2.15632e-07
4.63009e-06
2.05644e-07
4.63225e-06
1.96451e-07
4.64167e-06
1.65144e-07
1.56388e-07
4.64594e-06
4.82378e-06
2.00901e-08
4.83978e-06
1.29114e-07
4.82799e-06
-2.04593e-07
4.81432e-06
3.62651e-08
4.84847e-06
2.82706e-07
4.83617e-06
-6.96556e-08
4.8121e-06
-2.74267e-07
4.80086e-06
-2.20121e-07
4.80374e-06
2.60183e-08
4.79912e-06
1.63297e-07
4.79528e-06
1.25246e-07
4.80188e-06
1.87196e-07
4.8016e-06
2.23161e-07
4.80006e-06
2.13789e-07
4.80244e-06
2.01794e-07
4.80874e-06
2.09331e-07
4.81818e-06
1.96212e-07
4.82805e-06
1.86576e-07
4.81855e-06
1.74646e-07
1.5317e-07
4.82177e-06
5.00757e-06
2.35954e-08
5.02201e-06
1.14671e-07
5.01225e-06
-1.94836e-07
4.99844e-06
5.00807e-08
5.02991e-06
2.51235e-07
5.02067e-06
-6.04206e-08
4.99539e-06
-2.48987e-07
4.9829e-06
-2.07633e-07
4.98596e-06
2.29591e-08
4.98191e-06
1.67355e-07
4.97728e-06
1.29875e-07
4.98311e-06
1.81364e-07
4.98445e-06
2.21816e-07
4.98309e-06
2.15155e-07
4.9856e-06
1.99284e-07
4.99032e-06
2.0461e-07
4.98994e-06
1.96586e-07
4.98954e-06
1.86977e-07
5.00067e-06
1.63514e-07
1.49206e-07
5.00464e-06
5.19829e-06
2.662e-08
5.21143e-06
1.01527e-07
5.20308e-06
-1.86485e-07
5.19026e-06
6.29073e-08
5.21762e-06
2.23869e-07
5.21229e-06
-5.5087e-08
5.18559e-06
-2.22288e-07
5.17202e-06
-1.94064e-07
5.17478e-06
2.01951e-08
5.17168e-06
1.70463e-07
5.16622e-06
1.35334e-07
5.17167e-06
1.75915e-07
5.17423e-06
2.19246e-07
5.17339e-06
2.15996e-07
5.17526e-06
1.97415e-07
5.17984e-06
2.00034e-07
5.18466e-06
1.91769e-07
5.19169e-06
1.79941e-07
5.19054e-06
1.64666e-07
1.4551e-07
5.19424e-06
5.3963e-06
2.90963e-08
5.40805e-06
8.97815e-08
5.40102e-06
-1.79458e-07
5.38971e-06
7.42166e-08
5.41233e-06
2.01247e-07
5.41027e-06
-5.30208e-08
5.3834e-06
-1.9542e-07
5.36815e-06
-1.78816e-07
5.37063e-06
1.77128e-08
5.36889e-06
1.72205e-07
5.36283e-06
1.41396e-07
5.36761e-06
1.71135e-07
5.37107e-06
2.1578e-07
5.37112e-06
2.15952e-07
5.37212e-06
1.96413e-07
5.37676e-06
1.9539e-07
5.37925e-06
1.89287e-07
5.38178e-06
1.77403e-07
5.38777e-06
1.58676e-07
1.42153e-07
5.39113e-06
5.60182e-06
3.10156e-08
5.61228e-06
7.93193e-08
5.60628e-06
-1.73456e-07
5.59729e-06
8.32034e-08
5.61463e-06
1.83909e-07
5.61477e-06
-5.31621e-08
5.58888e-06
-1.6953e-07
5.57185e-06
-1.6178e-07
5.57397e-06
1.55881e-08
5.57382e-06
1.7236e-07
5.56714e-06
1.48073e-07
5.57111e-06
1.67163e-07
5.57543e-06
2.11459e-07
5.57639e-06
2.14992e-07
5.57679e-06
1.96013e-07
5.58165e-06
1.90528e-07
5.58501e-06
1.85925e-07
5.58892e-06
1.73495e-07
5.59263e-06
1.54967e-07
1.39235e-07
5.59555e-06
5.81511e-06
3.23891e-08
5.82447e-06
6.99559e-08
5.81912e-06
-1.68103e-07
5.81319e-06
8.91326e-08
5.82505e-06
1.72046e-07
5.82662e-06
-5.47356e-08
5.80193e-06
-1.44835e-07
5.78393e-06
-1.43777e-07
5.78496e-06
1.45561e-08
5.78658e-06
1.70737e-07
5.77945e-06
1.55202e-07
5.78286e-06
1.63755e-07
5.78752e-06
2.06802e-07
5.78937e-06
2.13139e-07
5.78944e-06
1.95944e-07
5.79436e-06
1.85607e-07
5.79998e-06
1.80308e-07
5.80589e-06
1.67586e-07
5.80548e-06
1.55376e-07
1.36771e-07
5.80794e-06
6.03651e-06
3.3175e-08
6.04467e-06
6.1801e-08
6.04001e-06
-1.63441e-07
6.03666e-06
9.2483e-08
6.04464e-06
1.64058e-07
6.04538e-06
-5.5475e-08
6.0233e-06
-1.22754e-07
6.004e-06
-1.24476e-07
6.00439e-06
1.41624e-08
6.00719e-06
1.67946e-07
6.00044e-06
1.61946e-07
6.00262e-06
1.61579e-07
6.00767e-06
2.01752e-07
6.01022e-06
2.10584e-07
6.01071e-06
1.95453e-07
6.01463e-06
1.81689e-07
6.01805e-06
1.76886e-07
6.01973e-06
1.65911e-07
6.02619e-06
1.4892e-07
1.34509e-07
6.02845e-06
6.26627e-06
3.34009e-08
6.27337e-06
5.47049e-08
6.26913e-06
-1.592e-07
6.26827e-06
9.33442e-08
6.273e-06
1.59324e-07
6.2727e-06
-5.51684e-08
6.2528e-06
-1.02855e-07
6.23297e-06
-1.0465e-07
6.23224e-06
1.48911e-08
6.23603e-06
1.64155e-07
6.23e-06
1.67975e-07
6.23101e-06
1.60574e-07
6.23621e-06
1.9655e-07
6.23958e-06
2.07217e-07
6.24051e-06
1.94519e-07
6.24361e-06
1.78588e-07
6.24936e-06
1.71143e-07
6.25461e-06
1.6066e-07
6.25527e-06
1.48257e-07
1.32328e-07
6.25745e-06
6.50476e-06
3.30493e-08
6.5107e-06
4.87569e-08
6.50688e-06
-1.55379e-07
6.50806e-06
9.21661e-08
6.51064e-06
1.56747e-07
6.50886e-06
-5.33907e-08
6.49092e-06
-8.4916e-08
6.47092e-06
-8.4646e-08
6.46886e-06
1.69525e-08
6.47359e-06
1.59417e-07
6.46851e-06
1.7306e-07
6.46838e-06
1.60704e-07
6.4735e-06
1.91429e-07
6.47748e-06
2.03241e-07
6.47901e-06
1.92983e-07
6.48127e-06
1.76332e-07
6.48503e-06
1.67379e-07
6.48721e-06
1.58479e-07
6.49314e-06
1.42331e-07
1.29993e-07
6.49548e-06
6.75224e-06
3.21502e-08
6.75695e-06
4.40461e-08
6.7536e-06
-1.5203e-07
6.75655e-06
8.92217e-08
6.75791e-06
1.55382e-07
6.75425e-06
-4.97305e-08
6.73795e-06
-6.86168e-08
6.71812e-06
-6.48118e-08
6.71471e-06
2.03585e-08
6.72004e-06
1.54085e-07
6.71605e-06
1.77057e-07
6.71505e-06
1.61704e-07
6.72002e-06
1.86457e-07
6.72441e-06
1.98849e-07
6.72663e-06
1.90757e-07
6.72839e-06
1.74571e-07
6.73371e-06
1.6206e-07
6.73866e-06
1.53534e-07
6.74004e-06
1.40948e-07
1.277e-07
6.74233e-06
7.00909e-06
3.07116e-08
7.01241e-06
4.07262e-08
7.00959e-06
-1.49215e-07
7.01403e-06
8.47886e-08
7.01489e-06
1.54518e-07
7.00954e-06
-4.43835e-08
6.99436e-06
-5.34305e-08
6.97491e-06
-4.53607e-08
6.97018e-06
2.50816e-08
6.97578e-06
1.48491e-07
6.97304e-06
1.7979e-07
6.97149e-06
1.63261e-07
6.97604e-06
1.819e-07
6.98048e-06
1.94418e-07
6.98352e-06
1.87707e-07
6.98504e-06
1.73056e-07
6.9883e-06
1.58799e-07
6.99092e-06
1.50917e-07
6.99621e-06
1.3566e-07
1.25154e-07
6.99875e-06
7.2756e-06
2.87992e-08
7.27743e-06
3.88988e-08
7.27523e-06
-1.47011e-07
7.28107e-06
7.89481e-08
7.28251e-06
1.53078e-07
7.27483e-06
-3.67012e-08
7.26044e-06
-3.90467e-08
7.24158e-06
-2.64995e-08
7.23558e-06
3.10817e-08
7.24114e-06
1.42936e-07
7.2398e-06
1.81123e-07
7.23786e-06
1.65206e-07
7.24193e-06
1.77829e-07
7.24632e-06
1.90024e-07
7.25014e-06
1.83892e-07
7.25169e-06
1.71499e-07
7.25585e-06
1.54644e-07
7.2605e-06
1.4627e-07
7.26243e-06
1.3373e-07
1.22353e-07
7.26523e-06
7.55217e-06
2.6455e-08
7.55282e-06
3.82585e-08
7.55084e-06
-1.45032e-07
7.55793e-06
7.18496e-08
7.55969e-06
1.51322e-07
7.55018e-06
-2.71881e-08
7.53678e-06
-2.5651e-08
7.5185e-06
-8.22097e-09
7.51143e-06
3.8157e-08
7.51669e-06
1.37678e-07
7.51669e-06
1.81116e-07
7.51453e-06
1.67372e-07
7.51813e-06
1.7423e-07
7.52235e-06
1.85795e-07
7.52663e-06
1.79619e-07
7.52854e-06
1.69584e-07
7.53106e-06
1.52122e-07
7.53381e-06
1.43527e-07
7.53847e-06
1.29062e-07
1.19331e-07
7.5415e-06
7.83911e-06
2.38002e-08
7.83908e-06
3.82912e-08
7.83655e-06
-1.42501e-07
7.84544e-06
6.29598e-08
7.84648e-06
1.50278e-07
7.83564e-06
-1.63433e-08
7.82383e-06
-1.38409e-08
7.80597e-06
9.63158e-09
7.79797e-06
4.61597e-08
7.80268e-06
1.32965e-07
7.80396e-06
1.79842e-07
7.80188e-06
1.69448e-07
7.80502e-06
1.71094e-07
7.80903e-06
1.81782e-07
7.81351e-06
1.75137e-07
7.81607e-06
1.67029e-07
7.8191e-06
1.49089e-07
7.82323e-06
1.394e-07
7.82535e-06
1.26939e-07
1.16134e-07
7.82855e-06
8.13682e-06
2.09404e-08
8.13646e-06
3.86529e-08
8.13277e-06
-1.38812e-07
8.14352e-06
5.22125e-08
8.14787e-06
1.45927e-07
8.1447e-06
-1.31712e-08
8.12267e-06
8.18503e-09
8.10428e-06
2.80251e-08
8.09582e-06
5.4617e-08
8.09974e-06
1.2904e-07
8.10203e-06
1.77553e-07
8.10023e-06
1.71247e-07
8.10291e-06
1.68414e-07
8.10677e-06
1.77925e-07
8.11123e-06
1.7068e-07
8.11423e-06
1.64028e-07
8.11632e-06
1.46997e-07
8.11898e-06
1.36742e-07
8.12314e-06
1.22776e-07
1.1295e-07
8.12633e-06
8.44575e-06
1.79524e-08
8.445e-06
3.94026e-08
8.44045e-06
-1.34266e-07
8.45207e-06
4.05928e-08
8.45741e-06
1.40586e-07
8.44178e-06
2.46646e-09
8.42953e-06
2.04356e-08
8.41426e-06
4.32896e-08
8.40529e-06
6.3589e-08
8.40822e-06
1.26108e-07
8.41137e-06
1.74405e-07
8.41004e-06
1.72576e-07
8.41236e-06
1.661e-07
8.41606e-06
1.7422e-07
8.4202e-06
1.66541e-07
8.42375e-06
1.60481e-07
8.42627e-06
1.44471e-07
8.42961e-06
1.33403e-07
8.43233e-06
1.2006e-07
1.09768e-07
8.43551e-06
8.76622e-06
1.50153e-08
8.76576e-06
3.98656e-08
8.75877e-06
-1.27275e-07
8.77054e-06
2.88204e-08
8.77084e-06
1.40289e-07
8.75926e-06
1.4042e-08
8.74917e-06
3.05238e-08
8.73589e-06
5.65714e-08
8.72681e-06
7.26737e-08
8.72869e-06
1.24227e-07
8.73239e-06
1.70707e-07
8.73166e-06
1.73299e-07
8.73361e-06
1.6415e-07