/*--------------------------------*- C++ -*----------------------------------*\
| =========                 |                                                 |
| \\      /  F ield         | OpenFOAM: The Open Source CFD Toolbox           |
|  \\    /   O peration     | Version:  v2012                                 |
|   \\  /    A nd           | Website:  www.openfoam.com                      |
|    \\/     M anipulation  |                                                 |
\*---------------------------------------------------------------------------*/
FoamFile
{
    version     2.0;
    format      ascii;
    class       volVectorField;
    location    "5";
    object      U;
}
// * * * * * * * * * * * * * * * * * * * * * * * * * * * * * * * * * * * * * //

dimensions      [0 1 -1 0 0 0 0];


internalField   nonuniform List<vector> 
7000
(
(0.919134 0.00164432 0)
(1.19091 0.00167263 0)
(0.681647 -0.00807028 0)
(1.25032 0.00559341 0)
(0.901773 0.0110179 0)
(0.978793 -0.00966408 0)
(0.900678 -0.00876987 0)
(1.16954 -0.0170327 0)
(0.827171 0.00368231 0)
(1.20322 0.00722258 0)
(0.810581 0.00646087 0)
(1.16298 0.00502698 0)
(0.819125 0.00812201 0)
(1.16765 0.00562773 0)
(0.823879 0.0110925 0)
(1.14711 0.010479 0)
(0.825243 0.0109623 0)
(1.11329 0.0114589 0)
(0.830839 0.0104155 0)
(1.08555 0.0115804 0)
(0.922808 0.00110139 0)
(1.18274 0.00323211 0)
(0.70384 -0.00867952 0)
(1.24025 0.00459078 0)
(0.915705 0.0125166 0)
(0.97742 -0.0095031 0)
(0.910615 -0.010746 0)
(1.15733 -0.0160517 0)
(0.836606 0.00312121 0)
(1.18929 0.00775464 0)
(0.829092 0.0066771 0)
(1.14288 0.00533241 0)
(0.843481 0.00767949 0)
(1.13911 0.00584102 0)
(0.858103 0.0111528 0)
(1.10492 0.010553 0)
(0.87744 0.0118047 0)
(1.05216 0.0110127 0)
(0.904895 0.0118795 0)
(1.00116 0.0104811 0)
(0.930233 0.000609471 0)
(1.16706 0.00432826 0)
(0.743581 -0.00930674 0)
(1.2167 0.00361405 0)
(0.941891 0.0141812 0)
(0.97746 -0.00939153 0)
(0.92697 -0.0123615 0)
(1.13603 -0.0150979 0)
(0.86107 0.00238787 0)
(1.15993 0.00827894 0)
(0.86988 0.00696473 0)
(1.10388 0.00543433 0)
(0.891992 0.00737032 0)
(1.08962 0.00589706 0)
(0.91514 0.0116168 0)
(1.04672 0.0104114 0)
(0.937414 0.0130582 0)
(0.996629 0.0104952 0)
(0.953537 0.0132832 0)
(0.963192 0.0100814 0)
(0.940781 0.00019035 0)
(1.14492 0.00521083 0)
(0.795037 -0.00976595 0)
(1.18078 0.00277804 0)
(0.972487 0.0155219 0)
(0.980085 -0.00917299 0)
(0.946151 -0.0136332 0)
(1.10744 -0.0143936 0)
(0.897873 0.00189186 0)
(1.12046 0.0084131 0)
(0.921655 0.00746895 0)
(1.05962 0.00524667 0)
(0.943534 0.00750076 0)
(1.04238 0.00561478 0)
(0.962893 0.0124418 0)
(1.00603 0.010064 0)
(0.972367 0.0142282 0)
(0.974004 0.0102415 0)
(0.971409 0.0142204 0)
(0.95837 0.0102809 0)
(0.953308 -0.000175725 0)
(1.1183 0.00591539 0)
(0.850259 -0.0100778 0)
(1.1374 0.00196482 0)
(0.999383 0.0166058 0)
(0.985795 -0.00885969 0)
(0.963884 -0.0146191 0)
(1.07643 -0.0139733 0)
(0.937441 0.0016692 0)
(1.0819 0.00821472 0)
(0.968016 0.00819216 0)
(1.02683 0.00497364 0)
(0.980516 0.00783141 0)
(1.01441 0.00525736 0)
(0.988843 0.0132453 0)
(0.990928 0.00985588 0)
(0.985561 0.015096 0)
(0.973685 0.010292 0)
(0.976725 0.0148315 0)
(0.965652 0.0106622 0)
(0.966366 -0.000480722 0)
(1.09008 0.00640631 0)
(0.901454 -0.0102477 0)
(1.0932 0.00123882 0)
(1.01726 0.0174212 0)
(0.993731 -0.00849446 0)
(0.977248 -0.0152747 0)
(1.04869 -0.0138151 0)
(0.96965 0.00159728 0)
(1.05343 0.00786041 0)
(0.999689 0.00893323 0)
(1.01168 0.00478667 0)
(0.999947 0.0081426 0)
(1.00521 0.00504625 0)
(0.99839 0.013864 0)
(0.991031 0.0098613 0)
(0.989259 0.0157054 0)
(0.980587 0.0104608 0)
(0.979916 0.015276 0)
(0.974675 0.0109959 0)
(0.978552 -0.000715799 0)
(1.06343 0.00669418 0)
(0.943363 -0.010284 0)
(1.05431 0.000670976 0)
(1.02459 0.0179195 0)
(1.00186 -0.00811518 0)
(0.985931 -0.0156189 0)
(1.02783 -0.0138592 0)
(0.989431 0.00155299 0)
(1.03692 0.00746246 0)
(1.0167 0.00953807 0)
(1.00923 0.00474221 0)
(1.0074 0.00841032 0)
(1.00534 0.00498277 0)
(1.00034 0.014347 0)
(0.995227 0.00994409 0)
(0.990813 0.0161668 0)
(0.987073 0.0106235 0)
(0.983671 0.015614 0)
(0.981952 0.0112655 0)
(0.988868 -0.000883132 0)
(1.04082 0.00681977 0)
(0.974147 -0.0102148 0)
(1.02446 0.000278923 0)
(1.02316 0.0181135 0)
(1.00824 -0.00776367 0)
(0.991459 -0.0157244 0)
(1.01432 -0.0140114 0)
(0.997523 0.00147277 0)
(1.02831 0.00704564 0)
(1.02343 0.00998547 0)
(1.0114 0.00481414 0)
(1.00889 0.00868422 0)
(1.00697 0.0049857 0)
(0.99993 0.0147723 0)
(0.998177 0.00999884 0)
(0.992268 0.0165621 0)
(0.991142 0.0107518 0)
(0.987493 0.015865 0)
(0.986962 0.0115043 0)
(0.996908 -0.000993997 0)
(1.02337 0.00683041 0)
(0.994741 -0.0100776 0)
(1.00441 5.63937e-05 0)
(1.01663 0.0180693 0)
(1.01208 -0.00747994 0)
(0.995534 -0.0156726 0)
(1.00658 -0.0141759 0)
(0.997881 0.00135748 0)
(1.02249 0.00659641 0)
(1.02411 0.0103137 0)
(1.01286 0.00494591 0)
(1.00781 0.00899752 0)
(1.00683 0.00500006 0)
(0.998892 0.01518 0)
(0.998873 0.0100034 0)
(0.993487 0.0169146 0)
(0.993126 0.0108564 0)
(0.990568 0.0160332 0)
(0.99017 0.0117239 0)
(1.00278 -0.00106157 0)
(1.01083 0.00676677 0)
(1.00749 -0.00990512 0)
(0.992652 -1.68177e-05 0)
(1.0087 0.0178665 0)
(1.01376 -0.00728643 0)
(0.999041 -0.0155294 0)
(1.00255 -0.0142884 0)
(0.994745 0.0012463 0)
(1.01644 0.00610835 0)
(1.02134 0.0105571 0)
(1.01174 0.00509102 0)
(1.00541 0.00935413 0)
(1.0046 0.00500255 0)
(0.997472 0.0155692 0)
(0.997987 0.00996671 0)
(0.994159 0.0172 0)
(0.993876 0.0109542 0)
(0.992659 0.0161145 0)
(0.992203 0.0119226 0)
(1.00685 -0.00109728 0)
(1.00212 0.00665798 0)
(1.01494 -0.00972137 0)
(0.98671 2.83241e-05 0)
(1.00183 0.0175713 0)
(1.0142 -0.0071837 0)
(1.00211 -0.0153382 0)
(1.00053 -0.0143239 0)
(0.991006 0.00118499 0)
(1.0095 0.00559794 0)
(1.01657 0.010737 0)
(1.00828 0.00522292 0)
(1.00213 0.00973679 0)
(1.001 0.00498073 0)
(0.995661 0.0159107 0)
(0.996361 0.00989754 0)
(0.994281 0.0173853 0)
(0.994054 0.0110582 0)
(0.993942 0.0161062 0)
(0.993534 0.0121003 0)
(1.00952 -0.0011089 0)
(0.996069 0.00652193 0)
(1.01905 -0.0095415 0)
(0.984268 0.000158379 0)
(0.996986 0.0172272 0)
(1.0142 -0.00715799 0)
(1.00459 -0.0151197 0)
(0.999395 -0.0142835 0)
(0.987935 0.00120728 0)
(1.00225 0.00509694 0)
(1.01073 0.0108691 0)
(1.00347 0.00532557 0)
(0.998346 0.010122 0)
(0.996845 0.00492465 0)
(0.993561 0.0161719 0)
(0.994535 0.00980398 0)
(0.99401 0.0174512 0)
(0.993994 0.0111749 0)
(0.99466 0.0160145 0)
(0.99441 0.0122592 0)
(1.01106 -0.00110081 0)
(0.991846 0.00636823 0)
(1.02105 -0.00937315 0)
(0.983675 0.000344214 0)
(0.994112 0.0168576 0)
(1.01415 -0.00718871 0)
(1.00637 -0.01488 0)
(0.998442 -0.0141801 0)
(0.985685 0.00132648 0)
(0.995498 0.0046358 0)
(1.00455 0.0109649 0)
(0.998331 0.00539006 0)
(0.994486 0.0104888 0)
(0.992834 0.00483493 0)
(0.991387 0.0163299 0)
(0.992797 0.00969936 0)
(0.993505 0.0173923 0)
(0.993816 0.0113053 0)
(0.994978 0.0158541 0)
(0.994929 0.0124019 0)
(1.0116 -0.00107553 0)
(0.989096 0.00620228 0)
(1.02152 -0.00921823 0)
(0.983973 0.000561697 0)
(0.992807 0.0164737 0)
(1.01413 -0.00725497 0)
(1.00746 -0.0146177 0)
(0.997349 -0.0140269 0)
(0.98395 0.00153658 0)
(0.989828 0.00423325 0)
(0.99866 0.0110307 0)
(0.993624 0.00541451 0)
(0.991018 0.0108189 0)
(0.989482 0.00472468 0)
(0.989404 0.0163734 0)
(0.991323 0.0095997 0)
(0.992905 0.0172151 0)
(0.993576 0.0114477 0)
(0.995015 0.0156426 0)
(0.995157 0.0125313 0)
(1.01124 -0.00103556 0)
(0.987762 0.00602823 0)
(1.02071 -0.00907406 0)
(0.984688 0.000789698 0)
(0.992696 0.0160814 0)
(1.01411 -0.0073375 0)
(1.00789 -0.0143295 0)
(0.996053 -0.0138341 0)
(0.982435 0.00181872 0)
(0.985536 0.00389306 0)
(0.993535 0.0110711 0)
(0.989807 0.00540006 0)
(0.988316 0.0110966 0)
(0.987112 0.00461199 0)
(0.987856 0.0163028 0)
(0.990251 0.00952065 0)
(0.99234 0.0169363 0)
(0.993348 0.0115992 0)
(0.994888 0.0153971 0)
(0.995185 0.0126488 0)
(1.01011 -0.000984482 0)
(0.987836 0.0058505 0)
(1.01877 -0.0089346 0)
(0.985617 0.00100832 0)
(0.993515 0.0156854 0)
(1.01403 -0.00741874 0)
(1.00775 -0.0140132 0)
(0.994638 -0.0136095 0)
(0.981033 0.00214725 0)
(0.982709 0.00360762 0)
(0.989544 0.0110893 0)
(0.987085 0.00535079 0)
(0.986607 0.0113093 0)
(0.985845 0.00451714 0)
(0.986914 0.0161269 0)
(0.989674 0.00947592 0)
(0.99193 0.0165776 0)
(0.993222 0.0117579 0)
(0.994719 0.0151343 0)
(0.995129 0.0127537 0)
(1.0084 -0.000926971 0)
(0.989155 0.0056739 0)
(1.01595 -0.00879214 0)
(0.986669 0.00119891 0)
(0.995044 0.0152898 0)
(1.01384 -0.00748293 0)
(1.00715 -0.0136688 0)
(0.993234 -0.01336 0)
(0.979811 0.00249513 0)
(0.98129 0.00336228 0)
(0.986918 0.0110866 0)
(0.985496 0.00527556 0)
(0.98596 0.0114455 0)
(0.985614 0.00446372 0)
(0.986637 0.0158599 0)
(0.989612 0.00947533 0)
(0.991755 0.0161596 0)
(0.993272 0.011921 0)
(0.994613 0.0148753 0)
(0.995101 0.0128473 0)
(1.00642 -0.000867922 0)
(0.991342 0.0055027 0)
(1.01263 -0.00863947 0)
(0.987778 0.00134581 0)
(0.997036 0.0148987 0)
(1.01354 -0.00751699 0)
(1.00624 -0.0132982 0)
(0.991964 -0.0130935 0)
(0.978899 0.00283733 0)
(0.981086 0.00314079 0)
(0.98571 0.0110613 0)
(0.984986 0.00518866 0)
(0.986297 0.0114956 0)
(0.986232 0.00447186 0)
(0.986985 0.0155213 0)
(0.990012 0.00952783 0)
(0.991851 0.0157038 0)
(0.993536 0.0120763 0)
(0.994642 0.0146373 0)
(0.995179 0.0129358 0)
(1.00449 -0.000811377 0)
(0.993883 0.00534007 0)
(1.00926 -0.00847157 0)
(0.988874 0.00143883 0)
(0.999208 0.0145151 0)
(1.01313 -0.00751189 0)
(1.00519 -0.0129053 0)
(0.99091 -0.0128186 0)
(0.978402 0.00315382 0)
(0.981793 0.00292697 0)
(0.985786 0.0110103 0)
(0.985426 0.00510925 0)
(0.987435 0.0114569 0)
(0.987457 0.00455135 0)
(0.987846 0.015128 0)
(0.990766 0.00963977 0)
(0.992216 0.0152438 0)
(0.994007 0.0122103 0)
(0.994846 0.0144187 0)
(0.995405 0.0130199 0)
(1.00285 -0.000759692 0)
(0.99628 0.00518751 0)
(1.00622 -0.00828648 0)
(0.989885 0.00147485 0)
(1.00129 0.0141404 0)
(1.01266 -0.00746383 0)
(1.00416 -0.0124948 0)
(0.990112 -0.0125418 0)
(0.978353 0.00343 0)
(0.983047 0.00270937 0)
(0.986842 0.0109234 0)
(0.986611 0.00505884 0)
(0.989117 0.0113376 0)
(0.989042 0.00470703 0)
(0.989078 0.0146929 0)
(0.991751 0.00980034 0)
(0.992822 0.0148111 0)
(0.994648 0.0123304 0)
(0.99523 0.0142159 0)
(0.995779 0.0130941 0)
(1.00164 -0.000713303 0)
(0.998203 0.00504446 0)
(1.00374 -0.00808524 0)
(0.990758 0.00145749 0)
(1.00306 0.0137753 0)
(1.01216 -0.0073742 0)
(1.00326 -0.012072 0)
(0.98957 -0.0122666 0)
(0.978719 0.00365638 0)
(0.9845 0.00248682 0)
(0.988475 0.0107834 0)
(0.988265 0.00504961 0)
(0.991051 0.011153 0)
(0.990763 0.00494227 0)
(0.990521 0.0142373 0)
(0.992845 0.00999158 0)
(0.993617 0.0144111 0)
(0.995399 0.0124439 0)
(0.99577 0.0140371 0)
(0.996271 0.0131626 0)
(1.00088 -0.00067137 0)
(0.999544 0.00490921 0)
(1.00191 -0.00787036 0)
(0.991472 0.00139422 0)
(1.00441 0.01342 0)
(1.01168 -0.00724752 0)
(1.00257 -0.0116424 0)
(0.989261 -0.0119945 0)
(0.979422 0.0038307 0)
(0.985894 0.0022627 0)
(0.990275 0.010581 0)
(0.990069 0.00508511 0)
(0.992956 0.0109128 0)
(0.992429 0.00524329 0)
(0.992014 0.0137843 0)
(0.993937 0.0102099 0)
(0.994522 0.0140507 0)
(0.99619 0.0125481 0)
(0.996412 0.0138799 0)
(0.99683 0.0132263 0)
(1.00047 -0.000632569 0)
(1.00038 0.00477961 0)
(1.00064 -0.0076447 0)
(0.992041 0.00129489 0)
(1.00532 0.0130716 0)
(1.01124 -0.00708935 0)
(1.00211 -0.0112113 0)
(0.989157 -0.0117253 0)
(0.980362 0.0039549 0)
(0.987095 0.00204656 0)
(0.991912 0.0103083 0)
(0.991726 0.00517151 0)
(0.994601 0.0106341 0)
(0.993887 0.00558835 0)
(0.993405 0.0133354 0)
(0.994933 0.0104341 0)
(0.995432 0.0137347 0)
(0.996949 0.0126514 0)
(0.997078 0.0137572 0)
(0.997389 0.0132878 0)
(1.00028 -0.000595624 0)
(1.00088 0.00465331 0)
(0.999782 -0.00741021 0)
(0.992498 0.00116955 0)
(1.00583 0.0127269 0)
(1.01083 -0.00690939 0)
(1.00184 -0.0107777 0)
(0.989232 -0.0114593 0)
(0.981437 0.0040278 0)
(0.988076 0.00186052 0)
(0.993189 0.00995799 0)
(0.993027 0.00529784 0)
(0.995835 0.0103278 0)
(0.995034 0.00597351 0)
(0.99457 0.012911 0)
(0.99576 0.0106449 0)
(0.996247 0.0134467 0)
(0.997611 0.012726 0)
(0.997685 0.0136604 0)
(0.997887 0.0133613 0)
(1.00018 -0.000559919 0)
(1.00123 0.00452874 0)
(0.99921 -0.00716812 0)
(0.992884 0.00102578 0)
(1.00599 0.0123844 0)
(1.01046 -0.00671348 0)
(1.00171 -0.010348 0)
(0.989463 -0.0111887 0)
(0.98256 0.00404421 0)
(0.988873 0.00172055 0)
(0.994049 0.00955362 0)
(0.993887 0.0054594 0)
(0.996605 0.00998011 0)
(0.99583 0.00636404 0)
(0.995431 0.0125246 0)
(0.996369 0.0108583 0)
(0.996882 0.0132152 0)
(0.998129 0.0127808 0)
(0.998174 0.0135524 0)
(0.998279 0.0134172 0)
(1.00008 -0.000525481 0)
(1.00155 0.00440467 0)
(0.99882 -0.00691903 0)
(0.993231 0.000870131 0)
(1.00589 0.012041 0)
(1.01009 -0.00650351 0)
(1.00166 -0.00993174 0)
(0.989822 -0.0109072 0)
(0.983663 0.00401654 0)
(0.989544 0.00162468 0)
(0.994542 0.00909621 0)
(0.994334 0.00567646 0)
(0.996945 0.00962669 0)
(0.996294 0.006734 0)
(0.995976 0.0121487 0)
(0.996758 0.0110342 0)
(0.997299 0.0130274 0)
(0.998481 0.0128506 0)
(0.998506 0.0134719 0)
(0.998549 0.0134658 0)
(0.999941 -0.000492126 0)
(1.0019 0.00427937 0)
(0.998557 -0.00666334 0)
(0.993557 0.000709589 0)
(1.00558 0.0116942 0)
(1.0097 -0.00628231 0)
(1.00162 -0.00953543 0)
(0.990266 -0.0106049 0)
(0.984704 0.00393192 0)
(0.990131 0.00161796 0)
(0.994779 0.00857133 0)
(0.994479 0.00590261 0)
(0.996951 0.00928262 0)
(0.996491 0.00709732 0)
(0.996239 0.0118304 0)
(0.996954 0.0111816 0)
(0.997514 0.0128439 0)
(0.998685 0.0128833 0)
(0.998687 0.0133769 0)
(0.998699 0.0135086 0)
(0.999733 -0.000459943 0)
(1.00228 0.0041513 0)
(0.998404 -0.00639853 0)
(0.993868 0.000545039 0)
(1.00513 0.0113474 0)
(1.0093 -0.00605597 0)
(1.00156 -0.00915808 0)
(0.990749 -0.0102827 0)
(0.985662 0.00380321 0)
(0.990659 0.00164784 0)
(0.994871 0.00808404 0)
(0.994452 0.00610311 0)
(0.996748 0.00895853 0)
(0.996522 0.00735761 0)
(0.996296 0.0115678 0)
(0.997005 0.0113108 0)
(0.997564 0.0127388 0)
(0.998765 0.0129109 0)
(0.99875 0.0132776 0)
(0.998763 0.0135175 0)
(0.999463 -0.00042934 0)
(1.00269 0.00401834 0)
(0.998357 -0.00612339 0)
(0.994158 0.000379613 0)
(1.00459 0.011002 0)
(1.00886 -0.0058315 0)
(1.00149 -0.00878882 0)
(0.991227 -0.00996634 0)
(0.986521 0.00367479 0)
(0.991137 0.00171306 0)
(0.994911 0.0075752 0)
(0.994363 0.00634243 0)
(0.996443 0.00867968 0)
(0.996472 0.00759252 0)
(0.996245 0.0112896 0)
(0.996982 0.0113937 0)
(0.997521 0.0126149 0)
(0.998774 0.0129897 0)
(0.998738 0.0132063 0)
(0.998765 0.0135257 0)
(0.999147 -0.000401034 0)
(1.00308 0.00388328 0)
(0.998417 -0.00585018 0)
(0.994417 0.000237506 0)
(1.00404 0.0106304 0)
(1.0084 -0.00556686 0)
(1.00138 -0.00850955 0)
(0.991665 -0.00954772 0)
(0.987283 0.00340041 0)
(0.991552 0.00192655 0)
(0.994953 0.0069843 0)
(0.994291 0.00662286 0)
(0.996134 0.00833716 0)
(0.99641 0.00787333 0)
(0.996157 0.0109745 0)
(0.996931 0.01153 0)
(0.99745 0.0124235 0)
(0.998755 0.0130875 0)
(0.998694 0.0131005 0)
(0.998748 0.0134968 0)
(0.998812 -0.000368622 0)
(1.00342 0.00373092 0)
(0.998576 -0.00555354 0)
(0.994637 7.99562e-05 0)
(1.00351 0.0102863 0)
(1.00793 -0.00533532 0)
(1.00126 -0.00817423 0)
(0.992045 -0.00921768 0)
(0.987943 0.00321634 0)
(0.991912 0.00205061 0)
(0.995019 0.00652517 0)
(0.994257 0.00678549 0)
(0.995875 0.00814806 0)
(0.99639 0.00798925 0)
(0.996099 0.0107759 0)
(0.996905 0.0115369 0)
(0.997392 0.0123246 0)
(0.998732 0.0130454 0)
(0.998639 0.0130585 0)
(0.99873 0.0135145 0)
(0.998489 -0.000343061 0)
(1.00367 0.00358566 0)
(0.99882 -0.00527063 0)
(0.994811 -3.31278e-05 0)
(1.00304 0.00989376 0)
(1.00746 -0.00504542 0)
(1.00113 -0.00792225 0)
(0.992379 -0.00878805 0)
(0.988508 0.0029156 0)
(0.992202 0.00229902 0)
(0.995112 0.00602515 0)
(0.994279 0.00691711 0)
(0.995684 0.00802846 0)
(0.996415 0.00803872 0)
(0.996103 0.0106414 0)
(0.996918 0.0114868 0)
(0.997391 0.0122496 0)
(0.998764 0.012963 0)
(0.998667 0.0130432 0)
(0.998742 0.0135251 0)
(0.998209 -0.000314394 0)
(1.00381 0.00342442 0)
(0.999127 -0.00497725 0)
(0.994934 -0.000134961 0)
(1.00266 0.00950634 0)
(1.00701 -0.00476645 0)
(1.00102 -0.00771163 0)
(0.992663 -0.00832792 0)
(0.988995 0.00259758 0)
(0.99244 0.00250311 0)
(0.995214 0.00564484 0)
(0.994335 0.00690842 0)
(0.99556 0.00803345 0)
(0.996499 0.00793891 0)
(0.996186 0.0105634 0)
(0.996986 0.0113614 0)
(0.997444 0.0122284 0)
(0.998814 0.0127987 0)
(0.998719 0.0130607 0)
(0.998767 0.0135723 0)
(0.997994 -0.000273328 0)
(1.00382 0.00322823 0)
(0.999469 -0.0046462 0)
(0.995014 -0.000267807 0)
(1.00237 0.00915715 0)
(1.00659 -0.00452592 0)
(1.00092 -0.00737956 0)
(0.992934 -0.00805766 0)
(0.989415 0.00249522 0)
(0.992622 0.00256263 0)
(0.995327 0.00537946 0)
(0.994424 0.00688465 0)
(0.995488 0.00803939 0)
(0.996607 0.00794889 0)
(0.996341 0.0104114 0)
(0.997098 0.0113025 0)
(0.997566 0.0122086 0)
(0.998932 0.0127469 0)
(0.998897 0.0130303 0)
(0.998835 0.0135718 0)
(0.997852 -0.000254889 0)
(1.00373 0.00307926 0)
(0.999813 -0.00439009 0)
(0.995062 -0.000282731 0)
(1.00217 0.00866455 0)
(1.00621 -0.00410123 0)
(1.00084 -0.00730306 0)
(0.993194 -0.0074253 0)
(0.989804 0.00191165 0)
(0.992755 0.00305194 0)
(0.995454 0.0047209 0)
(0.99451 0.00719855 0)
(0.995467 0.0075885 0)
(0.996725 0.00831017 0)
(0.996555 0.00999465 0)
(0.997263 0.0115678 0)
(0.997742 0.0120148 0)
(0.999058 0.0129758 0)
(0.999061 0.0128334 0)
(0.998917 0.0133718 0)
(0.997779 -0.000213867 0)
(1.00357 0.0028783 0)
(1.00012 -0.00408511 0)
(0.995106 -0.000339634 0)
(1.00202 0.00825215 0)
(1.00586 -0.00383101 0)
(1.00081 -0.00708434 0)
(0.993451 -0.00701112 0)
(0.990176 0.00171483 0)
(0.992866 0.00310197 0)
(0.995582 0.00451072 0)
(0.994602 0.00700178 0)
(0.995478 0.00769644 0)
(0.996865 0.00817544 0)
(0.996794 0.0099763 0)
(0.997438 0.0113718 0)
(0.99793 0.0120288 0)
(0.999166 0.0127704 0)
(0.999179 0.0128131 0)
(0.998997 0.0133908 0)
(0.997769 -0.000163484 0)
(1.00336 0.00265326 0)
(1.00038 -0.00375562 0)
(0.995159 -0.000415373 0)
(1.00191 0.00787055 0)
(1.00556 -0.00357836 0)
(1.00078 -0.00674121 0)
(0.993754 -0.00681849 0)
(0.990516 0.00176405 0)
(0.992969 0.00297692 0)
(0.995704 0.00460512 0)
(0.994722 0.00665791 0)
(0.995496 0.00791466 0)
(0.996978 0.00794089 0)
(0.997052 0.010075 0)
(0.997628 0.0112166 0)
(0.998147 0.012144 0)
(0.999316 0.0126 0)
(0.999431 0.0127862 0)
(0.999094 0.0133661 0)
(0.997808 -0.000141845 0)
(1.00313 0.00250668 0)
(1.00058 -0.00354454 0)
(0.995226 -0.000348968 0)
(1.00183 0.00729107 0)
(1.00527 -0.00305466 0)
(1.00077 -0.00677496 0)
(0.994062 -0.00607477 0)
(0.990879 0.00106323 0)
(0.993061 0.0035296 0)
(0.995827 0.00384408 0)
(0.994828 0.00706894 0)
(0.995535 0.00740064 0)
(0.997094 0.00837024 0)
(0.997332 0.00970762 0)
(0.997813 0.0115358 0)
(0.998346 0.0118453 0)
(0.999407 0.0128437 0)
(0.999594 0.0124823 0)
(0.999175 0.013115 0)
(0.997872 -9.16638e-05 0)
(1.00292 0.00228821 0)
(1.00072 -0.00326207 0)
(0.995329 -0.000334254 0)
(1.00175 0.00681911 0)
(1.00499 -0.00278989 0)
(1.00077 -0.00650732 0)
(0.99437 -0.00577191 0)
(0.991247 0.00103458 0)
(0.993157 0.00343527 0)
(0.995969 0.00377547 0)
(0.994959 0.00679438 0)
(0.995584 0.00759843 0)
(0.997216 0.00821655 0)
(0.99759 0.00969143 0)
(0.997979 0.0112317 0)
(0.998527 0.0118148 0)
(0.999474 0.0124958 0)
(0.999664 0.0125047 0)
(0.999244 0.0131569 0)
(0.997955 -3.53614e-05 0)
(1.00273 0.00205736 0)
(1.0008 -0.0029703 0)
(0.995468 -0.000339726 0)
(1.00167 0.00643166 0)
(1.00473 -0.0025994 0)
(1.00074 -0.0060972 0)
(0.994727 -0.00570408 0)
(0.991603 0.00129374 0)
(0.993272 0.00310187 0)
(0.996094 0.00408204 0)
(0.995128 0.0062531 0)
(0.995642 0.00795018 0)
(0.997299 0.00790218 0)
(0.99784 0.00981093 0)
(0.998158 0.0109669 0)
(0.99869 0.0119153 0)
(0.999577 0.0122875 0)
(0.999901 0.0125067 0)
(0.99931 0.0131625 0)
(0.998052 -2.70444e-05 0)
(1.00255 0.00193576 0)
(1.00084 -0.00283493 0)
(0.995626 -0.000158367 0)
(1.0016 0.00575266 0)
(1.00444 -0.00199659 0)
(1.00072 -0.0061893 0)
(0.995077 -0.00495493 0)
(0.991973 0.000597099 0)
(0.993379 0.00372622 0)
(0.996245 0.00322727 0)
(0.9953 0.00663004 0)
(0.995726 0.00742473 0)
(0.997408 0.0084779 0)
(0.998125 0.00935131 0)
(0.998348 0.0113942 0)
(0.998881 0.0115326 0)
(0.999645 0.0127774 0)
(1.00002 0.0121538 0)
(0.999383 0.012765 0)
(0.998139 4.29974e-05 0)
(1.00242 0.00170805 0)
(1.00084 -0.00258074 0)
(0.995809 -0.000117298 0)
(1.00153 0.00531367 0)
(1.00417 -0.00183268 0)
(1.00068 -0.00576008 0)
(0.995391 -0.00486347 0)
(0.99237 0.000708183 0)
(0.9935 0.00364097 0)
(0.996387 0.00321624 0)
(0.995516 0.00633777 0)
(0.99585 0.00752354 0)
(0.997495 0.00826725 0)
(0.998357 0.00924973 0)
(0.998512 0.0110275 0)
(0.999036 0.0115353 0)
(0.999674 0.0125266 0)
(0.999949 0.0123824 0)
(0.999405 0.0129083 0)
(0.998223 8.91933e-05 0)
(1.00231 0.00152011 0)
(1.00082 -0.00238208 0)
(0.996016 -1.14383e-05 0)
(1.00147 0.00489902 0)
(1.00391 -0.00167731 0)
(1.0006 -0.0052831 0)
(0.995749 -0.00486607 0)
(0.992734 0.00103575 0)
(0.993626 0.00329407 0)
(0.996543 0.00359373 0)
(0.995766 0.00575768 0)
(0.995961 0.00790997 0)
(0.997614 0.00782713 0)
(0.998638 0.00932941 0)
(0.99877 0.010489 0)
(0.999262 0.0115796 0)
(0.999841 0.0121116 0)
(1.00018 0.0125878 0)
(0.999451 0.0130837 0)
(0.998317 8.16151e-05 0)
(1.0022 0.00142738 0)
(1.0008 -0.00231708 0)
(0.996203 0.000261822 0)
(1.00143 0.0042434 0)
(1.00363 -0.00115776 0)
(1.00053 -0.00524432 0)
(0.996071 -0.00430269 0)
(0.993127 0.000538446 0)
(0.993752 0.00381036 0)
(0.996684 0.00315815 0)
(0.996043 0.00591388 0)
(0.996118 0.00760329 0)
(0.997715 0.00816401 0)
(0.998901 0.00891687 0)
(0.99901 0.0105918 0)
(0.999482 0.0112202 0)
(0.999988 0.0122534 0)
(1.00031 0.0122812 0)
(0.999482 0.0126651 0)
(0.9984 0.000172028 0)
(1.00212 0.00120297 0)
(1.00077 -0.00211186 0)
(0.996393 0.000305797 0)
(1.00139 0.00390236 0)
(1.00337 -0.00115712 0)
(1.00045 -0.00467725 0)
(0.996359 -0.00423055 0)
(0.99354 0.000540708 0)
(0.993897 0.00390078 0)
(0.996828 0.0031989 0)
(0.996341 0.0058565 0)
(0.996296 0.00755976 0)
(0.997816 0.0082789 0)
(0.999151 0.00871434 0)
(0.999277 0.0104321 0)
(0.999725 0.0111047 0)
(1.00014 0.0120928 0)
(1.00036 0.0120709 0)
(0.999503 0.0123455 0)
(0.998475 0.000168501 0)
(1.00204 0.00109458 0)
(1.00075 -0.00202123 0)
(0.996586 0.00049695 0)
(1.00135 0.00345681 0)
(1.00313 -0.000940691 0)
(1.00035 -0.00429189 0)
(0.996639 -0.00405226 0)
(0.993959 0.000614085 0)
(0.994059 0.00385659 0)
(0.996974 0.00348943 0)
(0.996661 0.00548383 0)
(0.99651 0.00763828 0)
(0.997913 0.00827825 0)
(0.999378 0.0087106 0)
(0.999568 0.0102103 0)
(0.999959 0.0110483 0)
(1.00029 0.0117736 0)
(1.00044 0.0118869 0)
(0.99954 0.0120633 0)
(0.998549 0.000189543 0)
(1.00197 0.00099278 0)
(1.00074 -0.00197573 0)
(0.996758 0.000700043 0)
(1.00132 0.0030228 0)
(1.00289 -0.000785589 0)
(1.00024 -0.00394561 0)
(0.996909 -0.00366972 0)
(0.994382 0.000376765 0)
(0.994252 0.00404265 0)
(0.997085 0.00352857 0)
(0.996981 0.00532441 0)
(0.996775 0.00759275 0)
(0.998031 0.00836145 0)
(0.999608 0.00860568 0)
(0.999867 0.0100001 0)
(1.00019 0.0108358 0)
(1.00043 0.0115249 0)
(1.0005 0.0116588 0)
(0.999561 0.0117557 0)
(0.998617 0.000249717 0)
(1.0019 0.000822363 0)
(1.00075 -0.00183294 0)
(0.996929 0.000777486 0)
(1.00127 0.00277016 0)
(1.00268 -0.000876955 0)
(1.00016 -0.00334391 0)
(0.997141 -0.00354155 0)
(0.994825 0.000380416 0)
(0.994464 0.00411943 0)
(0.997201 0.00366832 0)
(0.997332 0.00527444 0)
(0.997061 0.00750729 0)
(0.998135 0.00833624 0)
(0.999791 0.00851475 0)
(1.00016 0.00971873 0)
(1.00043 0.0106375 0)
(1.00058 0.0112516 0)
(1.00057 0.0114385 0)
(0.999587 0.0114611 0)
(0.998683 0.000216381 0)
(1.00183 0.000781506 0)
(1.00077 -0.00181827 0)
(0.997088 0.000952108 0)
(1.00123 0.00245629 0)
(1.00248 -0.000705811 0)
(1.00005 -0.00305399 0)
(0.99737 -0.00317333 0)
(0.995281 0.000367205 0)
(0.994699 0.004117 0)
(0.997307 0.00386587 0)
(0.997656 0.00511577 0)
(0.99736 0.00726838 0)
(0.998271 0.00830543 0)
(0.99998 0.00853909 0)
(1.00046 0.0095146 0)
(1.00068 0.0104305 0)
(1.00074 0.0109912 0)
(1.00063 0.0112268 0)
(0.999598 0.0112304 0)
(0.998745 0.000268074 0)
(1.00176 0.000662023 0)
(1.0008 -0.00173399 0)
(0.997245 0.000997367 0)
(1.00118 0.0023162 0)
(1.0023 -0.000871626 0)
(0.99998 -0.00256701 0)
(0.997584 -0.00282172 0)
(0.995722 0.000264214 0)
(0.994963 0.00406566 0)
(0.997408 0.00408848 0)
(0.99797 0.00498411 0)
(0.997702 0.00714245 0)
(0.998445 0.00830926 0)
(1.00013 0.0085587 0)
(1.00072 0.00920703 0)
(1.00092 0.0101453 0)
(1.0009 0.0107119 0)
(1.0007 0.0110134 0)
(0.999623 0.011034 0)
(0.998805 0.000261356 0)
(1.0017 0.00058712 0)
(1.00084 -0.00169886 0)
(0.997401 0.00105548 0)
(1.00111 0.00216797 0)
(1.00215 -0.000795754 0)
(0.999917 -0.00217669 0)
(0.997766 -0.00253098 0)
(0.996171 0.000282172 0)
(0.995268 0.00405671 0)
(0.99751 0.00429512 0)
(0.998265 0.00487341 0)
(0.998057 0.00697702 0)
(0.998628 0.00820706 0)
(1.00025 0.00851686 0)
(1.00097 0.0089909 0)
(1.0012 0.00995196 0)
(1.00109 0.0105414 0)
(1.0008 0.0108275 0)
(0.999626 0.0108397 0)
(0.998866 0.000261085 0)
(1.00163 0.000535112 0)
(1.00088 -0.00164542 0)
(0.997555 0.00109007 0)
(1.00105 0.00209924 0)
(1.002 -0.000831401 0)
(0.999858 -0.00188343 0)
(0.997955 -0.00211403 0)
(0.996614 0.000301633 0)
(0.995583 0.00396893 0)
(0.9976 0.00442872 0)
(0.998539 0.00483209 0)
(0.998432 0.00682644 0)
(0.998849 0.00810677 0)
(1.00039 0.00849014 0)
(1.00121 0.00882226 0)
(1.00148 0.00969426 0)
(1.00127 0.0102654 0)
(1.00088 0.0105048 0)
(0.99964 0.010637 0)
(0.998927 0.000274417 0)
(1.00156 0.000457893 0)
(1.00093 -0.0016077 0)
(0.997711 0.00106493 0)
(1.00097 0.0020529 0)
(1.00188 -0.000820906 0)
(0.999841 -0.0015244 0)
(0.998118 -0.00175874 0)
(0.997035 0.000292793 0)
(0.995932 0.00383463 0)
(0.997715 0.0045887 0)
(0.998803 0.00485232 0)
(0.998805 0.00663802 0)
(0.999078 0.00793011 0)
(1.0005 0.0084311 0)
(1.0014 0.00870178 0)
(1.00175 0.00940405 0)
(1.00146 0.0100142 0)
(1.00102 0.0103217 0)
(0.999698 0.0105174 0)
(0.998987 0.000256282 0)
(1.00148 0.00041854 0)
(1.00098 -0.00157075 0)
(0.997871 0.00104937 0)
(1.00091 0.00202789 0)
(1.00176 -0.000743166 0)
(0.999813 -0.00127454 0)
(0.998275 -0.00139565 0)
(0.997446 0.000371701 0)
(0.996299 0.0037276 0)
(0.997835 0.0047298 0)
(0.999028 0.00486273 0)
(0.999169 0.00642763 0)
(0.999353 0.00776741 0)
(1.00066 0.00840554 0)
(1.00158 0.00863744 0)
(1.00201 0.00914318 0)
(1.0017 0.00984142 0)
(1.00117 0.0100704 0)
(0.999724 0.0102726 0)
(0.999046 0.000256501 0)
(1.00141 0.000377356 0)
(1.00103 -0.00152634 0)
(0.998032 0.00099735 0)
(1.00083 0.00202025 0)
(1.00165 -0.000715963 0)
(0.99983 -0.00100654 0)
(0.998427 -0.0010091 0)
(0.997835 0.000468221 0)
(0.996688 0.0035901 0)
(0.997977 0.00481196 0)
(0.999237 0.00489973 0)
(0.999535 0.00627413 0)
(0.999651 0.00762086 0)
(1.00081 0.00828495 0)
(1.00171 0.00851584 0)
(1.00227 0.00887777 0)
(1.0019 0.00953676 0)
(1.00129 0.00973386 0)
(0.999796 0.0100733 0)
(0.999105 0.000236596 0)
(1.00134 0.00035884 0)
(1.00108 -0.00152733 0)
(0.998198 0.000933692 0)
(1.00077 0.00200468 0)
(1.00155 -0.000570668 0)
(0.999841 -0.000756906 0)
(0.998571 -0.000668273 0)
(0.998199 0.000555837 0)
(0.997083 0.00344814 0)
(0.998135 0.00487214 0)
(0.999424 0.00496918 0)
(0.999885 0.00613202 0)
(0.999957 0.00743633 0)
(1.00099 0.00812696 0)
(1.00186 0.00848472 0)
(1.00248 0.00866584 0)
(1.00214 0.00930117 0)
(1.00151 0.0095775 0)
(0.999912 0.00992449 0)
(0.999164 0.000228587 0)
(1.00126 0.000338415 0)
(1.00113 -0.00147333 0)
(0.998367 0.000858067 0)
(1.0007 0.00198745 0)
(1.00145 -0.000493306 0)
(0.999883 -0.000535479 0)
(0.998709 -0.000316595 0)
(0.998545 0.000707367 0)
(0.997502 0.00331512 0)
(0.998327 0.0048841 0)
(0.9996 0.00504058 0)
(1.00022 0.00600709 0)
(1.00027 0.00726632 0)
(1.0012 0.00797058 0)
(1.00197 0.00840936 0)
(1.00268 0.00848412 0)
(1.00239 0.00910649 0)
(1.00169 0.00931444 0)
(0.999986 0.00963755 0)
(0.999221 0.000190067 0)
(1.00118 0.000358698 0)
(1.00117 -0.00148843 0)
(0.998535 0.000782569 0)
(1.00066 0.00193093 0)
(1.00137 -0.000263577 0)
(0.999927 -0.000346868 0)
(0.998849 9.09577e-06 0)
(0.998858 0.000867231 0)
(0.997904 0.00317591 0)
(0.998537 0.00484304 0)
(0.999764 0.0050915 0)
(1.00053 0.005865 0)
(1.00059 0.00708222 0)
(1.00143 0.0077401 0)
(1.00212 0.00830226 0)
(1.00286 0.00835453 0)
(1.00259 0.00885516 0)
(1.00188 0.00903611 0)
(1.00012 0.00939466 0)
(0.999278 0.00018352 0)
(1.00111 0.000340612 0)
(1.00121 -0.00142404 0)
(0.998708 0.000641051 0)
(1.00061 0.00195268 0)
(1.00129 -0.000238892 0)
(0.999986 -5.71238e-05 0)
(0.998989 0.000342937 0)
(0.999148 0.00104384 0)
(0.998315 0.00308673 0)
(0.998778 0.00480816 0)
(0.999919 0.00516853 0)
(1.00082 0.00578262 0)
(1.0009 0.00694058 0)
(1.00168 0.00755648 0)
(1.00227 0.00819878 0)
(1.003 0.0082265 0)
(1.00279 0.0086405 0)
(1.00207 0.00881579 0)
(1.00025 0.00913469 0)
(0.999331 0.000158454 0)
(1.00103 0.000348855 0)
(1.00124 -0.00139812 0)
(0.998881 0.000526246 0)
(1.00057 0.00186927 0)
(1.00123 -8.6805e-05 0)
(1.00007 0.000274598 0)
(0.999115 0.000703461 0)
(0.999409 0.00126902 0)
(0.99871 0.00302395 0)
(0.999042 0.00473526 0)
(1.00008 0.00522808 0)
(1.0011 0.00570637 0)
(1.00121 0.00680066 0)
(1.00195 0.00737718 0)
(1.00245 0.0080305 0)
(1.00315 0.0081193 0)
(1.00297 0.00846358 0)
(1.00225 0.00860625 0)
(1.0004 0.00888692 0)
(0.999384 0.000120763 0)
(1.00094 0.000370327 0)
(1.00126 -0.0013461 0)
(0.999051 0.000412704 0)
(1.00055 0.00179747 0)
(1.00118 0.000149784 0)
(1.00014 0.000442897 0)
(0.999235 0.000961934 0)
(0.99964 0.00145788 0)
(0.999097 0.00297243 0)
(0.999335 0.00464925 0)
(1.00025 0.0052689 0)
(1.00135 0.00563716 0)
(1.00151 0.00665294 0)
(1.00221 0.00718418 0)
(1.00264 0.0078345 0)
(1.00329 0.00800124 0)
(1.00312 0.00827191 0)
(1.00241 0.00840643 0)
(1.00054 0.00863194 0)
(0.999435 0.000114914 0)
(1.00086 0.000353913 0)
(1.00128 -0.00123276 0)
(0.999222 0.000235735 0)
(1.00055 0.00180441 0)
(1.00114 0.00028528 0)
(1.00023 0.000598694 0)
(0.999362 0.00119527 0)
(0.999852 0.00165409 0)
(0.999456 0.0029296 0)
(0.999634 0.00451254 0)
(1.00041 0.00525339 0)
(1.00159 0.00556274 0)
(1.0018 0.00648983 0)
(1.00247 0.00700769 0)
(1.00286 0.00762715 0)
(1.00344 0.00785317 0)
(1.00327 0.00808943 0)
(1.00256 0.00822984 0)
(1.00068 0.00839564 0)
(0.999484 8.24838e-05 0)