/*--------------------------------*- C++ -*----------------------------------*\
| =========                 |                                                 |
| \\      /  F ield         | OpenFOAM: The Open Source CFD Toolbox           |
|  \\    /   O peration     | Version:  v2012                                 |
|   \\  /    A nd           | Website:  www.openfoam.com                      |
|    \\/     M anipulation  |                                                 |
\*---------------------------------------------------------------------------*/
FoamFile
{
    version     2.0;
    format      ascii;
    class       volScalarField;
    location    "1.7";
    object      p;
}
// * * * * * * * * * * * * * * * * * * * * * * * * * * * * * * * * * * * * * //

dimensions      [0 2 -2 0 0 0 0];


internalField   nonuniform List<scalar> 
7000
(
1.47876e-10
0.00067548
0.00186988
0.00242864
0.00181118
0.00506374
-0.00217491
-0.00165193
-0.00179861
-0.00223836
-2.79873e-05
0.00281086
0.00233001
0.00455244
0.00517814
0.00749603
0.00865787
0.0119301
0.0145888
0.019887
-4.50997e-07
0.00067571
0.00187108
0.00242145
0.00182383
0.00499003
-0.00215227
-0.00164971
-0.00180202
-0.00218464
-2.84968e-05
0.00281404
0.00233021
0.00454568
0.00518587
0.00748105
0.00867373
0.0118959
0.0146179
0.0196537
-1.10452e-06
0.000676146
0.00187226
0.0024117
0.00184318
0.00491109
-0.0021166
-0.00163468
-0.00179935
-0.00211191
-3.02392e-05
0.002812
0.00233354
0.00452892
0.00519539
0.00745602
0.00869083
0.0118415
0.0146373
0.0192577
-1.80355e-06
0.000676588
0.00187326
0.00240004
0.00185521
0.00482963
-0.00207872
-0.00159739
-0.0017993
-0.00203343
-3.41639e-05
0.00280233
0.00233686
0.00450433
0.00520456
0.00742435
0.00870583
0.0117785
0.0146266
0.0188488
-2.5739e-06
0.000677019
0.00187419
0.00238542
0.00185922
0.00474409
-0.00203686
-0.00154651
-0.00180723
-0.00195398
-3.93674e-05
0.00278532
0.00233872
0.0044748
0.00521383
0.00738735
0.0087212
0.0117052
0.0145929
0.0184643
-3.44146e-06
0.000677465
0.001875
0.00236764
0.00185865
0.00465685
-0.00199045
-0.00149135
-0.00182203
-0.00187547
-4.38646e-05
0.00276228
0.00234
0.00444177
0.00522404
0.00734571
0.00873656
0.0116221
0.0145421
0.0181035
-4.40999e-06
0.00067793
0.00187566
0.00234721
0.0018555
0.00456883
-0.00194124
-0.00143583
-0.00184017
-0.00179828
-4.55147e-05
0.00273436
0.0023421
0.00440536
0.00523577
0.00729917
0.00875082
0.0115307
0.0144748
0.0177572
-5.47857e-06
0.000678406
0.00187616
0.00232479
0.00185083
0.00447956
-0.0018907
-0.00138094
-0.00185836
-0.00172226
-4.29685e-05
0.00270213
0.00234591
0.00436517
0.00524897
0.00724757
0.00876257
0.0114321
0.0143893
0.0174191
-6.64694e-06
0.000678882
0.00187649
0.00230092
0.00184559
0.00438827
-0.00183946
-0.00132661
-0.00187441
-0.00164737
-3.58535e-05
0.00266568
0.00235165
0.00432079
0.00526317
0.00719113
0.00876991
0.0113274
0.0142844
0.0170867
-7.91539e-06
0.000679344
0.00187663
0.00227595
0.00184049
0.00429437
-0.00178757
-0.00127269
-0.0018873
-0.00157407
-2.4409e-05
0.00262501
0.00235911
0.00427204
0.00527748
0.0071304
0.00877095
0.0112177
0.0141597
0.016759
-9.28449e-06
0.000679776
0.0018766
0.00224991
0.00183583
0.00419762
-0.00173489
-0.00121937
-0.00189671
-0.00150317
-9.05697e-06
0.00258017
0.00236787
0.004219
0.00529073
0.00706621
0.00876395
0.0111038
0.014015
0.016435
-1.07547e-05
0.000680164
0.00187639
0.00222259
0.00183166
0.00409804
-0.00168125
-0.00116714
-0.00190264
-0.00143562
9.85109e-06
0.00253138
0.00237743
0.00416196
0.00530167
0.00699943
0.00874726
0.0109858
0.0138507
0.0161132
-1.23264e-05
0.00068049
0.00187604
0.00219368
0.00182796
0.00399578
-0.00162653
-0.00111655
-0.00190513
-0.00137231
3.21321e-05
0.00247893
0.00238715
0.00410159
0.005309
0.00693075
0.00871947
0.0108636
0.0136674
0.0157914
-1.39999e-05
0.000680738
0.00187555
0.00216297
0.00182471
0.00389102
-0.00157062
-0.0010681
-0.00190415
-0.00131394
5.77683e-05
0.00242316
0.00239621
0.00403884
0.00531146
0.00686055
0.00867955
0.0107367
0.0134657
0.0154674
-1.57757e-05
0.000680889
0.00187493
0.00213044
0.00182198
0.00378393
-0.0015134
-0.00102213
-0.00189952
-0.001261
8.68086e-05
0.00236445
0.00240361
0.00397478
0.00530793
0.00678907
0.00862678
0.010604
0.0132465
0.0151391
-1.76551e-05
0.000680923
0.0018742
0.0020963
0.00181993
0.00367458
-0.00145483
-0.000978819
-0.00189094
-0.00121371
0.000119198
0.0023034
0.00240811
0.00391046
0.00529749
0.0067164
0.00856098
0.010464
0.0130105
0.0148044
-1.96395e-05
0.000680817
0.00187338
0.0020609
0.00181881
0.00356294
-0.00139488
-0.000938288
-0.00187806
-0.00117208
0.000154622
0.00224089
0.00240834
0.00384669
0.00527943
0.00664241
0.00848259
0.0103154
0.0127582
0.014462
-2.17301e-05
0.000680548
0.00187248
0.00202463
0.00181884
0.00344895
-0.00133357
-0.000900592
-0.00186056
-0.0011359
0.000192432
0.00217801
0.00240304
0.003784
0.00525318
0.00656645
0.00839225
0.0101577
0.0124903
0.0141105
-2.39272e-05
0.000680088
0.0018715
0.00198771
0.0018202
0.00333262
-0.00127098
-0.000865786
-0.00183824
-0.00110474
0.000231593
0.00211611
0.00239103
0.00372272
0.00521865
0.00648715
0.00828997
0.00999103
0.0122082
0.0137495
-2.62292e-05
0.000679407
0.00187047
0.0019502
0.00182293
0.00321403
-0.00120729
-0.000833904
-0.00181109
-0.00107796
0.000270644
0.00205671
0.00237139
0.00366254
0.00517658
0.00640316
0.00817476
0.00981489
0.011914
0.0133795
-2.86327e-05
0.000678469
0.00186937
0.00191196
0.00182699
0.00309341
-0.00114275
-0.000804921
-0.00177933
-0.00105461
0.000307838
0.00200123
0.0023439
0.00360223
0.00512775
0.00631397
0.00804618
0.00962778
0.011609
0.0130021
-3.11322e-05
0.000677237
0.00186818
0.00187274
0.00183219
0.00297109
-0.00107763
-0.000778736
-0.00174343
-0.00103349
0.000341452
0.00195052
0.00230903
0.00354046
0.00507223
0.00621883
0.00790526
0.00942942
0.0112931
0.012618
-3.3719e-05
0.000675662
0.00186689
0.00183234
0.00183833
0.00284739
-0.0010123
-0.000755108
-0.00170412
-0.00101315
0.000369994
0.00190486
0.0022673
0.00347624
0.00501067
0.00611575
0.00775233
0.00922196
0.0109674
0.0122268
-3.63798e-05
0.000673687
0.00186548
0.00179065
0.00184518
0.00272265
-0.000947229
-0.000733617
-0.00166243
-0.000992082
0.000392295
0.00186435
0.00221919
0.00340757
0.00494505
0.00600403
0.00758506
0.00900687
0.0106352
0.0118286
-3.90976e-05
0.000671244
0.00186393
0.00174766
0.00185247
0.00259721
-0.000882943
-0.000713731
-0.0016196
-0.000968876
0.000407448
0.00182891
0.00216612
0.00333086
0.00487646
0.00588604
0.00740011
0.00878164
0.0103009
0.0114262
-4.18514e-05
0.000668261
0.00186224
0.00170348
0.00185988
0.00247137
-0.000819945
-0.000694797
-0.00157701
-0.000942353
0.000414879
0.00179745
0.00211068
0.00324322
0.00480296
0.00576551
0.00719753
0.00854052
0.00996582
0.0110244
-4.4617e-05
0.000664653
0.0018604
0.00165822
0.00186706
0.00234548
-0.000758853
-0.000676036
-0.00153597
-0.000911542
0.000414722
0.00176777
0.00205486
0.00314453
0.0047212
0.00564402
0.00698293
0.0082809
0.00962524
0.0106249
-4.73645e-05
0.000660323
0.00185845
0.00161202
0.00187361
0.00221995
-0.0007004
-0.00065667
-0.00149762
-0.000875888
0.000407834
0.00173834
0.00199905
0.00303517
0.00462755
0.0055182
0.00676367
0.00800934
0.0092766
0.0102234
-5.00535e-05
0.000655162
0.00185641
0.00156494
0.00187911
0.00209533
-0.000645427
-0.000635871
-0.00146289
-0.000835598
0.000394671
0.0017088
0.00194406
0.00291585
0.00451845
0.00538272
0.0065381
0.00773522
0.00892578
0.00981494
-5.26388e-05
0.000649064
0.00185426
0.00151716
0.00188311
0.00197239
-0.000595005
-0.000612944
-0.00143246
-0.000790202
0.00037469
0.00167748
0.00189111
0.00278822
0.00439442
0.00523467
0.00629387
0.00746341
0.00859319
0.00939883
-5.50877e-05
0.000641954
0.00185192
0.0014689
0.00188508
0.00185183
-0.000550021
-0.000587243
-0.00140759
-0.000739155
0.000350267
0.00163916
0.00184347
0.00265108
0.00425286
0.00508179
0.00602681
0.00717907
0.00829299
0.00898554
-5.7381e-05
0.000633733
0.00184937
0.00142016
0.00188451
0.00173441
-0.000511359
-0.000558076
-0.00138864
-0.000686098
0.000328717
0.00158671
0.00180366
0.00251034
0.00408626
0.00492418
0.00575806
0.0068488
0.00795874
0.00859632
-5.93993e-05
0.000624206
0.00184665
0.00137097
0.00188084
0.00162108
-0.000479524
-0.000526644
-0.00137081
-0.000636397
0.000314346
0.00151812
0.00176894
0.0023727
0.00390593
0.0047402
0.00548941
0.006472
0.00757201
0.00824491
-6.104e-05
0.00061327
0.00184385
0.00132176
0.00187385
0.00151215
-0.000454494
-0.000493409
-0.00135535
-0.00058788
0.000306603
0.00143337
0.0017376
0.00223439
0.00371743
0.00454251
0.00520273
0.00606577
0.00708769
0.00792654
-6.24633e-05
0.000601008
0.00183985
0.00127324
0.00186283
0.00140884
-0.000438161
-0.000455898
-0.00134575
-0.000541254
0.000304383
0.00134034
0.00169608
0.00210834
0.00349347
0.00432461
0.00487787
0.00566648
0.00671761
0.00759707
-6.34852e-05
0.000587219
0.00182966
0.00122521
0.0018465
0.00131273
-0.000431383
-0.000415369
-0.00133956
-0.000499375
0.00030752
0.00124043
0.00163958
0.00198744
0.00324399
0.00407015
0.00454879
0.00528922
0.00644214
0.00724559
-6.37436e-05
0.00057164
0.00182496
0.00117768
0.00182524
0.0012227
-0.00043102
-0.000375206
-0.00133199
-0.000462573
0.000317391
0.0011309
0.00157642
0.00184373
0.00299876
0.00379814
0.00430025
0.0049324
0.00587719
0.00688144
-6.37845e-05
0.000554501
0.00181797
0.00113279
0.00179867
0.00113947
-0.00043993
-0.000332968
-0.00132443
-0.00043454
0.000330133
0.00101827
0.00149034
0.00170534
0.00273044
0.00352248
0.00400696
0.00457842
0.00547764
0.00650755
-6.32338e-05
0.000535679
0.00180898
0.00109034
0.00176498
0.00106478
-0.000459103
-0.000291137
-0.00131384
-0.000419379
0.000345838
0.000900287
0.00137711
0.00157401
0.00245936
0.00323565
0.00365336
0.00421679
0.00526313
0.00613352
-6.14334e-05
0.000514965
0.00179862
0.00104932
0.00172542
0.000996003
-0.00048036
-0.000258199
-0.00129095
-0.000416696
0.000366142
0.000772133
0.00125043
0.00142553
0.00222665
0.00293997
0.00338555
0.00384639
0.00462772
0.00575221
-5.97014e-05
0.00049299
0.00178443
0.00101287
0.00167988
0.000932736
-0.00050733
-0.000231198
-0.00126095
-0.000427031
0.000378345
0.000647423
0.00109844
0.00129486
0.00197948
0.00263212
0.00307715
0.00345842
0.00420562
0.0054133
-5.69326e-05
0.000469334
0.00176665
0.00098083
0.00162676
0.00087626
-0.00054108
-0.000208762
-0.00122905
-0.00044817
0.000381758
0.000526884
0.0009308
0.00116189
0.0017237
0.00232861
0.00270986
0.00308499
0.00393365
0.00505198
-5.26977e-05
0.000443943
0.0017458
0.000951341
0.00156816
0.00082373
-0.000572607
-0.000197687
-0.00119575
-0.000476844
0.000378549
0.000406649
0.000759225
0.000997612
0.0015025
0.00201157
0.00236781
0.0027527
0.00343823
0.00467186
-4.8822e-05
0.000418003
0.00171874
0.000926833
0.00150487
0.00077318
-0.000604307
-0.000198014
-0.00115685
-0.000515415
0.000359237
0.00029739
0.000571987
0.000834977
0.00127264
0.0016869
0.00202994
0.00238771
0.00304872
0.00432112
-4.33009e-05
0.000390934
0.00168593
0.000906967
0.00143695
0.000724705
-0.000638122
-0.000205991
-0.00112012
-0.000565545
0.000329876
0.000197724
0.000375918
0.000656005
0.00103209
0.00138324
0.00167512
0.00202153
0.00272797
0.00397821
-3.66938e-05
0.000362716
0.00164801
0.000889734
0.00136659
0.000676561
-0.00067009
-0.000223125
-0.00108837
-0.000621962
0.000289137
9.99439e-05
0.000179121
0.000454479
0.00080617
0.0010842
0.00131098
0.00167676
0.00234473
0.00363341
-3.03769e-05
0.000334455
0.0016029
0.00087553
0.00129534
0.000627225
-0.000701521
-0.000251832
-0.00105778
-0.000684164
0.000229439
1.04988e-05
-1.69485e-05
0.000246395
0.00057099
0.000775677
0.000959944
0.00131637
0.00201755
0.0033125
-2.20393e-05
0.000305789
0.00155052
0.000863686
0.00122429
0.000576684
-0.000734511
-0.000289872
-0.00103095
-0.000753249
0.000157997
-7.23827e-05
-0.000210671
1.48266e-05
0.000322871
0.000483156
0.000616447
0.00096632
0.00166304
0.00299432
-1.3506e-05
0.000276814
0.00149154
0.000852445
0.00115408
0.000525019
-0.00076814
-0.000337057
-0.00101086
-0.000824665
7.26599e-05
-0.000158476
-0.000403318
-0.000226879
7.33667e-05
0.000203903
0.000274775
0.000607747
0.00133414
0.00268595
-4.4391e-06
0.000248189
0.0014251
0.000840551
0.00108613
0.000472718
-0.000803428
-0.000394835
-0.00099785
-0.000898013
-2.82904e-05
-0.000244755
-0.000584361
-0.000470898
-0.000190227
-8.06711e-05
-6.17394e-05
0.000249933
0.0010187
0.00239222
5.97317e-06
0.000219745
0.00135199
0.00082725
0.00102062
0.000419064
-0.000840606
-0.00046165
-0.000996221
-0.000972275
-0.000140571
-0.000333592
-0.000758168
-0.000729915
-0.000470942
-0.000365231
-0.000381523
-8.64304e-05
0.000677653
0.00209975
1.59256e-05
0.000191735
0.00127269
0.000810963
0.000956529
0.000364655
-0.000877786
-0.000536564
-0.0010001
-0.00104752
-0.000266677
-0.000431852
-0.000928549
-0.000988086
-0.000760247
-0.00064503
-0.000683261
-0.000434431
0.000364627
0.00180905
2.7797e-05
0.000164632
0.00118727
0.000790205
0.000893995
0.000310005
-0.000915564
-0.000618949
-0.00101441
-0.00112455
-0.00040395
-0.000538069
-0.00108797
-0.00124154
-0.00105854
-0.000934802
-0.000983204
-0.0007687
2.55701e-05
0.00152246
3.85718e-05
0.000138283
0.00109727
0.00076428
0.000831801
0.000254299
-0.000953646
-0.00070737
-0.00103867
-0.00120104
-0.000550053
-0.000656861
-0.00124349
-0.00149221
-0.0013692
-0.00123546
-0.00127501
-0.00108102
-0.000286417
0.00123853
4.9228e-05
0.000113233
0.00100312
0.000731406
0.000768951
0.000198502
-0.000991211
-0.000800925
-0.00107451
-0.00127933
-0.000705319
-0.000790451
-0.00139649
-0.00173274
-0.00168263
-0.00154188
-0.00155755
-0.00136717
-0.000602212
0.000948048
5.95575e-05
8.97361e-05
0.000905854
0.000690974
0.000704798
0.000141731
-0.00102941
-0.000898968
-0.00112153
-0.00135874
-0.000865192
-0.000937728
-0.00155017
-0.0019618
-0.00199426
-0.00186052
-0.00184755
-0.0016581
-0.000902149
0.000667354
6.8848e-05
6.83477e-05
0.000806347
0.000642031
0.000637855
8.31421e-05
-0.00106841
-0.000999911
-0.00117806
-0.00143955
-0.00102965
-0.00109999
-0.0017105
-0.00217974
-0.00230217
-0.00218904
-0.00213744
-0.00193583
-0.0011822
0.000399359
7.68482e-05
4.95797e-05
0.000705821
0.000583934
0.000567195
2.18817e-05
-0.00110873
-0.00110273
-0.0012442
-0.00152343
-0.00119626
-0.00127428
-0.00187856
-0.00238941
-0.00259978
-0.00251987
-0.00243774
-0.00221044
-0.00144771
0.00014157
8.30471e-05
3.35847e-05
0.000605504
0.000516344
0.000491608
-4.35952e-05
-0.0011514
-0.00120667
-0.00131833
-0.00161019
-0.0013637
-0.00145745
-0.00205873
-0.00259592
-0.00288328
-0.00284892
-0.00274826
-0.00248418
-0.00170083
-0.000106549
8.71035e-05
2.05836e-05
0.000506527
0.000438718
0.000409661
-0.000113987
-0.00119653
-0.00131093
-0.00139952
-0.00170111
-0.00153231
-0.00164736
-0.00225065
-0.00280201
-0.00315314
-0.0031937
-0.0030653
-0.00275847
-0.00195196
-0.000346551
8.87091e-05
1.01696e-05
0.000409941
0.000352018
0.000320054
-0.00018971
-0.00124347
-0.00141568
-0.00148849
-0.00179672
-0.00170149
-0.00184099
-0.00245117
-0.00301159
-0.00341193
-0.00350698
-0.00338283
-0.00304088
-0.00220277
-0.000576013
8.78417e-05
1.05897e-06
0.000316307
0.000257033
0.000222117
-0.000268457
-0.00129181
-0.00152262
-0.00158578
-0.00189549
-0.00187272
-0.00203691
-0.0026575
-0.00322784
-0.00363535
-0.00380599
-0.00369981
-0.00332999
-0.00245288
-0.000800959
8.44134e-05
-8.05719e-06
0.000225371
0.000153256
0.000117397
-0.000347911
-0.00134202
-0.00163339
-0.00169258
-0.00200182
-0.00204673
-0.00223522
-0.00287257
-0.00345507
-0.0038812
-0.00409362
-0.00401259
-0.00362221
-0.00270898
-0.00102828
7.8028e-05
-1.80683e-05
0.000137147
4.30998e-05
7.04173e-06
-0.000429032
-0.00139458
-0.00174798
-0.00181009
-0.00211415
-0.00222367
-0.00243487
-0.00308286
-0.00368896
-0.00412541
-0.00437122
-0.00431757
-0.00391586
-0.00297203
-0.00125678
6.84392e-05
-2.97366e-05
5.19997e-05
-7.05938e-05
-0.000109247
-0.000513965
-0.00144934
-0.0018658
-0.00193904
-0.00223286
-0.002403
-0.00263769
-0.00329137
-0.00392714
-0.00437283
-0.00464105
-0.00461271
-0.00420677
-0.00323749
-0.00148687
5.54883e-05
-4.37505e-05
-2.96728e-05
-0.000186418
-0.000232139
-0.000604528
-0.00150639
-0.00198534
-0.00207898
-0.00235896
-0.00258439
-0.00284517
-0.00349771
-0.0041659
-0.00462538
-0.00490616
-0.00489787
-0.00449202
-0.00350316
-0.00171903
3.9017e-05
-6.06451e-05
-0.000107636
-0.000303374
-0.00036176
-0.00070233
-0.00156632
-0.00210448
-0.00222906
-0.00249389
-0.00276707
-0.00305833
-0.00370317
-0.00440101
-0.00488145
-0.00516987
-0.00517635
-0.00477204
-0.00376619
-0.00195147
1.90024e-05
-8.08346e-05
-0.000182099
-0.000420572
-0.000497714
-0.000808419
-0.00163011
-0.00222187
-0.0023884
-0.00263919
-0.00295027
-0.00327679
-0.00391025
-0.00462988
-0.00513721
-0.00543448
-0.00545185
-0.00504739
-0.00402582
-0.00218325
-4.5345e-06
-0.000104706
-0.000253658
-0.000536981
-0.000639277
-0.000923639
-0.00169904
-0.00233675
-0.00255505
-0.00279614
-0.00313449
-0.00349938
-0.0041218
-0.0048526
-0.0053888
-0.00569904
-0.0057248
-0.00531945
-0.00428369
-0.00241368
-3.15338e-05
-0.000132635
-0.000322826
-0.000651844
-0.000785453
-0.00104849
-0.00177484
-0.00244891
-0.00272627
-0.00296543
-0.00332113
-0.00372397
-0.0043392
-0.00507201
-0.00563431
-0.00596037
-0.0059945
-0.00558973
-0.00454062
-0.00264335
-6.1883e-05
-0.000164895
-0.000390437
-0.000764609
-0.000934985
-0.00118294
-0.00185942
-0.00255879
-0.00289907
-0.00314669
-0.00351186
-0.0039488
-0.00456248
-0.00529126
-0.0058741
-0.00621668
-0.00626025
-0.00585774
-0.00479744
-0.00287414
-9.53987e-05
-0.000201677
-0.000457385
-0.000874876
-0.00108668
-0.00132681
-0.00195444
-0.00266722
-0.00307068
-0.00333835
-0.00370859
-0.00417365
-0.0047904
-0.00551264
-0.00610997
-0.00646792
-0.00652098
-0.00612179
-0.00505341
-0.00310601
-0.000131982
-0.000243084
-0.000525179
-0.000982572
-0.00123914
-0.00147936
-0.00206142
-0.00277587
-0.00323911
-0.00353839
-0.00391291
-0.00439885
-0.00502106
-0.00573686
-0.0063438
-0.00671497
-0.00677614
-0.00638016
-0.00530635
-0.00333825
-0.000171607
-0.000289127
-0.000594097
-0.00108784
-0.00139122
-0.00163948
-0.00218107
-0.00288724
-0.00340321
-0.00374385
-0.00412562
-0.00462558
-0.00525325
-0.00596335
-0.00657684
-0.00695901
-0.00702626
-0.00663242
-0.00555478
-0.00357035
-0.000214216
-0.000339873
-0.000664637
-0.00119091
-0.00154218
-0.0018057
-0.0023135
-0.00300421
-0.00356283
-0.0039513
-0.00434642
-0.00485562
-0.00548659
-0.00619167
-0.00680979
-0.00720085
-0.0072721
-0.00687844
-0.00579761
-0.00380132
-0.000259738
-0.000395377
-0.0007374
-0.00129221
-0.00169147
-0.00197649
-0.00245809
-0.00312919
-0.00371872
-0.00415796
-0.00457367
-0.00508975
-0.00572181
-0.0064216
-0.00704317
-0.00744165
-0.00751538
-0.00711972
-0.00603473
-0.00402974
-0.000308109
-0.000454691
-0.000812865
-0.00139242
-0.00183862
-0.00215048
-0.00261356
-0.00326406
-0.00387304
-0.00436155
-0.00480504
-0.00532779
-0.00595949
-0.006653
-0.0072773
-0.00768313
-0.00775909
-0.00735924
-0.00626774
-0.0042549
-0.000359222
-0.00051771
-0.000891549
-0.00149219
-0.00198326
-0.00232634
-0.00277827
-0.00340992
-0.00402822
-0.00456068
-0.00503862
-0.00556985
-0.00620003
-0.00688584
-0.00751149
-0.00792523
-0.00800466
-0.00759992
-0.00650009
-0.00447823
-0.00041299
-0.000584254
-0.000973668
-0.00159218
-0.00212536
-0.00250311
-0.00295035
-0.00356684
-0.00418708
-0.00475501
-0.00527282
-0.00581609
-0.00644444
-0.00712014
-0.00774464
-0.00816614
-0.00825089
-0.00784304
-0.00673428
-0.00470266
-0.000469378
-0.000653896
-0.00105918
-0.00169324
-0.00226502
-0.00267964
-0.00312813
-0.00373398
-0.00435252
-0.00494516
-0.00550482
-0.00606572
-0.00669397
-0.00735836
-0.00797735
-0.00840501
-0.00849649
-0.00808816
-0.00697126
-0.0049293
-0.000528309
-0.000726251
-0.00114791
-0.00179594
-0.00240243
-0.00285553
-0.00331032
-0.0039094
-0.00452635
-0.00513324
-0.00573237
-0.00631623
-0.00694733
-0.00760245
-0.00821211
-0.00864322
-0.00874228
-0.00833599
-0.00721235
-0.00515861
-0.000589721
-0.00080105
-0.00123958
-0.00190052
-0.00253765
-0.00303016
-0.00349606
-0.00409087
-0.00470963
-0.00532279
-0.00595444
-0.00656583
-0.00720255
-0.00785155
-0.00845111
-0.0088825
-0.00898841
-0.00858677
-0.00745877
-0.00539313
-0.000653574
-0.000877905
-0.0013337
-0.00200723
-0.00267147
-0.00320253
-0.00368396
-0.00427654
-0.00490153
-0.0055176
-0.00617146
-0.00681243
-0.00745933
-0.00810556
-0.00869507
-0.00912355
-0.00923364
-0.00883804
-0.00770952
-0.00563524
-0.00071973
-0.000956566
-0.00142951
-0.00211586
-0.0028047
-0.00337257
-0.00387323
-0.00446507
-0.00509883
-0.00571958
-0.00638667
-0.00705523
-0.00771613
-0.00836479
-0.00894567
-0.00936894
-0.00947999
-0.00908855
-0.0079614
-0.00588194
-0.000787977
-0.00103667
-0.00152658
-0.00222587
-0.0029374
-0.00354014
-0.00406375
-0.00465622
-0.00529834
-0.00592803
-0.00660232
-0.00729454
-0.00797091
-0.00862646
-0.00920459
-0.00962292
-0.00973297
-0.00934294
-0.0082164
-0.00613256
-0.00085812
-0.00111777
-0.0016245
-0.00233688
-0.00306939
-0.0037049
-0.00425426
-0.00485042
-0.00549899
-0.00614172
-0.00682025
-0.0075298
-0.00822227
-0.00888671
-0.00946863
-0.00988639
-0.00999634
-0.00960708
-0.00848053
-0.00639239
-0.000929746
-0.00119946
-0.00172259
-0.00244827
-0.00320123
-0.00386679
-0.00444272
-0.00504763
-0.00570011
-0.00635689
-0.00704256
-0.00776445
-0.00847093
-0.00914481
-0.00973357
-0.0101547
-0.0102681
-0.00988163
-0.00875704
-0.00666669
-0.00100272
-0.00128137
-0.00182001
-0.00255886
-0.00333258
-0.00402662
-0.00462788
-0.0052468
-0.0059031
-0.00657041
-0.00726564
-0.00799973
-0.00871986
-0.00940261
-0.00999932
-0.0104257
-0.0105455
-0.0101652
-0.00904496
-0.00695512
-0.00107636
-0.00136254
-0.00191654
-0.00266818
-0.00346242
-0.00418472
-0.00480983
-0.00544489
-0.00610776
-0.00678373
-0.00748652
-0.00823029
-0.00896628
-0.00966121
-0.0102675
-0.010701
-0.0108295
-0.0104578
-0.00934431
-0.00725897
-0.00115151
-0.0014425
-0.00200954
-0.00277433
-0.00359016
-0.00434249
-0.00498984
-0.00564072
-0.00631214
-0.00699723
-0.00770881
-0.00845761
-0.00920752
-0.00991788
-0.0105364
-0.0109801
-0.0111189
-0.0107571
-0.00965335
-0.00757755
-0.00122712
-0.0015195
-0.00209861
-0.00287707
-0.00371479
-0.00449982
-0.00516917
-0.0058317
-0.00651547
-0.00720876
-0.00792985
-0.00868548
-0.0094496
-0.0101779
-0.01081
-0.0112668
-0.0114189
-0.0110696
-0.00997641
-0.00790754
-0.00130443
-0.00159156
-0.002175
-0.00297375
-0.00383841
-0.00465482
-0.0053482
-0.00601558
-0.00671017
-0.00741389
-0.00814095
-0.00890419
-0.00968684
-0.0104385
-0.0110936
-0.0115718
-0.0117408
-0.0114046
-0.0103208
-0.00825636
-0.00138925
-0.00166333
-0.00224135
-0.00306219
-0.00396326
-0.00480796
-0.00552315
-0.00619615
-0.00688798
-0.00759612
-0.00832469
-0.00910291
-0.00990991
-0.010692
-0.0113859
-0.0119021
-0.0121042
-0.0118012
-0.0107523
-0.00872099
-0.00144185
-0.00172654
-0.0023089
-0.00315252
-0.00409426
-0.00498012
-0.00571605
-0.00637427
-0.00704777
-0.00773709
-0.00844188
-0.00920317
-0.0099988
-0.0107824
-0.0115001
-0.0120634
-0.0123433
-0.0121459
-0.0112185
-0.00932218
-0.00154207
-0.00174409
-0.00236436
-0.00321315
-0.00417054
-0.00512613
-0.0059526
-0.00662383
-0.00733765
-0.00804861
-0.00877788
-0.00952618
-0.0103054
-0.0110305
-0.011639
-0.0120523
-0.0121917
-0.0118992
-0.01094
-0.00905931
-0.00148631
-0.00186839
-0.00249009
-0.00336843
-0.00431087
-0.00517297
-0.00590176
-0.00654627
-0.00719009
-0.00787269
-0.0086279
-0.00944835
-0.010359
-0.0113346
-0.0123095
-0.0131761
-0.0137622
-0.0138294
-0.0131043
-0.0114687
-0.00134103
-0.00199875
-0.00268815
-0.00356157
-0.00445722
-0.00545579
-0.00638419
-0.00721168
-0.00787326
-0.00845763
-0.00906417
-0.00971235
-0.0102018
-0.010377
-0.0101455
-0.00957669
-0.00885595
-0.00830428
-0.00830648
-0.00908465
-0.00139897
-0.00203298
-0.00276015
-0.00357528
-0.00433447
-0.00506973
-0.00575198
-0.00644635
-0.00713186
-0.00797067
-0.00896348
-0.0100767
-0.0112734
-0.0125114
-0.0137335
-0.0148334
-0.0156589
-0.0159944
-0.0155663
-0.0141222
-0.00127608
-0.0021192
-0.00286891
-0.00370282
-0.00449497
-0.00533947
-0.00624259
-0.00723635
-0.0080897
-0.00869603
-0.00933427
-0.0101192
-0.0108349
-0.0113134
-0.0114353
-0.0112178
-0.0107755
-0.0103908
-0.0104487
-0.0113143
-0.00131979
-0.00216214
-0.00292787
-0.00366215
-0.00421555
-0.00481068
-0.00539486
-0.00608195
-0.00682618
-0.00784776
-0.00921393
-0.0109142
-0.0128236
-0.0147677
-0.0165574
-0.0180272
-0.0190066
-0.0193146
-0.0187317
-0.017065
0.0277331
0.00565411
-0.0030769
-0.00450165
-0.00522197
-0.00616528
-0.00669888
-0.00669954
-0.00681249
-0.00729733
-0.00786117
-0.00830022
-0.00864743
-0.00900481
-0.00961495
-0.0104807
-0.011124
-0.0114318
-0.0118071
-0.012343
-0.0128491
-0.0132949
-0.0137957
-0.0143334
-0.0148255
-0.0153492
-0.0159151
-0.0165206
-0.0171138
-0.0177301
-0.0182985
-0.018884
-0.0195791
-0.0203151
-0.0210483
-0.0217785
-0.022601
-0.0234058
-0.0243119
-0.0252046
-0.0261817
-0.0271815
-0.0281751
-0.0292769
-0.0302865
-0.0314971
-0.0326542
-0.0338414
-0.0354459
-0.0368024
0.0269329
0.00570473
-0.00302935
-0.00448211
-0.00521221
-0.00615945
-0.00669501
-0.00669656
-0.00680983
-0.0072949
-0.00785898
-0.00829828
-0.00864573
-0.00900329
-0.00961357
-0.0104796
-0.0111231
-0.011431
-0.0118064
-0.0123423
-0.0128486
-0.0132945
-0.0137952
-0.014333
-0.0148251
-0.0153488
-0.0159148
-0.0165203
-0.0171135
-0.0177298
-0.0182982
-0.0188838
-0.0195789
-0.0203149
-0.0210481
-0.0217783
-0.0226008
-0.0234056
-0.0243118
-0.0252045
-0.0261816
-0.0271814
-0.028175
-0.0292768
-0.0302864
-0.031497
-0.0326542
-0.0338413
-0.0354458
-0.0368024
0.0262361
0.00580173
-0.0029574
-0.00445748
-0.00520062
-0.00615294
-0.00669096
-0.00669358
-0.00680736
-0.00729278
-0.00785711
-0.00829658
-0.00864421
-0.00900188
-0.00961228
-0.0104786
-0.0111223
-0.0114303
-0.0118057
-0.0123418
-0.0128481
-0.013294
-0.0137948
-0.0143326
-0.0148248
-0.0153485
-0.0159145
-0.01652
-0.0171133
-0.0177296
-0.018298
-0.0188836
-0.0195787
-0.0203148
-0.0210479
-0.0217782
-0.0226007
-0.0234055
-0.0243116
-0.0252044
-0.0261815
-0.0271813
-0.0281749
-0.0292767
-0.0302863
-0.0314969
-0.0326541
-0.0338413
-0.0354458
-0.0368024
0.0256116
0.0059249
-0.00285663
-0.00442093
-0.00518323
-0.00614331
-0.00668522
-0.00668979
-0.0068047
-0.00729074
-0.00785532
-0.00829492
-0.00864268
-0.00900041
-0.0096109
-0.0104776
-0.0111216
-0.0114296
-0.011805
-0.0123412
-0.0128476
-0.0132936
-0.0137944
-0.0143323
-0.0148245
-0.0153482
-0.0159142
-0.0165198
-0.0171131
-0.0177293
-0.0182978
-0.0188834
-0.0195785
-0.0203146
-0.0210478
-0.021778
-0.0226005
-0.0234053
-0.0243115
-0.0252043
-0.0261814
-0.0271812
-0.0281748
-0.0292766
-0.0302862
-0.0314969
-0.0326541
-0.0338412
-0.0354458
-0.0368025
0.0249977
0.00605631
-0.00273391
-0.00437206
-0.00515811
-0.00612869
-0.00667641
-0.00668437
-0.00680145
-0.00728856
-0.00785346
-0.0082932
-0.00864109
-0.00899878
-0.00960929
-0.0104764
-0.0111207
-0.0114287
-0.0118042
-0.0123406
-0.0128471
-0.0132931
-0.0137939
-0.0143319
-0.0148241
-0.0153479
-0.0159139
-0.0165195
-0.0171128
-0.0177291
-0.0182976
-0.0188832
-0.0195783
-0.0203144
-0.0210476
-0.0217778
-0.0226004
-0.0234052
-0.0243114
-0.0252041
-0.0261813
-0.0271811
-0.0281747
-0.0292766
-0.0302861
-0.0314968
-0.032654
-0.0338412
-0.0354458
-0.0368026
0.0243745
0.00618818
-0.00259981
-0.00431572
-0.00512661
-0.00610897
-0.00666413
-0.00667697
-0.00679736
-0.00728603
-0.00785139
-0.00829138
-0.00863949
-0.00899705
-0.00960741
-0.0104749
-0.0111196
-0.0114276
-0.0118033
-0.0123398
-0.0128465
-0.0132925
-0.0137934
-0.0143315
-0.0148237
-0.0153475
-0.0159136
-0.0165192
-0.0171125
-0.0177289
-0.0182974
-0.0188829
-0.0195781
-0.0203142
-0.0210474
-0.0217777
-0.0226002
-0.0234051
-0.0243112
-0.025204
-0.0261812
-0.027181
-0.0281746
-0.0292765
-0.0302861
-0.0314967
-0.0326539
-0.0338411
-0.0354458
-0.0368027
0.0237421
0.00631723
-0.00246035
-0.00425623
-0.00509147
-0.00608545
-0.00664893
-0.00666776
-0.00679235
-0.00728292
-0.00784884
-0.00828936
-0.00863791
-0.00899531
-0.00960529
-0.010473
-0.0111182
-0.0114263
-0.0118021
-0.0123389
-0.0128457
-0.0132919
-0.0137929
-0.014331
-0.0148232
-0.0153471
-0.0159132
-0.0165189
-0.0171122
-0.0177286
-0.0182971
-0.0188827
-0.0195778
-0.020314
-0.0210472
-0.0217775
-0.0226
-0.0234049
-0.0243111
-0.0252039
-0.0261811
-0.0271809
-0.0281745
-0.0292764
-0.030286
-0.0314966
-0.0326539
-0.033841
-0.0354457
-0.0368028
0.0231043
0.00644162
-0.00231726
-0.00419531
-0.00505465
-0.00605963
-0.00663177
-0.00665728
-0.0067866
-0.00727915
-0.00784561
-0.00828692
-0.00863635
-0.00899368
-0.00960305
-0.0104709
-0.0111163
-0.0114246
-0.0118006
-0.0123378
-0.0128449
-0.0132911
-0.0137922
-0.0143304
-0.0148227
-0.0153466
-0.0159128
-0.0165186
-0.0171119
-0.0177283
-0.0182969
-0.0188824
-0.0195776
-0.0203138
-0.021047
-0.0217773
-0.0225999
-0.0234047
-0.0243109
-0.0252037
-0.0261809
-0.0271808
-0.0281744
-0.0292763
-0.0302859
-0.0314965
-0.0326538
-0.0338409
-0.0354456
-0.036803
0.0224642
0.00656026
-0.00217026
-0.00413307
-0.005017
-0.00603252
-0.00661344
-0.00664602
-0.00678037
-0.00727484
-0.00784164
-0.00828391
-0.0086347
-0.00899224
-0.00960086
-0.0104685
-0.0111141
-0.0114225
-0.0117989
-0.0123364
-0.0128438
-0.0132902
-0.0137914
-0.0143297
-0.0148221
-0.015346
-0.0159123
-0.0165182
-0.0171116
-0.017728
-0.0182966
-0.0188821
-0.0195773
-0.0203136
-0.0210468
-0.0217771
-0.0225997
-0.0234045
-0.0243108
-0.0252036
-0.0261808
-0.0271807
-0.0281742
-0.0292762
-0.0302857
-0.0314964
-0.0326537
-0.0338408
-0.0354455
-0.0368031
0.0218236
0.00667258
-0.00201867
-0.00406912
-0.00497879
-0.0060046
-0.00659436
-0.00663426
-0.00677389
-0.00727022
-0.00783709
-0.00828031
-0.0086329
-0.00899103
-0.00959888
-0.0104661
-0.0111116
-0.01142
-0.0117968
-0.0123347
-0.0128425
-0.0132892
-0.0137905
-0.0143289
-0.0148213
-0.0153453
-0.0159117
-0.0165177
-0.0171112
-0.0177277
-0.0182963
-0.0188818
-0.0195771
-0.0203134
-0.0210466
-0.0217768
-0.0225994
-0.0234043
-0.0243106
-0.0252034
-0.0261806
-0.0271805
-0.0281741
-0.029276
-0.0302856
-0.0314963
-0.0326535
-0.0338406
-0.0354453
-0.0368033
0.0211839
0.00677808
-0.00186225
-0.00400322
-0.00494013
-0.00597608
-0.00657472
-0.0066221
-0.00676725
-0.0072655
-0.00783222
-0.00827627
-0.00863095
-0.00899008
-0.00959725
-0.0104639
-0.011109
-0.0114172
-0.0117943
-0.0123328
-0.0128409