/*--------------------------------*- C++ -*----------------------------------*\
| =========                 |                                                 |
| \\      /  F ield         | OpenFOAM: The Open Source CFD Toolbox           |
|  \\    /   O peration     | Version:  v2012                                 |
|   \\  /    A nd           | Website:  www.openfoam.com                      |
|    \\/     M anipulation  |                                                 |
\*---------------------------------------------------------------------------*/
FoamFile
{
    version     2.0;
    format      ascii;
    class       surfaceScalarField;
    location    "1.7";
    object      phi;
}
// * * * * * * * * * * * * * * * * * * * * * * * * * * * * * * * * * * * * * //

dimensions      [0 3 -1 0 0 0 0];
oriented        oriented;


internalField   nonuniform List<scalar> 
13830
(
9.33327e-07
-1.49625e-07
9.37257e-07
-2.67518e-07
9.41944e-07
-2.7314e-07
9.18994e-07
-7.24654e-07
9.95963e-07
1.9674e-06
8.54263e-07
2.50255e-07
9.26075e-07
3.73861e-07
8.79128e-07
6.47609e-07
8.78293e-07
-3.22665e-07
9.191e-07
-6.64966e-08
9.15182e-07
-8.43133e-07
9.3187e-07
-3.04556e-07
9.25284e-07
-6.4081e-07
9.35679e-07
-2.48345e-07
9.38113e-07
-3.51978e-07
9.37235e-07
-2.05538e-07
9.4404e-07
-2.00714e-07
9.37273e-07
-1.89038e-07
9.43463e-07
-1.05717e-07
-1.58781e-07
9.23865e-07
9.68962e-07
-1.46055e-07
9.72666e-07
-2.71223e-07
9.77608e-07
-2.78082e-07
9.54906e-07
-7.01952e-07
1.03027e-06
1.89203e-06
8.93979e-07
3.86547e-07
9.57905e-07
3.09935e-07
9.42113e-07
6.63402e-07
9.24863e-07
-3.05415e-07
9.76537e-07
-1.18171e-07
9.67288e-07
-8.33884e-07
9.83405e-07
-3.20673e-07
9.69451e-07
-6.26855e-07
9.82486e-07
-2.6138e-07
9.75461e-07
-3.44953e-07
9.82731e-07
-2.12808e-07
9.77422e-07
-1.95405e-07
9.8115e-07
-1.92766e-07
9.73018e-07
-9.75846e-08
-1.57483e-07
9.7172e-07
1.00592e-06
-1.42522e-07
1.00928e-06
-2.74586e-07
1.0147e-06
-2.83498e-07
9.9312e-07
-6.80373e-07
1.06088e-06
1.82427e-06
9.46217e-07
5.01214e-07
9.89236e-07
2.66916e-07
1.00649e-06
6.46144e-07
9.74602e-07
-2.73524e-07
1.02121e-06
-1.64774e-07
1.00578e-06
-8.18456e-07
1.01992e-06
-3.34815e-07
1.00085e-06
-6.07785e-07
1.01488e-06
-2.75415e-07
1.00473e-06
-3.348e-07
1.01505e-06
-2.23127e-07
1.00764e-06
-1.87993e-07
1.01378e-06
-1.98903e-07
1.0063e-06
-9.01056e-08
-1.56884e-07
1.0057e-06
1.04433e-06
-1.39071e-07
1.04707e-06
-2.77329e-07
1.05287e-06
-2.89299e-07
1.03379e-06
-6.61292e-07
1.09004e-06
1.76802e-06
1.00529e-06
5.85963e-07
1.02459e-06
2.47614e-07
1.06072e-06
6.10012e-07
1.02516e-06
-2.37959e-07
1.05834e-06
-1.97954e-07
1.03969e-06
-7.99806e-07
1.04753e-06
-3.42658e-07
1.02954e-06
-5.89793e-07
1.04009e-06
-2.85969e-07
1.03287e-06
-3.27572e-07
1.04241e-06
-2.32669e-07
1.0376e-06
-1.8319e-07
1.04361e-06
-2.04911e-07
1.03902e-06
-8.55083e-08
-1.56068e-07
1.0382e-06
1.08425e-06
-1.35769e-07
1.08602e-06
-2.79099e-07
1.09202e-06
-2.95299e-07
1.07633e-06
-6.45602e-07
1.1193e-06
1.72506e-06
1.0653e-06
6.39962e-07
1.06517e-06
2.4774e-07
1.10599e-06
5.69196e-07
1.0768e-06
-2.08774e-07
1.09451e-06
-2.15661e-07
1.07465e-06
-7.79951e-07
1.07589e-06
-3.43897e-07
1.06107e-06
-5.74976e-07
1.06841e-06
-2.93306e-07
1.06421e-06
-3.23374e-07
1.07298e-06
-2.41435e-07
1.07041e-06
-1.80623e-07
1.07609e-06
-2.10592e-07
1.07372e-06
-8.31317e-08
-1.55093e-07
1.07274e-06
1.12581e-06
-1.32736e-07
1.12621e-06
-2.79502e-07
1.13216e-06
-3.01247e-07
1.11997e-06
-6.33415e-07
1.15032e-06
1.69471e-06
1.12233e-06
6.67955e-07
1.11094e-06
2.59134e-07
1.14772e-06
5.32412e-07
1.12942e-06
-1.90468e-07
1.13457e-06
-2.20818e-07
1.11342e-06
-7.58796e-07
1.11026e-06
-3.40738e-07
1.09717e-06
-5.61885e-07
1.10305e-06
-2.99186e-07
1.10004e-06
-3.20361e-07
1.10845e-06
-2.49851e-07
1.10686e-06
-1.79028e-07
1.11224e-06
-2.15978e-07
1.11122e-06
-8.21132e-08
-1.54201e-07
1.11033e-06
1.16907e-06
-1.30108e-07
1.16778e-06
-2.78216e-07
1.17338e-06
-3.06846e-07
1.16409e-06
-6.24123e-07
1.18431e-06
1.67449e-06
1.17525e-06
6.77017e-07
1.16067e-06
2.73716e-07
1.19077e-06
5.02305e-07
1.18226e-06
-1.81957e-07
1.17984e-06
-2.18391e-07
1.15639e-06
-7.35348e-07
1.15104e-06
-3.35386e-07
1.13759e-06
-5.48438e-07
1.143e-06
-3.04597e-07
1.13967e-06
-3.17027e-07
1.1478e-06
-2.57984e-07
1.1462e-06
-1.77428e-07
1.15121e-06
-2.20988e-07
1.151e-06
-8.19046e-08
-1.53445e-07
1.15025e-06
1.21405e-06
-1.27976e-07
1.21092e-06
-2.75089e-07
1.21584e-06
-3.11768e-07
1.20849e-06
-6.16773e-07
1.22167e-06
1.66131e-06
1.22481e-06
6.73884e-07
1.21247e-06
2.86051e-07
1.23717e-06
4.77608e-07
1.23467e-06
-1.79458e-07
1.22914e-06
-2.12859e-07
1.20294e-06
-7.09148e-07
1.19654e-06
-3.28992e-07
1.18153e-06
-5.33427e-07
1.18653e-06
-3.09594e-07
1.182e-06
-3.12505e-07
1.18963e-06
-2.65612e-07
1.18756e-06
-1.75354e-07
1.19191e-06
-2.25341e-07
1.19229e-06
-8.22834e-08
-1.52637e-07
1.19148e-06
1.26073e-06
-1.26355e-07
1.25582e-06
-2.70172e-07
1.25972e-06
-3.15676e-07
1.25351e-06
-6.10554e-07
1.26228e-06
1.65254e-06
1.27251e-06
6.63653e-07
1.2648e-06
2.93754e-07
1.28652e-06
4.55892e-07
1.28637e-06
-1.79307e-07
1.28063e-06
-2.07115e-07
1.25219e-06
-6.80715e-07
1.24528e-06
-3.22078e-07
1.22842e-06
-5.16571e-07
1.2327e-06
-3.13869e-07
1.22657e-06
-3.0638e-07
1.23328e-06
-2.72316e-07
1.23064e-06
-1.72719e-07
1.23391e-06
-2.28614e-07
1.23478e-06
-8.31491e-08
-1.51489e-07
1.23363e-06
1.30911e-06
-1.25187e-07
1.30263e-06
-2.63696e-07
1.30521e-06
-3.18256e-07
1.2998e-06
-6.05136e-07
1.30586e-06
1.64647e-06
1.31985e-06
6.49666e-07
1.31704e-06
2.96565e-07
1.33753e-06
4.35399e-07
1.33743e-06
-1.79209e-07
1.33294e-06
-2.02618e-07
1.3034e-06
-6.51182e-07
1.29653e-06
-3.15207e-07
1.27814e-06
-4.98181e-07
1.28144e-06
-3.17167e-07
1.27364e-06
-2.98575e-07
1.27892e-06
-2.77601e-07
1.27578e-06
-1.69574e-07
1.27751e-06
-2.30346e-07
1.27869e-06
-8.43281e-08
-1.49723e-07
1.27692e-06
1.35921e-06
-1.2438e-07
1.35154e-06
-2.56018e-07
1.35251e-06
-3.19231e-07
1.34808e-06
-6.00705e-07
1.35232e-06
1.64223e-06
1.36804e-06
6.33947e-07
1.36935e-06
2.95258e-07
1.38916e-06
4.15582e-07
1.38811e-06
-1.78153e-07
1.38546e-06
-1.99973e-07
1.35608e-06
-6.21797e-07
1.35004e-06
-3.09167e-07
1.33074e-06
-4.78879e-07
1.33302e-06
-3.19445e-07
1.32375e-06
-2.89305e-07
1.32721e-06
-2.81067e-07
1.3236e-06
-1.65965e-07
1.32339e-06
-2.3013e-07
1.32458e-06
-8.55173e-08
-1.47068e-07
1.32192e-06
1.41111e-06
-1.23835e-07
1.40269e-06
-2.47596e-07
1.40181e-06
-3.18352e-07
1.39885e-06
-5.97745e-07
1.40169e-06
1.63939e-06
1.418e-06
6.1764e-07
1.42228e-06
2.90975e-07
1.44106e-06
3.96797e-07
1.43881e-06
-1.75903e-07
1.43821e-06
-1.99364e-07
1.41001e-06
-5.93606e-07
1.40561e-06
-3.04767e-07
1.3861e-06
-4.59366e-07
1.38754e-06
-3.20883e-07
1.37726e-06
-2.79032e-07
1.37876e-06
-2.82563e-07
1.37472e-06
-1.61928e-07
1.37229e-06
-2.277e-07
1.37313e-06
-8.63566e-08
-1.43249e-07
1.36931e-06
1.46487e-06
-1.2346e-07
1.45622e-06
-2.38946e-07
1.45329e-06
-3.15416e-07
1.45223e-06
-5.96693e-07
1.45402e-06
1.6376e-06
1.47041e-06
6.01254e-07
1.47646e-06
2.84924e-07
1.49351e-06
3.79745e-07
1.49017e-06
-1.72556e-07
1.49153e-06
-2.00727e-07
1.46523e-06
-5.67312e-07
1.46303e-06
-3.02563e-07
1.44388e-06
-4.40218e-07
1.44479e-06
-3.21791e-07
1.43416e-06
-2.68397e-07
1.4338e-06
-2.82212e-07
1.42947e-06
-1.57593e-07
1.42477e-06
-2.23002e-07
1.42497e-06
-8.6559e-08
-1.38031e-07
1.41975e-06
1.52059e-06
-1.23175e-07
1.51223e-06
-2.30584e-07
1.50712e-06
-3.10306e-07
1.50805e-06
-5.97626e-07
1.50932e-06
1.63632e-06
1.52576e-06
5.84821e-07
1.53242e-06
2.78265e-07
1.54715e-06
3.65013e-07
1.5429e-06
-1.68305e-07
1.54599e-06
-2.03818e-07
1.52191e-06
-5.43238e-07
1.52205e-06
-3.02704e-07
1.50361e-06
-4.21774e-07
1.50429e-06
-3.2247e-07
1.494e-06
-2.58109e-07
1.49209e-06
-2.80304e-07
1.48776e-06
-1.53265e-07
1.48099e-06
-2.16223e-07
1.48045e-06
-8.60246e-08
-1.31336e-07
1.47376e-06
1.57835e-06
-1.22914e-07
1.57069e-06
-2.22925e-07
1.56346e-06
-3.03073e-07
1.56596e-06
-6.00127e-07
1.56753e-06
1.63475e-06
1.58426e-06
5.68101e-07
1.59048e-06
2.72044e-07
1.60271e-06
3.5278e-07
1.59769e-06
-1.63289e-07
1.60216e-06
-2.08287e-07
1.58028e-06
-5.21357e-07
1.58251e-06
-3.04929e-07
1.56488e-06
-4.04149e-07
1.56548e-06
-3.23065e-07
1.55617e-06
-2.48798e-07
1.55299e-06
-2.77131e-07
1.5491e-06
-1.49373e-07
1.54068e-06
-2.07798e-07
1.53949e-06
-8.48416e-08
-1.23351e-07
1.53151e-06
1.63826e-06
-1.22635e-07
1.63154e-06
-2.16204e-07
1.62244e-06
-2.93974e-07
1.62567e-06
-6.03358e-07
1.6286e-06
1.63182e-06
1.64583e-06
5.50867e-07
1.65075e-06
2.67128e-07
1.6608e-06
3.42729e-07
1.65504e-06
-1.57528e-07
1.66052e-06
-2.13763e-07
1.64055e-06
-5.01389e-07
1.64429e-06
-3.08667e-07
1.62751e-06
-3.87374e-07
1.62793e-06
-3.23484e-07
1.62003e-06
-2.40893e-07
1.61577e-06
-2.72873e-07
1.61271e-06
-1.46314e-07
1.60324e-06
-1.98333e-07
1.60162e-06
-8.32167e-08
-1.14528e-07
1.59279e-06
1.70044e-06
-1.22327e-07
1.69468e-06
-2.10444e-07
1.68413e-06
-2.83421e-07
1.6871e-06
-6.06328e-07
1.6925e-06
1.62642e-06
1.71021e-06
5.33161e-07
1.71321e-06
2.64126e-07
1.72178e-06
3.34154e-07
1.71517e-06
-1.50918e-07
1.72134e-06
-2.19927e-07
1.70287e-06
-4.82923e-07
1.7074e-06
-3.13193e-07
1.69159e-06
-3.71563e-07
1.69153e-06
-3.23424e-07
1.68518e-06
-2.34543e-07
1.6799e-06
-2.67598e-07
1.67785e-06
-1.44266e-07
1.66798e-06
-1.88462e-07
1.66614e-06
-8.13706e-08
-1.05465e-07
1.65707e-06
1.765e-06
-1.22005e-07
1.76006e-06
-2.05511e-07
1.74848e-06
-2.71844e-07
1.75039e-06
-6.08232e-07
1.75923e-06
1.61758e-06
1.77702e-06
5.15364e-07
1.77783e-06
2.63321e-07
1.78576e-06
3.26222e-07
1.77817e-06
-1.43328e-07
1.78476e-06
-2.26521e-07
1.76739e-06
-4.65553e-07
1.77196e-06
-3.17755e-07
1.75739e-06
-3.56994e-07
1.75646e-06
-3.22498e-07
1.75154e-06
-2.29621e-07
1.7453e-06
-2.61359e-07
1.74414e-06
-1.43105e-07
1.73439e-06
-1.78712e-07
1.73248e-06
-7.94622e-08
-9.6717e-08
1.72373e-06
1.83203e-06
-1.21701e-07
1.82773e-06
-2.01205e-07
1.81541e-06
-2.59528e-07
1.81588e-06
-6.08701e-07
1.82875e-06
1.60471e-06
1.84604e-06
4.98074e-07
1.84472e-06
2.64649e-07
1.85267e-06
3.18267e-07
1.84408e-06
-1.34738e-07
1.85084e-06
-2.33282e-07
1.83426e-06
-4.48974e-07
1.83817e-06
-3.2166e-07
1.82524e-06
-3.44069e-07
1.82314e-06
-3.20391e-07
1.81932e-06
-2.25803e-07
1.81226e-06
-2.54302e-07
1.81162e-06
-1.42459e-07
1.80231e-06
-1.69407e-07
1.80042e-06
-7.7568e-08
-8.8648e-08
1.79235e-06
1.90164e-06
-1.21444e-07
1.8978e-06
-1.97361e-07
1.88481e-06
-2.46536e-07
1.88395e-06
-6.07844e-07
1.90103e-06
1.58762e-06
1.91723e-06
4.81873e-07
1.91414e-06
2.67742e-07
1.92243e-06
3.0998e-07
1.91302e-06
-1.25333e-07
1.91961e-06
-2.39872e-07
1.90368e-06
-4.33046e-07
1.90639e-06
-3.24361e-07
1.89544e-06
-3.33123e-07
1.89202e-06
-3.16971e-07
1.88889e-06
-2.22677e-07
1.88129e-06
-2.46701e-07
1.88071e-06
-1.4188e-07
1.87196e-06
-1.60653e-07
1.8701e-06
-7.57118e-08
-8.13814e-08
1.86284e-06
1.97391e-06
-1.21252e-07
1.97045e-06
-1.939e-07
1.95665e-06
-2.32734e-07
1.95488e-06
-6.0608e-07
1.97599e-06
1.56652e-06
1.99071e-06
4.67148e-07
1.98643e-06
2.72023e-07
1.99499e-06
3.01419e-07
1.98515e-06
-1.15494e-07
1.99112e-06
-2.45836e-07
1.97588e-06
-4.17807e-07
1.97701e-06
-3.25495e-07
1.96815e-06
-3.24264e-07
1.9635e-06
-3.12322e-07
1.96068e-06
-2.19854e-07
1.95285e-06
-2.38874e-07
1.95201e-06
-1.41036e-07
1.94373e-06
-1.52376e-07
1.94192e-06
-7.39021e-08
-7.48632e-08
1.93541e-06
2.04892e-06
-1.21123e-07
2.04586e-06
-1.90837e-07
2.03103e-06
-2.17906e-07
2.02881e-06
-6.03862e-07
2.05353e-06
1.5418e-06
2.06665e-06
4.54028e-07
2.06185e-06
2.76824e-07
2.0704e-06
2.9287e-07
2.06061e-06
-1.05708e-07
2.06541e-06
-2.50636e-07
2.05101e-06
-4.03411e-07
2.0504e-06
-3.24876e-07
2.04347e-06
-3.17334e-07
2.03784e-06
-3.06698e-07
2.03501e-06
-2.17026e-07
2.02723e-06
-2.31095e-07
2.02598e-06
-1.39781e-07
2.01806e-06
-1.44457e-07
2.01628e-06
-7.21261e-08
-6.89784e-08
2.0104e-06
2.12675e-06
-1.21037e-07
2.12417e-06
-1.88249e-07
2.10814e-06
-2.01882e-07
2.10573e-06
-6.01452e-07
2.13359e-06
1.51395e-06
2.14518e-06
4.4244e-07
2.14051e-06
2.81487e-07
2.14871e-06
2.84678e-07
2.13945e-06
-9.6456e-08
2.14254e-06
-2.53721e-07
2.12917e-06
-3.90046e-07
2.1268e-06
-3.22506e-07
2.12143e-06
-3.1196e-07
2.11518e-06
-3.0045e-07
2.11212e-06
-2.13968e-07
2.10456e-06
-2.23531e-07
2.1029e-06
-1.38122e-07
2.09523e-06
-1.36785e-07
2.09347e-06
-7.03656e-08
-6.36331e-08
2.08812e-06
2.2075e-06
-1.20949e-07
2.2055e-06
-1.86249e-07
2.18824e-06
-1.84622e-07
2.18561e-06
-5.98831e-07
2.21615e-06
1.48341e-06
2.22638e-06
4.32205e-07
2.22243e-06
2.85436e-07
2.22999e-06
2.77121e-07
2.22168e-06
-8.81473e-08
2.22257e-06
-2.54605e-07
2.21045e-06
-3.7793e-07
2.20643e-06
-3.18486e-07
2.20213e-06
-3.07655e-07
2.19561e-06
-2.93934e-07
2.19218e-06
-2.10541e-07
2.18488e-06
-2.16232e-07
2.1829e-06
-1.36142e-07
2.17541e-06
-1.29295e-07
2.17365e-06
-6.8598e-08
-5.87701e-08
2.16878e-06
2.29123e-06
-1.20791e-07
2.28994e-06
-1.84955e-07
2.27156e-06
-1.66242e-07
2.26847e-06
-5.95743e-07
2.30125e-06
1.45063e-06
2.31034e-06
4.23115e-07
2.30757e-06
2.88213e-07
2.31431e-06
2.70375e-07
2.30726e-06
-8.10996e-08
2.3056e-06
-2.52942e-07
2.29494e-06
-3.67272e-07
2.28943e-06
-3.12968e-07
2.2857e-06
-3.03926e-07
2.27918e-06
-2.87413e-07
2.27535e-06
-2.06713e-07
2.26824e-06
-2.09126e-07
2.26603e-06
-1.33927e-07
2.25872e-06
-1.21984e-07
2.25691e-06
-6.6787e-08
-5.434e-08
2.25248e-06
2.37806e-06
-1.20468e-07
2.37758e-06
-1.84476e-07
2.35834e-06
-1.47e-07
2.35441e-06
-5.91809e-07
2.38901e-06
1.41603e-06
2.39715e-06
4.14978e-07
2.39589e-06
2.89473e-07
2.40172e-06
2.64544e-07
2.39617e-06
-7.55549e-08
2.39182e-06
-2.48593e-07
2.38272e-06
-3.58174e-07
2.37592e-06
-3.06159e-07
2.37233e-06
-3.00342e-07
2.36595e-06
-2.81031e-07
2.36176e-06
-2.02524e-07
2.3547e-06
-2.02067e-07
2.35236e-06
-1.31585e-07
2.34529e-06
-1.14912e-07
2.34332e-06
-6.48193e-08
-5.02834e-08
2.33926e-06
2.46808e-06
-1.19868e-07
2.46849e-06
-1.84887e-07
2.44875e-06
-1.27258e-07
2.44358e-06
-5.86645e-07
2.47959e-06
1.38002e-06
2.48693e-06
4.0764e-07
2.48743e-06
2.8897e-07
2.49227e-06
2.59707e-07
2.4884e-06
-7.1685e-08
2.48147e-06
-2.41663e-07
2.47386e-06
-3.50569e-07
2.46603e-06
-2.98323e-07
2.46223e-06
-2.96543e-07
2.45604e-06
-2.74839e-07
2.45157e-06
-1.98054e-07
2.4443e-06
-1.94798e-07
2.44246e-06
-1.29747e-07
2.4354e-06
-1.07852e-07
2.43296e-06
-6.23837e-08
-4.65378e-08
2.42922e-06
2.56141e-06
-1.18877e-07
2.56273e-06
-1.86211e-07
2.54291e-06
-1.07433e-07
2.53621e-06
-5.79947e-07
2.57321e-06
1.34303e-06
2.57984e-06
4.01004e-07
2.58229e-06
2.86524e-07
2.58606e-06
2.5594e-07
2.58396e-06
-6.95898e-08
2.57471e-06
-2.32415e-07
2.5684e-06
-3.44259e-07
2.55991e-06
-2.89835e-07
2.55554e-06
-2.92166e-07
2.5496e-06
-2.689e-07
2.54496e-06
-1.93413e-07
2.5368e-06
-1.86647e-07
2.53621e-06
-1.29151e-07
2.52878e-06
-1.00426e-07
2.52596e-06
-5.95568e-08
-4.30423e-08
2.52246e-06
2.6582e-06
-1.17396e-07
2.66039e-06
-1.88402e-07
2.64091e-06
-8.79501e-08
2.6325e-06
-5.71539e-07
2.67011e-06
1.30541e-06
2.67608e-06
3.95042e-07
2.68059e-06
2.82011e-07
2.68323e-06
2.53305e-07
2.68292e-06
-6.92844e-08
2.67176e-06
-2.21254e-07
2.66636e-06
-3.3886e-07
2.65776e-06
-2.8124e-07
2.65235e-06
-2.86755e-07
2.64689e-06
-2.63436e-07
2.64223e-06
-1.88753e-07
2.63223e-06
-1.76642e-07
2.62918e-06
-1.26106e-07
2.62353e-06
-9.47759e-08
2.62246e-06
-5.84896e-08
-3.96419e-08
2.61906e-06
2.75861e-06
-1.15357e-07
2.76156e-06
-1.91348e-07
2.7428e-06
-6.91856e-08
2.73264e-06
-5.61384e-07
2.77058e-06
1.26747e-06
2.77584e-06
3.89787e-07
2.78247e-06
2.75374e-07
2.78395e-06
2.5183e-07
2.78535e-06
-7.06885e-08
2.77284e-06
-2.08742e-07
2.76773e-06
-3.33745e-07
2.75985e-06
-2.73359e-07
2.7527e-06
-2.79609e-07
2.74834e-06
-2.59082e-07
2.74364e-06
-1.84051e-07
2.73188e-06
-1.6488e-07
2.72636e-06
-1.20583e-07
2.72083e-06
-8.92518e-08
2.72289e-06
-6.05441e-08
-3.58413e-08
2.71909e-06
2.86283e-06
-1.12729e-07
2.86637e-06
-1.94887e-07
2.84861e-06
-5.14272e-08
2.8368e-06
-5.4957e-07
2.87489e-06
1.22938e-06
2.87933e-06
3.85346e-07
2.8881e-06
2.66609e-07
2.88842e-06
2.51505e-07
2.89135e-06
-7.36135e-08
2.87816e-06
-1.95553e-07
2.87256e-06
-3.28144e-07
2.86642e-06
-2.67225e-07
2.85667e-06
-2.6986e-07
2.85452e-06
-2.56934e-07
2.84962e-06
-1.79148e-07
2.84516e-06
-1.6042e-07
2.84171e-06
-1.17125e-07
2.83613e-06
-8.36739e-08
2.82775e-06
-5.21621e-08
-3.07873e-08
2.82269e-06
2.97103e-06
-1.09518e-07
2.97498e-06
-1.9883e-07
2.95841e-06
-3.48602e-08
2.94509e-06
-5.36251e-07
2.98332e-06
1.19115e-06
2.98678e-06
3.81887e-07
2.99762e-06
2.55766e-07
2.99683e-06
2.523e-07
3.00104e-06
-7.7829e-08
2.98775e-06
-1.8226e-07
2.98112e-06
-3.21519e-07
2.97742e-06
-2.63525e-07
2.96471e-06
-2.57148e-07
2.9644e-06
-2.56619e-07
2.95929e-06
-1.74038e-07
2.9565e-06
-1.57631e-07
2.95097e-06
-1.11594e-07
2.94425e-06
-7.69515e-08
2.9362e-06
-4.41165e-08
-2.48584e-08
2.93027e-06
3.08339e-06
-1.05752e-07
3.08756e-06
-2.02992e-07
3.07227e-06
-1.95759e-08
3.0576e-06
-5.21582e-07
3.09612e-06
1.15263e-06
3.09841e-06
3.79595e-07
3.11124e-06
2.42937e-07
3.10934e-06
2.54199e-07
3.11466e-06
-8.31449e-08
3.10155e-06
-1.69158e-07
3.09393e-06
-3.13897e-07
3.09174e-06
-2.61327e-07
3.07829e-06
-2.43705e-07
3.0773e-06
-2.55632e-07
3.07345e-06
-1.70181e-07
3.07103e-06
-1.55212e-07
3.0671e-06
-1.07668e-07
3.06224e-06
-7.20851e-08
3.04804e-06
-2.99199e-08
-1.92037e-08
3.04238e-06
3.20009e-06
-1.01479e-07
3.20431e-06
-2.07218e-07
3.19032e-06
-5.58021e-09
3.17442e-06
-5.05679e-07
3.21349e-06
1.11356e-06
3.21447e-06
3.78613e-07
3.22912e-06
2.28289e-07
3.22621e-06
2.57105e-07
3.23231e-06
-8.92433e-08
3.21964e-06
-1.5649e-07
3.21145e-06
-3.05702e-07
3.20862e-06
-2.58505e-07
3.19797e-06
-2.33053e-07
3.19399e-06
-2.51648e-07
3.19187e-06
-1.68065e-07
3.17372e-06
-1.37055e-07
3.16325e-06
-9.72002e-08
3.15719e-06
-6.6028e-08
3.1622e-06
-3.4929e-08
-1.62834e-08
3.15928e-06
3.32129e-06
-9.67602e-08
3.32548e-06
-2.11406e-07
3.31268e-06
7.21889e-09
3.29566e-06
-4.88652e-07
3.33554e-06
1.07367e-06
3.33522e-06
3.78936e-07
3.35131e-06
2.12194e-07
3.3478e-06
2.60616e-07
3.35401e-06
-9.54464e-08
3.34247e-06
-1.44956e-07
3.3332e-06
-2.96431e-07
3.33036e-06
-2.55659e-07
3.32051e-06
-2.23204e-07
3.30916e-06
-2.40303e-07
3.30339e-06
-1.62294e-07
3.29354e-06
-1.27207e-07
3.28495e-06
-8.86045e-08
3.27783e-06
-5.89153e-08
3.28271e-06
-3.98036e-08
-1.36988e-08
3.28012e-06
3.44719e-06
-9.16654e-08
3.45127e-06
-2.15486e-07
3.43958e-06
1.89062e-08
3.42141e-06
-4.70481e-07
3.46243e-06
1.03266e-06
3.46085e-06
3.80513e-07
3.47798e-06
1.95059e-07
3.47434e-06
2.64254e-07
3.47988e-06
-1.00984e-07
3.47034e-06
-1.35417e-07
3.45917e-06
-2.85258e-07
3.45713e-06
-2.53617e-07
3.44657e-06
-2.12642e-07
3.43421e-06
-2.27943e-07
3.4269e-06
-1.54986e-07
3.42158e-06
-1.21889e-07
3.42349e-06
-9.0517e-08
3.42494e-06
-6.03582e-08
3.41007e-06
-2.49377e-08
-8.79941e-09
3.40517e-06
3.57794e-06
-8.62626e-08
3.58186e-06
-2.19398e-07
3.57128e-06
2.94843e-08
3.55176e-06
-4.50965e-07
3.59428e-06
9.90132e-07
3.59144e-06
3.83353e-07
3.60937e-06
1.77136e-07
3.60593e-06
2.67696e-07
3.61025e-06
-1.05303e-07
3.60296e-06
-1.28133e-07
3.59009e-06
-2.72382e-07
3.58667e-06
-2.50198e-07
3.57694e-06
-2.02917e-07
3.56287e-06
-2.1387e-07
3.55855e-06
-1.50665e-07
3.54839e-06
-1.11727e-07
3.53999e-06
-8.21203e-08
3.5327e-06
-5.30717e-08
3.53746e-06
-2.9698e-08
-7.72867e-09
3.53639e-06
3.71372e-06
-8.05977e-08
3.71748e-06
-2.2316e-07
3.70793e-06
3.90336e-08
3.68698e-06
-4.30012e-07
3.73102e-06
9.46088e-07
3.72734e-06
3.87035e-07
3.7454e-06
1.5908e-07
3.74304e-06
2.70054e-07
3.74493e-06
-1.0719e-07
3.74102e-06
-1.24225e-07
3.72463e-06
-2.55991e-07
3.72095e-06
-2.46519e-07
3.70824e-06
-1.90206e-07
3.69708e-06
-2.02715e-07
3.69255e-06
-1.4613e-07
3.68421e-06
-1.03393e-07
3.67453e-06
-7.24396e-08
3.66615e-06
-4.46876e-08
3.67282e-06
-3.63672e-08
-6.70005e-09
3.67179e-06
3.85472e-06
-7.47269e-08
3.85831e-06
-2.26752e-07
3.84984e-06
4.75003e-08
3.82726e-06
-4.07424e-07
3.87276e-06
9.00581e-07
3.86871e-06
3.91089e-07
3.88618e-06
1.41605e-07
3.88592e-06
2.70319e-07
3.88417e-06
-1.05439e-07
3.88403e-06
-1.24091e-07
3.86311e-06
-2.35064e-07
3.86209e-06
-2.45504e-07
3.84792e-06
-1.76037e-07
3.83769e-06
-1.92485e-07
3.83019e-06
-1.38626e-07
3.83032e-06
-1.03523e-07
3.83297e-06
-7.50855e-08
3.83566e-06
-4.73832e-08
3.81744e-06
-1.81463e-08
-5.66855e-10
3.81131e-06
4.00113e-06
-6.87076e-08
4.00446e-06
-2.30074e-07
3.99735e-06
5.46043e-08
3.97275e-06
-3.82817e-07
4.0198e-06
8.53531e-07
4.01545e-06
3.95432e-07
4.03237e-06
1.24683e-07
4.03375e-06
2.68945e-07
4.02979e-06
-1.01478e-07
4.03006e-06
-1.24361e-07
4.01038e-06
-2.15386e-07
4.00448e-06
-2.39608e-07
3.99483e-06
-1.66381e-07
3.9824e-06
-1.80053e-07
3.97687e-06
-1.33102e-07
3.97004e-06
-9.66908e-08
3.96084e-06
-6.58891e-08
3.95302e-06
-3.95615e-08
3.95881e-06
-2.39326e-08
-4.22223e-10
3.95866e-06
4.15313e-06
-6.25598e-08
4.15621e-06
-2.33152e-07
4.15047e-06
6.03433e-08
4.12404e-06
-3.56386e-07
4.17202e-06
8.05551e-07
4.16808e-06
3.99378e-07
4.18367e-06
1.09091e-07
4.18734e-06
2.65273e-07
4.18098e-06
-9.51134e-08
4.18127e-06
-1.24651e-07
4.16268e-06
-1.96802e-07
4.15405e-06
-2.30975e-07
4.14653e-06
-1.58859e-07
4.13348e-06
-1.67006e-07
4.12776e-06
-1.27386e-07
4.11998e-06
-8.89101e-08
4.11482e-06
-6.07209e-08
4.10729e-06
-3.20386e-08
4.11001e-06
-2.66472e-08
-9.1974e-10
4.1105e-06
4.31096e-06
-5.63374e-08
4.31372e-06
-2.35905e-07
4.30947e-06
6.45927e-08
4.28142e-06
-3.28334e-07
4.32967e-06
7.57301e-07
4.32682e-06
4.02226e-07
4.34013e-06
9.57756e-08
4.34686e-06
2.58548e-07
4.33769e-06
-8.59434e-08
4.3388e-06
-1.25767e-07
4.31934e-06
-1.77334e-07
4.31077e-06
-2.22407e-07
4.30284e-06
-1.50929e-07
4.29132e-06
-1.55486e-07
4.28311e-06
-1.19173e-07
4.27951e-06
-8.53124e-08
4.2787e-06
-5.99159e-08
4.28082e-06
-3.41597e-08
4.26997e-06
-1.57947e-08
1.99789e-09
4.26705e-06
4.47485e-06
-5.01059e-08
4.47715e-06
-2.38196e-07
4.47455e-06
6.71901e-08
4.44495e-06
-2.9874e-07
4.49319e-06
7.09061e-07
4.49148e-06
4.03945e-07
4.50288e-06
8.43674e-08
4.51138e-06
2.50056e-07
4.50121e-06
-7.57805e-08
4.50122e-06
-1.2577e-07
4.48317e-06
-1.59283e-07
4.47255e-06
-2.1179e-07
4.46598e-06
-1.44362e-07
4.45442e-06
-1.43919e-07
4.44679e-06
-1.11546e-07
4.44139e-06
-7.99172e-08
4.43511e-06
-5.36371e-08
4.42834e-06
-2.73801e-08
4.43102e-06
-1.84818e-08
1.91127e-09
4.43111e-06
4.64499e-06
-4.38843e-08
4.64681e-06
-2.40024e-07
4.64567e-06
6.83385e-08
4.61514e-06
-2.68212e-07
4.66252e-06
6.61674e-07
4.66263e-06
4.03841e-07
4.6717e-06
7.52945e-08
4.68182e-06
2.3994e-07
4.67092e-06
-6.48869e-08
4.66994e-06
-1.24792e-07
4.65306e-06
-1.424e-07
4.64096e-06
-1.99695e-07
4.63504e-06
-1.38438e-07
4.6239e-06
-1.32784e-07
4.61646e-06
-1.04101e-07
4.61003e-06
-7.34829e-08
4.60611e-06
-4.97254e-08
4.60147e-06
-2.27372e-08
4.60064e-06
-1.76523e-08
1.64822e-09
4.6009e-06
4.82163e-06
-3.77301e-08
4.82291e-06
-2.41297e-07
4.82314e-06
6.81056e-08
4.7921e-06
-2.37175e-07
4.83795e-06
6.15827e-07
4.84041e-06
4.01382e-07
4.84695e-06
6.87531e-08
4.85858e-06
2.28316e-07
4.84666e-06
-5.29705e-08
4.84532e-06
-1.23448e-07
4.82914e-06
-1.26225e-07
4.81644e-06
-1.86991e-07
4.81021e-06
-1.3221e-07
4.80031e-06
-1.22889e-07
4.7921e-06
-9.58916e-08
4.78664e-06
-6.80227e-08
4.7847e-06
-4.77804e-08
4.784e-06
-2.20359e-08
4.77787e-06
-1.15216e-08
2.80265e-09
4.77671e-06
5.00504e-06
-3.16992e-08
5.00564e-06
-2.41901e-07
5.00724e-06
6.65121e-08
4.97602e-06
-2.05956e-07
5.01992e-06
5.71927e-07
5.02458e-06
3.96723e-07
5.02937e-06
6.39587e-08
5.04137e-06
2.1632e-07
5.02913e-06
-4.07366e-08
5.02686e-06
-1.21176e-07
5.01226e-06
-1.11627e-07
4.99858e-06
-1.73308e-07
4.99232e-06
-1.25951e-07
4.98308e-06
-1.13647e-07
4.97509e-06
-8.79014e-08
4.96942e-06
-6.23557e-08
4.96413e-06
-4.249e-08
4.95942e-06
-1.73205e-08
4.96016e-06
-1.22645e-08
3.13753e-09
4.95983e-06
5.19544e-06
-2.58223e-08
5.19535e-06
-2.41815e-07
5.1981e-06
6.37645e-08
5.16727e-06
-1.75132e-07
5.20857e-06
5.30629e-07
5.21551e-06
3.89783e-07
5.21873e-06
6.07394e-08
5.23078e-06
2.04269e-07
5.21843e-06
-2.83864e-08
5.2151e-06
-1.17845e-07
5.20224e-06
-9.8771e-08
5.18793e-06
-1.58998e-07
5.18133e-06
-1.19348e-07
5.17286e-06
-1.05176e-07
5.16511e-06
-8.01505e-08
5.15901e-06
-5.62581e-08
5.15648e-06
-3.99595e-08
5.15553e-06
-1.63706e-08
5.15076e-06
-7.49203e-09
4.25996e-09
5.14964e-06
5.39311e-06
-2.01511e-08
5.39224e-06
-2.40947e-07
5.39609e-06
5.99108e-08
5.36604e-06
-1.45083e-07
5.40446e-06
4.92209e-07
5.4132e-06
3.81042e-07
5.41522e-06
5.8726e-08
5.42714e-06
1.92348e-07
5.41484e-06
-1.60927e-08
5.41052e-06
-1.13524e-07
5.39931e-06
-8.75572e-08
5.38468e-06
-1.44366e-07
5.37776e-06
-1.12429e-07
5.36988e-06
-9.72945e-08
5.36245e-06
-7.27211e-08
5.35624e-06
-5.00458e-08
5.35184e-06
-3.55666e-08
5.34813e-06
-1.26553e-08
5.34753e-06
-6.89395e-09
4.8015e-09
5.34699e-06
5.59832e-06
-1.47376e-08
5.59659e-06
-2.39216e-07
5.60145e-06
5.50554e-08
5.57267e-06
-1.163e-07
5.60806e-06
4.56812e-07
5.61791e-06
3.71192e-07
5.61885e-06
5.77848e-08
5.63071e-06
1.80488e-07
5.61882e-06
-4.20233e-09
5.61353e-06
-1.08227e-07
5.60384e-06
-7.78658e-08
5.58926e-06
-1.29792e-07
5.58178e-06
-1.04949e-07
5.57422e-06
-8.9729e-08
5.56725e-06
-6.57587e-08
5.56098e-06
-4.37766e-08
5.55715e-06
-3.17274e-08
5.55496e-06
-1.0468e-08
5.55267e-06
-4.60766e-09
5.78169e-09
5.55169e-06
5.81136e-06
-9.61393e-09
5.80872e-06
-2.36581e-07
5.81447e-06
4.9308e-08
5.78753e-06
-8.93642e-08
5.81969e-06
4.24653e-07
5.83002e-06
3.60867e-07
5.82985e-06
5.79531e-08
5.84191e-06
1.68429e-07
5.83082e-06
6.88884e-09
5.82447e-06
-1.01884e-07
5.81601e-06
-6.94031e-08
5.80164e-06
-1.15426e-07
5.79355e-06
-9.68545e-08
5.78636e-06
-8.2539e-08
5.77987e-06
-5.92684e-08
5.77388e-06
-3.77849e-08
5.77024e-06
-2.8087e-08
5.76894e-06
-9.17147e-09
5.76569e-06
-1.35646e-09
7.24518e-09
5.76423e-06
6.03252e-06
-4.83983e-09
6.02888e-06
-2.32941e-07
6.03546e-06
4.27336e-08
6.01078e-06
-6.46879e-08
6.0398e-06
3.95631e-07
6.05005e-06
3.50619e-07
6.04899e-06
5.90193e-08
6.06097e-06
1.5644e-07
6.05091e-06
1.69582e-08
6.04355e-06
-9.45286e-08
6.0361e-06
-6.19575e-08
6.02223e-06
-1.01554e-07
6.01375e-06
-8.83698e-08
6.00669e-06
-7.54774e-08
6.00076e-06
-5.33421e-08
5.99486e-06
-3.18817e-08
5.99009e-06
-2.33257e-08
5.98711e-06
-6.18585e-09
5.98615e-06
-3.99651e-10
8.28733e-09
5.98511e-06
6.26211e-06
-4.52468e-10
6.2574e-06
-2.2823e-07
6.2647e-06
3.54346e-08
6.24264e-06
-4.26301e-08
6.2685e-06
3.6977e-07
6.27878e-06
3.40346e-07
6.27668e-06
6.11204e-08
6.28835e-06
1.44771e-07
6.27941e-06
2.58995e-08
6.27118e-06
-8.63003e-08
6.26458e-06
-5.53648e-08
6.25139e-06
-8.83565e-08
6.24242e-06
-7.94039e-08
6.23535e-06
-6.84057e-08
6.22977e-06
-4.77593e-08
6.22415e-06
-2.62617e-08
6.22021e-06
-1.93891e-08
6.21859e-06
-4.5697e-09
6.21587e-06
2.31949e-09
9.79156e-09
6.21437e-06
6.50045e-06
3.50338e-09
6.49456e-06
-2.22343e-07
6.50254e-06
2.7456e-08
6.48307e-06
-2.3164e-08
6.50614e-06
3.46706e-07
6.51644e-06
3.30039e-07
6.51349e-06
6.40723e-08
6.52445e-06
1.33816e-07
6.51661e-06
3.37418e-08
6.50763e-06
-7.7327e-08
6.50159e-06
-4.93275e-08
6.48917e-06
-7.59318e-08
6.47993e-06
-7.01635e-08
6.47272e-06
-6.11937e-08
6.46758e-06
-4.26167e-08
6.46247e-06
-2.11586e-08
6.45756e-06
-1.44751e-08
6.45469e-06
-1.7031e-09
6.45362e-06
3.39121e-09
1.07826e-08
6.45263e-06
6.74786e-06
6.98761e-09
6.74065e-06
-2.15142e-07
6.74931e-06
1.88043e-08
6.73236e-06
-6.21379e-09
6.75311e-06
3.25952e-07
6.76335e-06
3.19801e-07
6.7597e-06
6.77159e-08
6.76958e-06
1.23945e-07
6.76275e-06
4.05659e-08
6.75321e-06
-6.77832e-08
6.74758e-06
-4.36984e-08
6.73612e-06
-6.44694e-08
6.72676e-06
-6.08052e-08
6.7193e-06
-5.37332e-08
6.71446e-06
-3.77789e-08
6.70968e-06
-1.63821e-08
6.70546e-06
-1.02476e-08
6.70311e-06
6.42972e-10
6.70093e-06
5.56785e-09
1.20176e-08
6.6997e-06
7.00466e-06
9.97432e-09
6.99598e-06
-2.06462e-07
7.00538e-06
9.40791e-09
6.99088e-06
8.28904e-09
7.00997e-06
3.06855e-07
7.01985e-06
3.0992e-07
7.01558e-06
7.19911e-08
7.02416e-06
1.15367e-07
7.01826e-06
4.64605e-08
7.00839e-06
-5.79097e-08
7.0029e-06
-3.82128e-08
6.99238e-06
-5.39456e-08
6.98305e-06
-5.14791e-08
6.97533e-06
-4.60088e-08
6.97058e-06
-3.30314e-08
6.96633e-06
-1.21329e-08
6.96177e-06
-5.68068e-09
6.95888e-06
3.53039e-09
6.95737e-06
7.07739e-09
1.28786e-08
6.95651e-06
7.27122e-06
1.24416e-08
7.26099e-06
-1.96225e-07
7.2711e-06
-7.11123e-10
7.259e-06
2.03907e-08
7.27696e-06
2.88896e-07
7.28637e-06
3.00515e-07
7.28142e-06
7.69424e-08
7.2886e-06
1.08186e-07
7.28344e-06
5.16187e-08
7.27339e-06
-4.78622e-08
7.26792e-06
-3.27422e-08
7.25827e-06
-4.42938e-08
7.24931e-06
-4.25244e-08
7.24131e-06
-3.80031e-08
7.23648e-06
-2.82079e-08
7.23274e-06
-8.38896e-09
7.22862e-06
-1.55987e-09
7.226e-06
6.146e-09
7.22384e-06
9.24272e-09
1.37494e-08
7.22297e-06
7.54787e-06
1.43981e-08
7.53623e-06
-1.84586e-07
7.54681e-06
-1.12916e-08
7.53713e-06
3.0075e-08
7.55405e-06
2.71976e-07
7.56322e-06
2.91346e-07
7.55749e-06
8.26726e-08
7.56323e-06
1.02445e-07
7.5587e-06
5.61539e-08
7.54871e-06
-3.78737e-08
7.54311e-06
-2.71496e-08
7.53422e-06
-3.53996e-08
7.52573e-06
-3.40363e-08
7.51764e-06
-2.99077e-08
7.51252e-06
-2.3094e-08
7.50924e-06
-5.10282e-09
7.50529e-06
2.38893e-09
7.50264e-06
8.79071e-09
7.50048e-06
1.14053e-08
1.47129e-08
7.49952e-06
7.83498e-06
1.58721e-08
7.82225e-06
-1.71854e-07
7.83286e-06
-2.18983e-08
7.82556e-06
3.73758e-08
7.84143e-06
2.56106e-07
7.85054e-06
2.8223e-07
7.84405e-06
8.91685e-08
7.8485e-06
9.79889e-08
7.84449e-06
6.01654e-08
7.83463e-06
-2.80089e-08
7.82887e-06
-2.13931e-08
7.82051e-06
-2.70438e-08
7.81266e-06
-2.61811e-08
7.80469e-06
-2.19365e-08
7.79917e-06
-1.7575e-08
7.79615e-06
-2.08945e-09
7.79252e-06
6.02781e-09
7.78994e-06
1.13673e-08
7.78779e-06
1.35545e-08
1.58918e-08
7.78661e-06
8.13292e-06
1.69151e-08
8.11949e-06
-1.58422e-07
8.12952e-06
-3.19323e-08
8.12453e-06
4.23618e-08
8.13952e-06
2.41122e-07
8.14814e-06
2.73604e-07
8.14129e-06
9.60256e-08
8.14477e-06
9.45063e-08
8.14122e-06
6.37161e-08
8.13155e-06
-1.83375e-08
8.12563e-06
-1.5472e-08
8.11768e-06
-1.91035e-08
8.11043e-06
-1.89302e-08
8.10282e-06
-1.43185e-08
8.09685e-06
-1.16101e-08
8.09399e-06
7.73945e-10
8.09072e-06
9.29291e-09
8.08839e-06
1.36958e-08
8.08602e-06
1.59333e-08
1.72769e-08
8.08463e-06
8.44207e-06
1.7603e-08
8.42833e-06
-1.44681e-07
8.43678e-06
-4.03782e-08
8.43411e-06
4.50336e-08
8.44807e-06
2.27155e-07
8.45536e-06
2.66318e-07