/*--------------------------------*- C++ -*----------------------------------*\
| =========                 |                                                 |
| \\      /  F ield         | OpenFOAM: The Open Source CFD Toolbox           |
|  \\    /   O peration     | Version:  v2012                                 |
|   \\  /    A nd           | Website:  www.openfoam.com                      |
|    \\/     M anipulation  |                                                 |
\*---------------------------------------------------------------------------*/
FoamFile
{
    version     2.0;
    format      ascii;
    class       volScalarField;
    location    "4.1";
    object      p;
}
// * * * * * * * * * * * * * * * * * * * * * * * * * * * * * * * * * * * * * //

dimensions      [0 2 -2 0 0 0 0];


internalField   nonuniform List<scalar> 
7000
(
-2.65337e-10
-0.000117765
-0.000280188
0.00207122
0.00143046
0.00221265
0.0033079
0.00262762
0.0018967
0.00292016
0.00123365
0.00223596
-0.00169232
0.000532048
-0.000847828
0.00125004
0.00129527
0.00272991
0.0036427
0.00534913
-2.19507e-06
-0.000108935
-0.000277291
0.00206391
0.00143016
0.00221559
0.00330066
0.00262716
0.00190038
0.00290557
0.00125408
0.00221917
-0.00166475
0.000522647
-0.000838205
0.001241
0.00129761
0.00271946
0.00364266
0.00525109
-4.29046e-06
-9.88139e-05
-0.000274552
0.00204901
0.00143001
0.00222531
0.00329102
0.00262972
0.00190245
0.00288606
0.00127498
0.00219031
-0.00161912
0.000493779
-0.000810689
0.0012139
0.00131246
0.00268918
0.00364081
0.00510148
-6.14438e-06
-8.97427e-05
-0.000270918
0.00203499
0.00142878
0.00224245
0.00327881
0.00263341
0.00190458
0.00286061
0.00129616
0.00214662
-0.00155941
0.000449912
-0.000773381
0.00117706
0.00133222
0.00265128
0.00363118
0.00494055
-8.14251e-06
-8.12392e-05
-0.000264217
0.0020236
0.00142698
0.0022644
0.0032654
0.00263775
0.00190678
0.00283151
0.0013184
0.00209116
-0.00148626
0.000392984
-0.000730249
0.00113446
0.00135324
0.00261127
0.00361165
0.00478968
-1.04783e-05
-7.25344e-05
-0.000253851
0.00201347
0.00142532
0.00228956
0.00325218
0.00264206
0.00190952
0.00280081
0.0013416
0.00202889
-0.00140244
0.000327392
-0.000681337
0.00108818
0.00137601
0.00256902
0.00358223
0.004654
-1.32544e-05
-6.28464e-05
-0.000240087
0.00200379
0.0014242
0.00231683
0.00323987
0.00264591
0.00191326
0.00276935
0.00136592
0.0019636
-0.00131058
0.000258635
-0.000626912
0.00103938
0.0014001
0.00252364
0.00354383
0.00452929
-1.64944e-05
-5.13839e-05
-0.000223098
0.00199483
0.00142351
0.00234516
0.00322858
0.00264899
0.00191825
0.00273724
0.00139188
0.00189711
-0.00121171
0.000190232
-0.00056798
0.000989
0.0014239
0.002476
0.00349663
0.00441094
-2.01398e-05
-3.74677e-05
-0.000202589
0.00198715
0.00142261
0.00237354
0.00321805
0.00265103
0.00192448
0.0027042
0.00141984
0.00183
-0.00110584
0.000123441
-0.000504996
0.000938079
0.00144582
0.00242794
0.00344028
0.00429706
-2.40801e-05
-2.06769e-05
-0.000177943
0.00198121
0.00142065
0.00240106
0.00320795
0.00265177
0.00193187
0.00266993
0.00144993
0.00176231
-0.000993083
5.87352e-05
-0.00043778
0.00088779
0.00146463
0.00238119
0.0033749
0.00418699
-2.81961e-05
-9.25397e-07
-0.000148606
0.00197726
0.00141701
0.00242708
0.00319819
0.00265097
0.00194031
0.00263424
0.00148215
0.00169398
-0.000874188
-3.14235e-06
-0.000366306
0.000839744
0.00147947
0.00233693
0.00330135
0.00407981
-3.23911e-05
2.15646e-05
-0.000114461
0.00197524
0.00141153
0.00245124
0.0031889
0.00264838
0.00194971
0.00259703
0.00151648
0.001625
-0.000750247
-6.08941e-05
-0.000291375
0.000796184
0.00148967
0.0022957
0.00322094
0.00397428
-3.66025e-05
4.63547e-05
-7.60006e-05
0.00197476
0.0014045
0.00247346
0.00318035
0.00264379
0.00196003
0.00255828
0.00155292
0.00155542
-0.000622484
-0.000112731
-0.000214586
0.0007596
0.00149467
0.00225764
0.00313548
0.00386936
-4.07953e-05
7.2927e-05
-3.41809e-05
0.00197521
0.0013965
0.00249376
0.00317288
0.00263698
0.00197124
0.00251803
0.00159144
0.00148556
-0.000492371
-0.000156653
-0.000137816
0.000732207
0.00149419
0.00222258
0.00304715
0.00376457
-4.49493e-05
0.000100809
9.93367e-06
0.0019759
0.00138811
0.00251212
0.00316677
0.00262774
0.00198334
0.00247633
0.00163194
0.00141587
-0.000361646
-0.000190521
-6.29669e-05
0.000715565
0.00148869
0.0021901
0.00295793
0.00365989
-4.905e-05
0.000129647
5.54844e-05
0.00197628
0.00137988
0.00252851
0.00316222
0.00261587
0.00199629
0.0024333
0.0016743
0.00134693
-0.000232298
-0.000212241
8.15975e-06
0.000710445
0.0014791
0.00215953
0.00286961
0.00355571
-5.30832e-05
0.000159216
0.000101948
0.00197601
0.00137214
0.00254278
0.00315938
0.00260126
0.00201002
0.00238909
0.00171825
0.00127963
-0.000106407
-0.000220318
7.40163e-05
0.00071678
0.00146643
0.00213001
0.00278388
0.00345269
-5.70301e-05
0.000189398
0.000149099
0.00197489
0.00136516
0.00255483
0.00315833
0.00258381
0.00202444
0.00234384
0.00176346
0.00121499
1.39652e-05
-0.00021413
0.000133341
0.000733868
0.00145178
0.00210027
0.00270182
0.00335169
-6.0865e-05
0.000220142
0.000196911
0.00197287
0.0013591
0.00256451
0.00315918
0.00256351
0.00203943
0.00229782
0.00180937
0.00115414
0.000126816
-0.000193727
0.000184992
0.000760244
0.00143656
0.00206892
0.00262336
0.00325347
-6.45552e-05
0.000251432
0.000245452
0.00196991
0.0013541
0.00257174
0.00316203
0.00254047
0.00205475
0.00225155
0.00185505
0.00109847
0.000230706
-0.00015974
0.000227829
0.0007931
0.00142211
0.00203546
0.002548
0.00315807
-6.80626e-05
0.000283261
0.000294836
0.001966
0.00135032
0.00257642
0.00316692
0.00251492
0.00207003
0.00220577
0.00189936
0.00104931
0.000324261
-0.000113454
0.000261811
0.000828809
0.00140845
0.00199931
0.00247592
0.00306578
-7.13437e-05
0.000315626
0.000345184
0.00196114
0.00134789
0.0025785
0.00317389
0.00248713
0.0020848
0.00216147
0.00194102
0.00100792
0.000406208
-5.69762e-05
0.000288103
0.000864406
0.00139523
0.00195839
0.00240595
0.00297806
-7.43495e-05
0.000348511
0.000396624
0.00195531
0.00134694
0.00257793
0.00318303
0.00245742
0.00209829
0.00211999
0.0019786
0.000975037
0.000476641
7.34485e-06
0.000307305
0.000896823
0.00138369
0.00191333
0.00233546
0.00289394
-7.70234e-05
0.000381887
0.000449275
0.00194847
0.00134761
0.00257456
0.00319435
0.00242653
0.00210929
0.00208266
0.00201123
0.00095063
0.000535857
7.77169e-05
0.000320956
0.000922263
0.00137199
0.0018674
0.00226669
0.00281139
-7.93004e-05
0.000415705
0.000503249
0.00194058
0.00135002
0.00256834
0.00320755
0.0023954
0.00211672
0.00205031
0.00203839
0.00093497
0.000583801
0.000151526
0.000332324
0.000941273
0.00135715
0.00181668
0.00220082
0.00273362
-8.1109e-05
0.000449897
0.00055864
0.00193158
0.00135422
0.00255938
0.00322237
0.00236486
0.00211952
0.00202382
0.00205931
0.000928186
0.000621468
0.000226336
0.000341706
0.000954401
0.00134326
0.00176023
0.00213245
0.00266076
-8.237e-05
0.000484385
0.00061548
0.00192142
0.00136028
0.00254762
0.00323855
0.00233621
0.00211635
0.00200354
0.00207409
0.000929124
0.000650337
0.00030047
0.000350206
0.000958574
0.00133038
0.00170348
0.002063
0.00259001
-8.29933e-05
0.000519065
0.000673836
0.00190998
0.00136841
0.0025301
0.00325518
0.00231073
0.00210708
0.00198855
0.00208356
0.00093687
0.00067248
0.000370448
0.000359499
0.000955685
0.00131651
0.00164651
0.0019925
0.00252157
-8.28801e-05
0.000553805
0.000733799
0.0018972
0.00137849
0.00251108
0.00327152
0.00228896
0.00209113
0.00197975
0.00208706
0.000951006
0.000689496
0.000435822
0.000369355
0.000944433
0.00130451
0.00159729
0.00191783
0.00245129
-8.19379e-05
0.00058852
0.000795247
0.00188324
0.0013904
0.00249261
0.00328678
0.00227266
0.00206672
0.00197774
0.00208559
0.000968112
0.000703011
0.000496916
0.000378491
0.000922764
0.00128536
0.00155285
0.00185728
0.00238274
-8.00233e-05
0.000623078
0.000858269
0.00186798
0.00140419
0.00247242
0.00329953
0.00226235
0.00203592
0.00197849
0.0020829
0.000986212
0.000712669
0.000553543
0.000379968
0.000892715
0.00126229
0.00150423
0.00180331
0.00231973
-7.70983e-05
0.000657434
0.000922832
0.00185162
0.00141935
0.00245273
0.00330941
0.00225744
0.00199937
0.00198144
0.00208042
0.00100293
0.000721102
0.000605587
0.000386663
0.000863022
0.00124049
0.00145897
0.00172467
0.00225905
-7.30275e-05
0.00069138
0.000988753
0.00183462
0.00143554
0.00243321
0.00331645
0.0022585
0.00195617
0.00198634
0.00208127
0.00101288
0.000732246
0.000649428
0.000383524
0.0008181
0.00120702
0.00141287
0.0016584
0.00220637
-6.74595e-05
0.000724673
0.00105647
0.00181672
0.00145272
0.00241389
0.0033186
0.00226559
0.0019098
0.00198853
0.00208751
0.00102142
0.000737698
0.000692974
0.000423643
0.000774397
0.00116657
0.00136952
0.00155822
0.00216228
-6.06014e-05
0.000757729
0.00112499
0.0017989
0.00146941
0.00239887
0.00331451
0.00227981
0.00185859
0.00199002
0.00209563
0.00103222
0.000734477
0.000734057
0.000440637
0.000704181
0.00111511
0.001332
0.00150621
0.00212683
-5.2252e-05
0.000790019
0.00119444
0.00178177
0.00148511
0.00238719
0.00330653
0.0022978
0.0018062
0.00198689
0.00210892
0.00104094
0.000726514
0.000760808
0.000422558
0.000629126
0.00104483
0.00129565
0.00152101
0.00209747
-4.17827e-05
0.000821233
0.00126571
0.00176473
0.00150116
0.00237426
0.00329433
0.00231846
0.00175863
0.00197303
0.00212916
0.00104815
0.000712443
0.000791815
0.000442717
0.000551662
0.000971234
0.00126765
0.00144394
0.00207533
-2.97757e-05
0.000852287
0.00133662
0.00174972
0.00151402
0.00237027
0.00327508
0.00234478
0.00170976
0.00195693
0.00214786
0.00106251
0.000686361
0.000798354
0.000445314
0.000481882
0.000892984
0.00124301
0.00144602
0.00206553
-1.60066e-05
0.000882391
0.00140758
0.00173724
0.00152396
0.00237162
0.00325295
0.00237037
0.00166745
0.00193342
0.0021655
0.00108132
0.000652476
0.000775074
0.000413766
0.000418601
0.000803406
0.00120629
0.00153291
0.00206409
5.43379e-07
0.000911118
0.00148008
0.00172604
0.00153446
0.00236568
0.0032315
0.00239176
0.00163744
0.00189745
0.00218317
0.0010983
0.000618372
0.000778064
0.000442509
0.000349118
0.000708525
0.00114483
0.00142972
0.00207382
1.88946e-05
0.000939813
0.00155025
0.00171907
0.00153945
0.00237411
0.00320439
0.00241613
0.00160585
0.00186576
0.00219602
0.00111781
0.000568965
0.000742278
0.000446568
0.000295424
0.000603898
0.00108311
0.0014506
0.00210099
3.95577e-05
0.00096775
0.00161866
0.00171636
0.00154106
0.00238762
0.00317638
0.00243844
0.0015798
0.00183286
0.00220464
0.00113645
0.000506709
0.000691082
0.000402545
0.000245537
0.000480158
0.00101849
0.00160164
0.00214265
6.34408e-05
0.000994481
0.00168767
0.00171578
0.00154467
0.00238643
0.00315694
0.00245119
0.00156497
0.00178927
0.00221025
0.0011662
0.000464324
0.000635723
0.000417113
0.000185043
0.000358978
0.000883955
0.00143588
0.00219882
8.91541e-05
0.00102146
0.00175273
0.00172063
0.00154434
0.00239243
0.00313813
0.00246384
0.00154925
0.00174397
0.00220635
0.00120412
0.000429669
0.000563334
0.000416589
0.000127111
0.00023353
0.00072227
0.00134361
0.00227537
0.000117805
0.00104796
0.00181525
0.00173017
0.00154185
0.00240123
0.00311793
0.00247734
0.00153594
0.00169136
0.00219286
0.00124811
0.000391219
0.000485914
0.000388055
7.96013e-05
0.000102601
0.000578223
0.0013094
0.0023451
0.000149752
0.00107405
0.00187549
0.00174306
0.00154124
0.0024042
0.00309843
0.00249079
0.00152518
0.00163069
0.00217154
0.00129145
0.000359976
0.000407798
0.000341034
4.33809e-05
4.59944e-06
0.000464564
0.00125338
0.00240223
0.000184067
0.00110053
0.00193145
0.00176042
0.00154171
0.00240483
0.00307906
0.00250269
0.00151646
0.00156843
0.00213633
0.00133152
0.00034797
0.000319901
0.000305123
2.80653e-05
-6.82634e-05
0.000347176
0.00120696
0.00244751
0.000221524
0.00112724
0.00198461
0.00178012
0.00154521
0.00240293
0.00305689
0.00251071
0.00151526
0.00150035
0.00208759
0.00137739
0.000343987
0.000227473
0.000267918
1.86527e-05
-0.000126216
0.000251874
0.00113835
0.00247364
0.000262017
0.00115455
0.00203351
0.00180177
0.00155297
0.00239825
0.00303121
0.00251652
0.00151605
0.00143236
0.00203118
0.00141702
0.000350003
0.000144506
0.000199412
-6.62907e-07
-0.000162449
0.00018123
0.00107388
0.00248242
0.000305465
0.001182
0.00207953
0.00182528
0.00156331
0.00239521
0.00300319
0.00251525
0.00151921
0.00137059
0.00196427
0.00144766
0.00037118
6.73224e-05
0.000113049
-1.90929e-05
-0.000172187
0.000119752
0.00100837
0.00249039
0.00035223
0.00120989
0.00212371
0.00184834
0.00157596
0.00239399
0.00297219
0.00250617
0.0015272
0.00131268
0.00188839
0.00147114
0.000398333
6.08493e-07
2.42619e-05
-4.38086e-05
-0.00017817
7.46871e-05
0.000951349
0.00250505
0.000402193
0.0012384
0.00216482
0.00187095
0.0015894
0.00239495
0.00294103
0.00249157
0.00153385
0.00126057
0.00180749
0.00148362
0.000433433
-5.05553e-05
-6.86564e-05
-8.8369e-05
-0.000184804
5.56489e-05
0.000931158
0.00252035
0.000455453
0.00126713
0.00220439
0.00189342
0.00160118
0.00239838
0.00291245
0.00246977
0.00153914
0.00121592
0.00172272
0.00148747
0.000471655
-9.06082e-05
-0.000162042
-0.000142689
-0.000180616
6.19722e-05
0.000916674
0.00253629
0.000512151
0.00129679
0.00224168
0.00191514
0.00161051
0.00240387
0.0028877
0.00244388
0.00154185
0.00117712
0.00163621
0.00147919
0.000509385
-0.000115542
-0.000246343
-0.000205926
-0.000185905
7.22202e-05
0.000929801
0.00256567
0.00057226
0.0013271
0.00227667
0.00193719
0.00161656
0.00240998
0.00286843
0.00241495
0.00153937
0.00114405
0.00155013
0.00146006
0.000548515
-0.000127078
-0.000322845
-0.000278952
-0.000197572
9.72457e-05
0.000958118
0.00260757
0.000635752
0.00135851
0.00230953
0.00195979
0.00161823
0.00241438
0.00285433
0.00238581
0.00153352
0.00111652
0.00146681
0.00143077
0.000584426
-0.000128849
-0.000388247
-0.000354955
-0.000217614
0.000122094
0.00100512
0.00266318
0.000702597
0.00139157
0.00233965
0.0019836
0.00161608
0.00241312
0.00284439
0.00235986
0.00152588
0.00109252
0.00138612
0.00139119
0.000615706
-0.000120662
-0.000438378
-0.000429565
-0.000246643
0.000148337
0.00105812
0.00272971
0.00077248
0.00142642
0.00236695
0.00200935
0.00161113
0.00240242
0.00283607
0.00233931
0.00151911
0.00107186
0.0013103
0.00134358
0.000640017
-0.000104966
-0.000473293
-0.000500232
-0.00028597
0.000166191
0.00111747
0.00280469
0.000845505
0.00146358
0.00239087
0.002037
0.00160301
0.00238054
0.00282505
0.00232556
0.00151649
0.00105538
0.00124034
0.00128889
0.000655722
-8.42275e-05
-0.000494075
-0.000562891
-0.000331508
0.000176596
0.00117087
0.00288556
0.0009216
0.00150316
0.00241307
0.00206692
0.00159695
0.00234708
0.00280478
0.00231848
0.00152078
0.00104302
0.00117595
0.00123052
0.00066331
-6.0762e-05
-0.000500997
-0.000613691
-0.000384048
0.000171483
0.00121926
0.00296862
0.0010002
0.00154496
0.00243387
0.0020995
0.00159324
0.002298
0.00277403
0.00231844
0.00153369
0.0010345
0.00111714
0.00117078
0.000662578
-3.711e-05
-0.000496069
-0.000650327
-0.00043738
0.000154925
0.00125594
0.00304906
0.0010817
0.00158864
0.00245223
0.00213522
0.00158678
0.00223344
0.00273483
0.00232506
0.00155616
0.00103055
0.00106261
0.00111047
0.000654
-1.6094e-05
-0.000482787
-0.000670034
-0.000484514
0.0001274
0.00127638
0.00312223
0.00116623
0.00163364
0.00246769
0.00217311
0.00157794
0.00216159
0.00268858
0.00233514
0.00158661
0.00103171
0.0010109
0.00105006
0.000639356
1.00336e-06
-0.000465081
-0.000674177
-0.000520758
9.33029e-05
0.0012809
0.00318474
0.00125313
0.00167962
0.00247957
0.00221141
0.00157713
0.00208869
0.0026344
0.00234226
0.00162207
0.00103825
0.000961874
0.000990863
0.000620767
1.43018e-05
-0.000447256
-0.0006668
-0.000542566
6.0835e-05
0.00127398
0.00323469
0.00134205
0.00172699
0.00248721
0.00224874
0.00158638
0.00201812
0.0025711
0.00234127
0.0016601
0.00105205
0.000916453
0.000933378
0.000599955
2.45034e-05
-0.000431183
-0.000651378
-0.000549971
3.63617e-05
0.0012626
0.00327392
0.00143273
0.00177584
0.00249068
0.00228403
0.00160495
0.00195214
0.00249938
0.00232986
0.00169792
0.00107457
0.000876128
0.00087723
0.000578053
3.28796e-05
-0.000417704
-0.000633122
-0.000545023
2.38481e-05
0.00125463
0.00330688
0.00152465
0.00182627
0.00249064
0.00231635
0.00163182
0.0018926
0.00242123
0.00230752
0.00173283
0.00110649
0.000843461
0.000821521
0.000554129
4.00472e-05
-0.000406414
-0.000615846
-0.000530977
2.42344e-05
0.00125492
0.0033379
0.00161724
0.00187855
0.00248796
0.00234462
0.00166563
0.00184122
0.00233981
0.00227475
0.00176145
0.00114614
0.000820237
0.000766245
0.00052726
4.67462e-05
-0.000395202
-0.000601952
-0.000512311
3.60083e-05
0.00126581
0.00337146
0.00170998
0.00193288
0.00248357
0.00236805
0.00170464
0.00179902
0.00225812
0.00223283
0.00178069
0.00119037
0.000808201
0.000713148
0.000496933
5.21247e-05
-0.000382587
-0.000590485
-0.00049244
5.68228e-05
0.0012882
0.00341015
0.00180236
0.0019893
0.00247841
0.00238634
0.00174696
0.00176622
0.00217843
0.00218346
0.00178898
0.00123557
0.00080793
0.000664159
0.000463225
5.47158e-05
-0.000367813
-0.000578995
-0.000473357
8.31877e-05
0.00131976
0.00345393
0.0018939
0.00204777
0.00247342
0.00239942
0.00179075
0.00174275
0.00210263
0.00212866
0.00178575
0.00127772
0.000818817
0.000621669
0.000427411
5.39433e-05
-0.000351989
-0.00056628
-0.000455678
0.000111157
0.00135671
0.00350154
0.00198419
0.00210822
0.00246945
0.00240751
0.00183411
0.00172791
0.00203219
0.00207072
0.0017719
0.00131344
0.000839284
0.000587844
0.000390252
4.86678e-05
-0.000336973
-0.00055098
-0.000438491
0.000138608
0.00139514
0.00355081
0.0020728
0.00217031
0.00246741
0.00241079
0.00187539
0.00172081
0.00196797
0.00201184
0.00174918
0.00133999
0.000866088
0.000563521
0.00035317
3.93394e-05
-0.000320999
-0.000532799
-0.000420737
0.000164194
0.001432
0.00359996
0.00215952
0.00223365
0.002468
0.00241008
0.00191332
0.0017204
0.00191067
0.00195387
0.00171936
0.00135543
0.000895505
0.000548977
0.000318142
2.61875e-05
-0.000303737
-0.000512767
-0.000402471
0.000187619
0.00146646
0.0036476
0.00224409
0.0022978
0.00247178
0.00240614
0.00194697
0.0017253
0.00186028
0.00189807
0.00168458
0.00135921
0.000924108
0.000544142
0.00028669
8.2419e-06
-0.000295976
-0.00049391
-0.000384436
0.000209366
0.00149765
0.00369161
0.00232634
0.00236222
0.00247902
0.00239986
0.00197585
0.00173421
0.00181654
0.00184525
0.00164727
0.00135205
0.000948157
0.000546982
0.000260072
-1.32264e-05
-0.000294046
-0.000477531
-0.000366785
0.000229036
0.00152465
0.00373127
0.00240615
0.00242656
0.0024898
0.00239218
0.00199962
0.0017456
0.00177901
0.00179577
0.00160963
0.00133571
0.000964591
0.000554515
0.000238846
-3.68948e-05
-0.000297751
-0.000464274
-0.000350418
0.00024638
0.00154784
0.00376632
0.00248339
0.00249027
0.00250404
0.0023842
0.00201836
0.00175818
0.00174729
0.00174924
0.00157294
0.00131238
0.000971377
0.00056372
0.000223368
-6.13842e-05
-0.000307534
-0.000455912
-0.000336361
0.000261777
0.00156752
0.00379609
0.00255804
0.00255299
0.00252148
0.00237683
0.00203227
0.00177056
0.00172101
0.00170553
0.00153785
0.00128461
0.000967679
0.000571023
0.000212569
-8.52134e-05
-0.000323463
-0.000454203
-0.000325918
0.000274573
0.00158341
0.00382033
0.00262999
0.0026143
0.00254181
0.00237089
0.00204204
0.00178153
0.00169934
0.00166428
0.00150383
0.00125476
0.000954528
0.000573132
0.000203882
-0.000106744
-0.00034403
-0.000460107
-0.000321154
0.000283528
0.00159546
0.00383901
0.00269932
0.00267392
0.00256445
0.00236676
0.00204833
0.00179036
0.00168148
0.00162559
0.00146973
0.00122441
0.000933937
0.000567885
0.000194271
-0.000127867
-0.000368273
-0.000474057
-0.000323708
0.000287077
0.00160256
0.00385137
0.00276598
0.00273162
0.00258895
0.00236459
0.00205203
0.00179654
0.00166612
0.0015898
0.00143454
0.00119326
0.000907726
0.00055453
0.000181125
-0.000149237
-0.000394923
-0.000494985
-0.000334563
0.000282958
0.00160258
0.00385603
0.0028299
0.00278723
0.00261478
0.0023643
0.00205392
0.00180014
0.00165195
0.00155722
0.00139851
0.00115984
0.000877079
0.000532982
0.000164518
-0.000172329
-0.000423739
-0.000522348
-0.000354467
0.000269583
0.00159393
0.00385174
0.00289101
0.00284069
0.00264166
0.00236608
0.00205436
0.00180108
0.00163719
0.00152669
0.00136246
0.00112368
0.000843313
0.000504177
0.000138529
-0.000201349
-0.000457409
-0.000556906
-0.000384056
0.000245785
0.0015747
0.00383652
0.00294911
0.00289172
0.00266907
0.00236988
0.00205418
0.0018007
0.00162153
0.00149624
0.00132623
0.00108352
0.000804992
0.000469718
0.000105564
-0.000237436
-0.000497799
-0.000599278
-0.000423812
0.000210402
0.00154323
0.00380864
0.00300417
0.00294053
0.00269681
0.00237507
0.00205264
0.00179855
0.00160584
0.00146603
0.00129129
0.00103965
0.000759574
0.000428177
6.55236e-05
-0.000281523
-0.000547821
-0.000652198
-0.000476029
0.00016133
0.00149733
0.00376572
0.00305584
0.00298691
0.00272498
0.00238253
0.00205027
0.00179383
0.00158798
0.00143314
0.00125736
0.000996597
0.00070891
0.000380188
1.83844e-05
-0.000333143
-0.000607689
-0.000718276
-0.000543671
9.58504e-05
0.00143443
0.00370477
0.003104
0.00303076
0.00275281
0.00239179
0.00204864
0.00178884
0.00157007
0.00139325
0.00121791
0.000954049
0.000656254
0.000325758
-3.60075e-05
-0.00039172
-0.000676747
-0.000797656
-0.000628904
1.05601e-05
0.0013525
0.0036253
0.00314937
0.00307156
0.00277954
0.00240127
0.0020456
0.00178089
0.0015544
0.00135256
0.00116987
0.00090714
0.000597613
0.000263836
-9.80458e-05
-0.000456703
-0.000753135
-0.000888881
-0.000732743
-9.9357e-05
0.00124093
0.00351554
0.00318877
0.0031143
0.00281153
0.00241804
0.00204576
0.00176968
0.00153659
0.00131325
0.00112242
0.000862487
0.00053846
0.000193418
-0.000170638
-0.000531273
-0.000836845
-0.000988223
-0.000848939
-0.000229967
0.001102
0.00337433
0.00321842
0.00314002
0.00283209
0.00243283
0.00204434
0.00175211
0.00151338
0.00127
0.0010603
0.000813983
0.000477865
0.000115867
-0.000254124
-0.000618093
-0.000931251
-0.00109775
-0.00097753
-0.000379465
0.000934018
0.00319023
0.00327017
0.00319637
0.00287275
0.00244592
0.00203195
0.00171754
0.00147809
0.0012388
0.00102969
0.00077749
0.000448043
6.90904e-05
-0.000320476
-0.000697497
-0.00102092
-0.00120015
-0.00109514
-0.0005189
0.00077386
0.00301254
0.00321298
0.00320765
0.00294692
0.00249652
0.00204518
0.00170028
0.00142407
0.00114951
0.00089995
0.000653838
0.000327928
-5.07919e-05
-0.000453392
-0.000849674
-0.00118909
-0.00138357
-0.00129104
-0.00071307
0.000582095
0.002823
0.00334293
0.00326435
0.0029132
0.00246255
0.00201867
0.00167513
0.00143719
0.00121992
0.000978594
0.000728764
0.000409843
1.89956e-05
-0.000419466
-0.000873692
-0.00129768
-0.00160677
-0.00164847
-0.00121304
-4.52095e-05
0.0020888
0.00326496
0.00327471
0.00293581
0.00257177
0.00213319
0.00162029
0.00118667
0.000902351
0.000669698
0.000452039
0.000167312
-0.000168016
-0.000514785
-0.000792584
-0.000984886
-0.00104296
-0.000899015
-0.000387353
0.000739182
0.00275732
0.00341213
0.00326502
0.00295126
0.00248387
0.00201267
0.00166686
0.00146473
0.00129645
0.00104124
0.000747353
0.000371667
-0.000125045
-0.000738582
-0.00141833
-0.0020847
-0.00263715
-0.00291414
-0.00269399
-0.00171496
0.000250957
0.00365658
0.00318777
0.00277143
0.00229723
0.00187474
0.00143011
0.00106462
0.000845773
0.000610667
0.000281063
-3.0425e-05
-0.000262094
-0.000266372
1.13115e-05
0.000626625
0.00150173
0.00246399
0.00322536
0.00343584
0.00277159
0.00364601
0.00323739
0.00279356
0.00239754
0.00210221
0.00186267
0.00167881
0.00146614
0.00118602
0.000770649
0.000224253
-0.000499586
-0.0013886
-0.00235523
-0.00328637
-0.00407734
-0.00459151
-0.00462509
-0.00391508
-0.00222069
0.00381186
0.00320737
0.00271597
0.00230102
0.0020219
0.00166844
0.00127794
0.000763497
0.000325263
9.74678e-05
-0.000129264
-0.000475729
-0.000762629
-0.00083971
-0.000618782
-0.000117448
0.000572436
0.00117977
0.00132586
0.000654871
0.00381022
0.00319213
0.00271397
0.00239769
0.0022938
0.00220445
0.00211906
0.00190871
0.00156596
0.00096314
5.21409e-05
-0.0012051
-0.00275114
-0.00441152
-0.00594201
-0.00714058
-0.00784363
-0.00788251
-0.00704504
-0.00514091
0.00711133
-0.00142198
-0.00409589
-0.00195043
0.00030045
0.00196327
0.003391
0.00477908
0.0061493
0.00745799
0.00874301
0.0100993
0.0115821
0.0130689
0.0144414
0.0158249
0.0173385
0.0188897
0.0203947
0.0219532
0.0235686
0.0251909
0.0268297
0.0286851
0.0307309
0.0325481
0.0342974
0.0363683
0.0385239
0.0407504
0.0430677
0.0453598
0.0476955
0.050159
0.0527374
0.0553184
0.0580784
0.0609607
0.0639522
0.0670338
0.0701963
0.0735308
0.076904
0.0804931
0.0840925
0.087852
0.0916785
0.0954991
0.0994044
0.10317
0.00697041
-0.00136353
-0.00405392
-0.00193203
0.000310982
0.00196984
0.00339559
0.00478266
0.00615225
0.00746043
0.00874498
0.0101009
0.0115834
0.01307
0.0144423
0.0158257
0.0173392
0.0188904
0.0203953
0.0219538
0.0235692
0.0251914
0.0268302
0.0286856
0.0307314
0.0325485
0.0342978
0.0363686
0.0385243
0.0407507
0.0430679
0.0453601
0.0476957
0.0501592
0.0527376
0.0553186
0.0580786
0.0609609
0.0639523
0.0670339
0.0701964
0.0735309
0.0769041
0.0804932
0.0840926
0.087852
0.0916786
0.0954992
0.0994044
0.10317
0.0067703
-0.00126618
-0.00398522
-0.00191007
0.000322437
0.00197713
0.00340031
0.00478609
0.00615502
0.00746272
0.00874684
0.0101023
0.0115845
0.013071
0.0144432
0.0158264
0.0173398
0.018891
0.0203958
0.0219543
0.0235697
0.0251919
0.0268307
0.0286859
0.0307318
0.0325489
0.0342981
0.0363689
0.0385245
0.0407509
0.0430682
0.0453603
0.0476959
0.0501594
0.0527378
0.0553188
0.0580787
0.060961
0.0639524
0.067034
0.0701965
0.073531
0.0769042
0.0804933
0.0840927
0.0878521
0.0916787
0.0954993
0.0994045
0.10317
0.00659027
-0.00112738
-0.00388285
-0.00187961
0.000337356
0.0019871
0.00340649
0.00479018
0.00615814
0.0074653
0.00874897
0.010104
0.0115859
0.0130722
0.0144441
0.0158272
0.0173404
0.0188916
0.0203964
0.0219548
0.0235702
0.0251924
0.0268311
0.0286863
0.0307322
0.0325493
0.0342984
0.0363692
0.0385248
0.0407512
0.0430684
0.0453605
0.0476961
0.0501595
0.0527379
0.0553189
0.0580789
0.0609611
0.0639526
0.0670341
0.0701966
0.0735311
0.0769043
0.0804934
0.0840928
0.0878522
0.0916787
0.0954993
0.0994046
0.103171
0.00643257
-0.000962666
-0.00375469
-0.00184096
0.000356609
0.00200101
0.00341526
0.00479569
0.00616211
0.00746856
0.00875175
0.0101063
0.0115877
0.0130736
0.0144453
0.015828
0.0173412
0.0188922
0.020397
0.0219553
0.0235707
0.0251929
0.0268316
0.0286867
0.0307326
0.0325498
0.0342987
0.0363695
0.0385251
0.0407514
0.0430687
0.0453608
0.0476963
0.0501597
0.0527381
0.0553191
0.058079
0.0609613
0.0639527
0.0670343
0.0701967
0.0735312
0.0769044
0.0804935
0.0840929
0.0878523
0.0916788
0.0954994
0.0994046
0.103171
0.00627695
-0.000787318
-0.00361224
-0.00179763
0.000379027
0.00201863
0.00342691
0.00480305
0.0061673
0.00747282
0.00875546
0.0101094
0.0115901
0.0130755
0.0144467
0.0158292
0.0173421
0.018893
0.0203976
0.0219558
0.0235712
0.0251934
0.026832
0.0286871
0.0307332
0.0325502
0.034299
0.0363698
0.0385254
0.0407517
0.043069
0.045361
0.0476965
0.0501599
0.0527383
0.0553192
0.0580792
0.0609614
0.0639528
0.0670344
0.0701968
0.0735313
0.0769045
0.0804936
0.084093
0.0878523
0.0916789
0.0954995
0.0994048
0.103171
0.00611554
-0.000607155
-0.00346086
-0.00175184
0.000403124
0.00203881
0.00344097
0.00481225
0.00617388
0.00747829
0.00876032
0.0101134
0.0115933
0.0130779
0.0144486
0.0158306
0.0173432
0.0188938
0.0203983
0.0219564
0.0235716
0.0251939
0.0268325
0.0286876
0.0307337
0.0325508
0.0342993
0.0363701
0.0385258
0.040752
0.0430693
0.0453613
0.0476968
0.0501601
0.0527385
0.0553194
0.0580793
0.0609616
0.063953
0.0670345
0.070197
0.0735315
0.0769046
0.0804937
0.0840931
0.0878524
0.091679
0.0954996
0.099405
0.103171
0.00594979
-0.000423041
-0.00330199
-0.00170428
0.000427995
0.00206048
0.00345662
0.00482291
0.00618177
0.00748501
0.0087664
0.0101185
0.0115971
0.0130808
0.0144511
0.0158325
0.0173445
0.0188948
0.0203991
0.021957
0.0235721
0.0251943
0.026833
0.028688
0.0307344
0.0325514
0.0342996
0.0363704
0.0385261
0.0407524
0.0430696
0.0453617
0.047697
0.0501604
0.0527387
0.0553196
0.0580795
0.0609617
0.0639531
0.0670347
0.0701971
0.0735316
0.0769047
0.0804938
0.0840932
0.0878526
0.0916791
0.0954998
0.0994052
0.103172
0.00578248
-0.00023543
-0.00313596
-0.00165498
0.000453213
0.00208305
0.00347329
0.00483458
0.0061907
0.00749281
0.00877362
0.0101246
0.0116016
0.0130842
0.0144539
0.0158349
0.0173461
0.0188959
0.0204
0.0219578
0.0235728
0.0251948
0.0268333
0.0286883
0.0307351
0.0325521
0.0343
0.0363708
0.0385264
0.0407527
0.04307
0.045362
0.0476974
0.0501606
0.052739
0.0553198
0.0580797
0.0609619
0.0639533
0.0670348
0.0701972
0.0735317
0.0769049
0.0804939
0.0840933
0.0878527
0.0916792
0.0954999
0.0994055
0.103172
0.00561497
-4.53862e-05
-0.00296287
-0.00160371
0.000478619
0.0021063
0.00349073
0.00484695
0.00620037
0.00750144
0.00878175
0.0101316
0.0116066
0.0130879
0.0144571
0.0158377
0.0173481
0.0188972
0.0204011
0.0219588
0.0235736
0.0251954
0.0268337
0.0286886
0.0307357
0.0325529
0.0343006
0.0363712
0.0385268
0.040753
0.0430703
0.0453624
0.0476977
0.050161
0.0527393
0.0553201
0.0580799
0.0609621
0.0639535
0.067035
0.0701974
0.0735319
0.076905
0.0804941
0.0840934
0.0878528
0.0916794
0.0955002
0.0994059
0.103173
0.00544793
0.000145944
-0.00278281
-0.0015502
0.000504149
0.00213017
0.0035089
0.0048599
0.00621059
0.00751067
0.00879057
0.0101393
0.0116121
0.0130917
0.0144605
0.0158409
0.0173504
0.0188986
0.0204022
0.0219599
0.0235746
0.0251963
0.0268342
0.0286886
0.0307362
0.0325538
0.0343012
0.0363718
0.0385272
0.0407532
0.0430707
0.0453628
0.0476981
0.0501613
0.0527397
0.0553204
0.0580802
0.0609623
0.0639537
0.0670352
0.0701975
0.073532
0.0769051
0.0804942
0.0840936
0.087853
0.0916796
0.0955004
0.0994064
0.103173
0.00528217
0.000337578
-0.00259599
-0.00149422
0.000529735
0.00215465
0.00352785
0.00487341
0.00622127
0.00752035
0.00879987
0.0101474
0.011618
0.0130957
0.0144641
0.0158443
0.0173529
0.0189002
0.0204034
0.021961
0.0235758
0.0251975
0.0268349
0.0286885
0.0307364
0.0325545
0.034302
0.0363725
0.0385276
0.0407535
0.0430709
0.0453632
0.0476985
0.0501617
0.0527401
0.0553208
0.0580805
0.0609626
0.0639539
0.0670354
0.0701977
0.0735322
0.0769053
0.0804944
0.0840938
0.0878532
0.0916798
0.0955008
0.099407
0.103174
0.00511874
0.000528589
-0.00240276
-0.00143558
0.000555296
0.00217968
0.00354762
0.00488751
0.00623238
0.00753043
0.00880957
0.010156
0.0116242
0.0130997
0.0144676
0.0158479
0.0173557
0.0189019
0.0204047