/*--------------------------------*- C++ -*----------------------------------*\
| =========                 |                                                 |
| \\      /  F ield         | OpenFOAM: The Open Source CFD Toolbox           |
|  \\    /   O peration     | Version:  v2012                                 |
|   \\  /    A nd           | Website:  www.openfoam.com                      |
|    \\/     M anipulation  |                                                 |
\*---------------------------------------------------------------------------*/
FoamFile
{
    version     2.0;
    format      ascii;
    class       volVectorField;
    location    "4.1";
    object      U;
}
// * * * * * * * * * * * * * * * * * * * * * * * * * * * * * * * * * * * * * //

dimensions      [0 1 -1 0 0 0 0];


internalField   nonuniform List<vector> 
7000
(
(0.83885 -0.00788658 0)
(1.11862 -0.00814957 0)
(1.01996 0.00388987 0)
(1.10387 0.0182467 0)
(0.929255 0.0109902 0)
(1.11546 0.00266596 0)
(0.916762 -0.0180338 0)
(1.05288 -0.0223998 0)
(0.947642 -0.0311567 0)
(1.07115 -0.0326327 0)
(0.925846 -0.0159008 0)
(1.15964 -0.0270934 0)
(0.883881 -0.00575051 0)
(1.2124 -0.00559844 0)
(0.869008 0.0072015 0)
(1.19919 0.007678 0)
(0.864506 0.0120918 0)
(1.167 0.0136076 0)
(0.870379 0.0129759 0)
(1.13284 0.014866 0)
(0.852456 -0.00776992 0)
(1.11303 -0.00891125 0)
(1.02315 0.003797 0)
(1.0984 0.018654 0)
(0.948178 0.0108402 0)
(1.09056 0.0028779 0)
(0.962026 -0.017523 0)
(1.02717 -0.022541 0)
(0.971623 -0.0315125 0)
(1.03831 -0.0321474 0)
(0.948077 -0.0175323 0)
(1.124 -0.0260325 0)
(0.906591 -0.00715617 0)
(1.17892 -0.00489126 0)
(0.90076 0.00730177 0)
(1.15561 0.00791715 0)
(0.914524 0.012884 0)
(1.10422 0.0130846 0)
(0.944692 0.014607 0)
(1.04563 0.013713 0)
(0.873316 -0.00770512 0)
(1.10029 -0.00962522 0)
(1.03009 0.00381196 0)
(1.08677 0.0191802 0)
(0.977186 0.0108317 0)
(1.06632 0.00284078 0)
(0.992512 -0.0171082 0)
(1.00876 -0.0225373 0)
(0.988013 -0.0315125 0)
(1.00727 -0.0319624 0)
(0.975396 -0.0187167 0)
(1.08003 -0.0253773 0)
(0.948048 -0.00835288 0)
(1.12841 -0.0045894 0)
(0.955058 0.00751704 0)
(1.09701 0.00784902 0)
(0.974685 0.0140959 0)
(1.04616 0.0125037 0)
(0.994481 0.016259 0)
(1.0064 0.0133124 0)
(0.898285 -0.00766314 0)
(1.08011 -0.0102502 0)
(1.03906 0.00388025 0)
(1.07322 0.0195231 0)
(1.00549 0.0109498 0)
(1.05027 0.00277307 0)
(1.01197 -0.0166545 0)
(0.99978 -0.0224655 0)
(0.996858 -0.0313764 0)
(0.985758 -0.0319721 0)
(0.994922 -0.0195276 0)
(1.0411 -0.0251796 0)
(0.986484 -0.00911599 0)
(1.08322 -0.00479924 0)
(1.00118 0.00812147 0)
(1.05719 0.00750663 0)
(1.01229 0.0153375 0)
(1.02252 0.0121904 0)
(1.01427 0.0173729 0)
(1.00203 0.0135654 0)
(0.92447 -0.00761484 0)
(1.05524 -0.010835 0)
(1.04691 0.00389496 0)
(1.06283 0.0196883 0)
(1.0279 0.0110976 0)
(1.0425 0.00276718 0)
(1.02232 -0.0162174 0)
(0.998874 -0.0223183 0)
(0.999481 -0.0310851 0)
(0.976051 -0.0320905 0)
(1.00208 -0.0200817 0)
(1.01601 -0.0253192 0)
(1.00782 -0.00966314 0)
(1.05504 -0.00528916 0)
(1.0257 0.0087743 0)
(1.04157 0.00720011 0)
(1.02831 0.0163192 0)
(1.02149 0.0121635 0)
(1.02144 0.0181129 0)
(1.00955 0.0140089 0)
(0.948969 -0.00754892 0)
(1.03024 -0.0113736 0)
(1.05079 0.00380307 0)
(1.0577 0.0197555 0)
(1.04338 0.0112521 0)
(1.04005 0.00283911 0)
(1.02708 -0.0158106 0)
(1.00214 -0.0221039 0)
(0.999579 -0.0307068 0)
(0.974156 -0.0322345 0)
(1.00048 -0.0204607 0)
(1.00347 -0.0256424 0)
(1.01263 -0.0101682 0)
(1.04077 -0.00588995 0)
(1.03293 0.00919424 0)
(1.03811 0.00697357 0)
(1.03306 0.0170046 0)
(1.02646 0.0122553 0)
(1.02509 0.0186724 0)
(1.01769 0.0144136 0)
(0.969623 -0.00746396 0)
(1.00922 -0.0118431 0)
(1.04911 0.00359087 0)
(1.056 0.0197557 0)
(1.0523 0.0114131 0)
(1.0395 0.00298253 0)
(1.02898 -0.0154332 0)
(1.0062 -0.0218473 0)
(0.999703 -0.0302663 0)
(0.975073 -0.0323327 0)
(0.99587 -0.0207241 0)
(0.997343 -0.0260371 0)
(1.00829 -0.0106595 0)
(1.03255 -0.0065824 0)
(1.03162 0.00937982 0)
(1.03678 0.00673605 0)
(1.0336 0.0174746 0)
(1.0302 0.0123571 0)
(1.02775 0.019091 0)
(1.02353 0.0147696 0)
(0.985473 -0.00736653 0)
(0.994342 -0.0122192 0)
(1.04181 0.00327337 0)
(1.05376 0.0196859 0)
(1.05527 0.0115774 0)
(1.03842 0.00316748 0)
(1.02956 -0.015082 0)
(1.00943 -0.021576 0)
(1.0006 -0.0297748 0)
(0.976106 -0.0323624 0)
(0.991855 -0.020904 0)
(0.99283 -0.0264237 0)
(1.00129 -0.0111196 0)
(1.02523 -0.00738467 0)
(1.02768 0.00941844 0)
(1.03424 0.00642203 0)
(1.03298 0.0177826 0)
(1.03188 0.0124292 0)
(1.02987 0.0193693 0)
(1.02746 0.0151043 0)
(0.99662 -0.00726657 0)
(0.985563 -0.0124841 0)
(1.03014 0.00289381 0)
(1.0477 0.0195418 0)
(1.05318 0.0117315 0)
(1.03596 0.00334958 0)
(1.02945 -0.0147595 0)
(1.01158 -0.0213102 0)
(1.00201 -0.0292357 0)
(0.97669 -0.0323292 0)
(0.989402 -0.0210046 0)
(0.988228 -0.0267568 0)
(0.994864 -0.0115376 0)
(1.01724 -0.00828942 0)
(1.02339 0.00934025 0)
(1.03046 0.00600976 0)
(1.03198 0.0179335 0)
(1.03228 0.0124633 0)
(1.03136 0.0195119 0)
(1.03012 0.0154198 0)
(1.00379 -0.00717281 0)
(0.981498 -0.012631 0)
(1.01618 0.0025124 0)
(1.03698 0.0193266 0)
(1.04745 0.0118481 0)
(1.03244 0.00349524 0)
(1.02889 -0.0144699 0)
(1.01286 -0.0210612 0)
(1.00349 -0.0286542 0)
(0.977095 -0.0322474 0)
(0.988119 -0.0210213 0)
(0.983693 -0.0270222 0)
(0.989773 -0.0119034 0)
(1.00881 -0.00925457 0)
(1.019 0.00913027 0)
(1.02587 0.00551134 0)
(1.03035 0.0179087 0)
(1.03166 0.0124627 0)
(1.03182 0.0195251 0)
(1.03147 0.0157116 0)
(1.00791 -0.0070898 0)
(0.980391 -0.0126651 0)
(1.0023 0.00218309 0)
(1.02333 0.0190468 0)
(1.03993 0.011897 0)
(1.0287 0.00357988 0)
(1.02802 -0.0142144 0)
(1.01352 -0.0208342 0)
(1.00481 -0.0280388 0)
(0.977626 -0.0321273 0)
(0.987385 -0.020954 0)
(0.979813 -0.02722 0)
(0.9858 -0.0122034 0)
(1.00055 -0.0102312 0)
(1.01421 0.00878136 0)
(1.02058 0.00495676 0)
(1.02757 0.0176942 0)
(1.02973 0.0124343 0)
(1.03074 0.0194212 0)
(1.0311 0.0159817 0)
(1.00989 -0.00701763 0)
(0.980789 -0.0126014 0)
(0.990493 0.00193526 0)
(1.00971 0.0187113 0)
(1.03241 0.0118593 0)
(1.02551 0.00359407 0)
(1.02692 -0.0139869 0)
(1.01366 -0.0206315 0)
(1.0059 -0.0273999 0)
(0.978424 -0.0319731 0)
(0.986801 -0.0208109 0)
(0.976944 -0.0273546 0)
(0.982562 -0.0124216 0)
(0.992961 -0.0111847 0)
(1.00884 0.00830635 0)
(1.01464 0.00437988 0)
(1.02335 0.0172988 0)
(1.02622 0.0123887 0)
(1.02781 0.0192198 0)
(1.02874 0.0162314 0)
(1.01047 -0.00695342 0)
(0.981765 -0.0124619 0)
(0.98194 0.0017704 0)
(0.998822 0.0183314 0)
(1.02605 0.0117348 0)
(1.02323 0.00354286 0)
(1.02565 -0.0137756 0)
(1.01336 -0.0204541 0)
(1.00675 -0.0267493 0)
(0.979513 -0.0317851 0)
(0.986204 -0.0206046 0)
(0.97514 -0.0274285 0)
(0.979787 -0.0125513 0)
(0.986273 -0.0120731 0)
(1.00298 0.00773251 0)
(1.0082 0.00381788 0)
(1.01772 0.0167533 0)
(1.02115 0.0123392 0)
(1.02308 0.0189434 0)
(1.02444 0.0164563 0)
(1.01023 -0.00689325 0)
(0.982857 -0.0122715 0)
(0.976811 0.00167044 0)
(0.991946 0.0179219 0)
(1.02127 0.011541 0)
(1.02185 0.00343999 0)
(1.02421 -0.0135664 0)
(1.01267 -0.0203027 0)
(1.00732 -0.0260986 0)
(0.980855 -0.0315634 0)
(0.985561 -0.0203465 0)
(0.974292 -0.0274418 0)
(0.977337 -0.012593 0)
(0.980567 -0.0128479 0)
(0.996853 0.00708973 0)
(1.00151 0.0033107 0)
(1.01102 0.0160986 0)
(1.01483 0.0122929 0)
(1.01687 0.0186152 0)
(1.01856 0.0166522 0)
(1.00959 -0.00683382 0)
(0.983903 -0.0120526 0)
(0.974504 0.00161035 0)
(0.988875 0.0174983 0)
(1.01785 0.0113042 0)
(1.02108 0.00330082 0)
(1.02265 -0.0133465 0)
(1.01168 -0.0201773 0)
(1.0076 -0.0254593 0)
(0.982378 -0.0313074 0)
(0.984893 -0.0200507 0)
(0.974246 -0.027393 0)
(0.975175 -0.0125446 0)
(0.97586 -0.0134773 0)
(0.990711 0.00640094 0)
(0.994822 0.00289 0)
(1.00367 0.0153751 0)
(1.00767 0.0122518 0)
(1.00968 0.0182555 0)
(1.01159 0.0168147 0)
(1.00882 -0.00677318 0)
(0.984875 -0.0118221 0)
(0.97408 0.00156812 0)
(0.988475 0.017074 0)
(1.01537 0.0110498 0)
(1.0206 0.00313786 0)
(1.02105 -0.0131067 0)
(1.01048 -0.020076 0)
(1.00756 -0.0248425 0)
(0.983979 -0.0310174 0)
(0.984235 -0.0197315 0)
(0.974839 -0.0272798 0)
(0.973337 -0.0124154 0)
(0.972178 -0.0139345 0)
(0.984823 0.00569187 0)
(0.988404 0.00257567 0)
(0.996142 0.0146227 0)
(1.00016 0.0122217 0)
(1.00206 0.0178793 0)
(1.0041 0.0169356 0)
(1.00807 -0.00671064 0)
(0.98578 -0.0115905 0)
(0.974664 0.00152933 0)
(0.989451 0.0166579 0)
(1.01344 0.0107962 0)
(1.02014 0.002958 0)
(1.01953 -0.0128426 0)
(1.00917 -0.0199948 0)
(1.00724 -0.0242562 0)
(0.985545 -0.0306969 0)
(0.98363 -0.0194029 0)
(0.975905 -0.0270969 0)
(0.971895 -0.0122308 0)
(0.969566 -0.0142043 0)
(0.979463 0.00499127 0)
(0.98253 0.00237728 0)
(0.988906 0.0138749 0)
(0.99278 0.0122057 0)
(0.994577 0.017499 0)
(0.996656 0.0170076 0)
(1.00744 -0.00664619 0)
(0.986613 -0.0113633 0)
(0.975657 0.00148714 0)
(0.990846 0.0162535 0)
(1.01189 0.0105537 0)
(1.01959 0.00276393 0)
(1.01818 -0.0125534 0)
(1.00785 -0.0199278 0)
(1.00667 -0.0237048 0)
(0.986976 -0.0303505 0)
(0.98312 -0.0190779 0)
(0.977264 -0.0268496 0)
(0.970926 -0.0120023 0)
(0.968035 -0.0142741 0)
(0.97491 0.00433175 0)
(0.977498 0.00229821 0)
(0.982445 0.0131555 0)
(0.986049 0.0121957 0)
(0.987794 0.0171261 0)
(0.989812 0.0170312 0)
(1.00695 -0.00658013 0)
(0.987358 -0.0111428 0)
(0.976739 0.00143994 0)
(0.992156 0.0158606 0)
(1.01066 0.0103267 0)
(1.0189 0.00255674 0)
(1.01707 -0.0122402 0)
(1.0066 -0.0198685 0)
(1.00595 -0.0231894 0)
(0.988201 -0.0299834 0)
(0.982746 -0.0187694 0)
(0.978737 -0.0265387 0)
(0.970471 -0.0117527 0)
(0.967508 -0.0141597 0)
(0.971404 0.00372549 0)
(0.973575 0.00233419 0)
(0.977176 0.01249 0)
(0.980424 0.0121765 0)
(0.982181 0.016759 0)
(0.984046 0.0170076 0)
(1.0066 -0.00651276 0)
(0.988004 -0.0109288 0)
(0.977769 0.00138884 0)
(0.993199 0.0154761 0)
(1.00977 0.0101162 0)
(1.01807 0.0023362 0)
(1.01621 -0.0119053 0)
(1.0055 -0.0198085 0)
(1.00513 -0.0227115 0)
(0.989193 -0.0295949 0)
(0.982534 -0.0184949 0)
(0.980161 -0.0261555 0)
(0.970514 -0.0115248 0)
(0.967812 -0.0138807 0)
(0.969082 0.00317396 0)
(0.970918 0.00246755 0)
(0.973372 0.0119056 0)
(0.976227 0.0121518 0)
(0.978045 0.0163894 0)
(0.97969 0.0169305 0)
(1.00639 -0.00644428 0)
(0.988553 -0.0107207 0)
(0.978685 0.00133589 0)
(0.993944 0.0150954 0)
(1.00921 0.00992238 0)
(1.01714 0.0021028 0)
(1.01559 -0.0115545 0)
(1.00462 -0.0197384 0)
(1.0043 -0.0222697 0)
(0.989962 -0.0291827 0)
(0.982489 -0.0182652 0)
(0.981407 -0.0257099 0)
(0.970974 -0.0113349 0)
(0.968699 -0.0134377 0)
(0.967929 0.00268314 0)
(0.969519 0.00266027 0)
(0.971097 0.0113998 0)
(0.973576 0.0121397 0)
(0.975471 0.0160451 0)
(0.976869 0.016808 0)
(1.00627 -0.00637481 0)
(0.989025 -0.0105171 0)
(0.97946 0.0012836 0)
(0.994405 0.0147135 0)
(1.00892 0.00974475 0)
(1.01612 0.00185873 0)
(1.01514 -0.0111958 0)
(1.004 -0.0196516 0)
(1.00353 -0.0218579 0)
(0.990545 -0.0287474 0)
(0.982598 -0.018084 0)
(0.98239 -0.0252023 0)
(0.971724 -0.011202 0)
(0.969895 -0.0128795 0)
(0.967777 0.00224904 0)
(0.969203 0.00288356 0)
(0.9702 0.0109464 0)
(0.97237 0.0121 0)
(0.974325 0.0157384 0)
(0.975493 0.0166759 0)
(1.0062 -0.00630443 0)
(0.98945 -0.0103166 0)
(0.980092 0.00123436 0)
(0.994612 0.014326 0)
(1.00882 0.00958169 0)
(1.01507 0.00160658 0)
(1.01476 -0.0108334 0)
(1.00365 -0.019547 0)
(1.00284 -0.0214731 0)
(0.990996 -0.0282799 0)
(0.98283 -0.0179596 0)
(0.983074 -0.0246329 0)
(0.972612 -0.0111261 0)
(0.971147 -0.0122712 0)
(0.968351 0.00185459 0)
(0.969676 0.00312864 0)
(0.970361 0.0105786 0)
(0.972329 0.0120153 0)
(0.974311 0.0153895 0)
(0.975301 0.0165121 0)
(1.00612 -0.00623302 0)
(0.989856 -0.0101185 0)
(0.980601 0.0011912 0)
(0.99461 0.0139289 0)
(1.00882 0.00943041 0)
(1.01402 0.00134579 0)
(1.01438 -0.0104719 0)
(1.00356 -0.0194175 0)
(1.00226 -0.0211224 0)
(0.991365 -0.0277692 0)
(0.983143 -0.0178836 0)
(0.983467 -0.0240259 0)
(0.973499 -0.0110941 0)
(0.972252 -0.0116178 0)
(0.969333 0.00148853 0)
(0.970602 0.00332939 0)
(0.971178 0.0102735 0)
(0.97305 0.011986 0)
(0.975031 0.0150465 0)
(0.975928 0.0162891 0)
(1.006 -0.00616041 0)
(0.990264 -0.00992247 0)
(0.981029 0.00115715 0)
(0.994459 0.0135187 0)
(1.00881 0.00929066 0)
(1.01305 0.00107953 0)
(1.01395 -0.0101282 0)
(1.00369 -0.019249 0)
(1.00181 -0.020807 0)
(0.991686 -0.0272198 0)
(0.983493 -0.0178389 0)
(0.98361 -0.0233745 0)
(0.974291 -0.0111263 0)
(0.97309 -0.010949 0)
(0.970425 0.00116651 0)
(0.971664 0.00349404 0)
(0.972274 0.00991262 0)
(0.97414 0.0119148 0)
(0.976069 0.014789 0)
(0.976962 0.0161015 0)
(1.00583 -0.00608643 0)
(0.990682 -0.00972856 0)
(0.981421 0.00113373 0)
(0.994228 0.013096 0)
(1.00875 0.00915447 0)
(1.01221 0.000821574 0)
(1.01344 -0.00981029 0)
(1.00397 -0.0190481 0)
(1.00148 -0.0205188 0)
(0.991972 -0.026627 0)
(0.983843 -0.017824 0)
(0.98356 -0.0226757 0)
(0.974941 -0.011185 0)
(0.973634 -0.0102994 0)
(0.971423 0.00084314 0)
(0.972623 0.00368223 0)
(0.973328 0.009611 0)
(0.975279 0.0117425 0)
(0.977128 0.014452 0)
(0.978068 0.0159038 0)
(1.00559 -0.00601046 0)
(0.991101 -0.00953773 0)
(0.981817 0.00112053 0)
(0.993982 0.0126681 0)
(1.00858 0.00901518 0)
(1.01153 0.000560314 0)
(1.01286 -0.00950226 0)
(1.00433 -0.0188145 0)
(1.00125 -0.0202783 0)
(0.992215 -0.0259718 0)
(0.984169 -0.0178376 0)
(0.983382 -0.0219379 0)
(0.975449 -0.0112713 0)
(0.973916 -0.00966387 0)
(0.972224 0.000529821 0)
(0.97338 0.00377081 0)
(0.974169 0.00934809 0)
(0.976226 0.0116243 0)
(0.978 0.0141204 0)
(0.979035 0.0156502 0)
(1.0053 -0.00593166 0)
(0.991503 -0.0093522 0)
(0.982244 0.00112211 0)
(0.993772 0.0122223 0)
(1.00831 0.00889295 0)
(1.01102 0.000283631 0)
(1.01224 -0.00922212 0)
(1.0047 -0.0185392 0)
(1.00112 -0.0200449 0)
(0.992403 -0.0253257 0)
(0.984462 -0.0177947 0)
(0.983135 -0.0212276 0)
(0.975842 -0.0113263 0)
(0.974026 -0.00912909 0)
(0.972805 0.000316204 0)
(0.973907 0.0038185 0)
(0.974768 0.00905856 0)
(0.976929 0.0113906 0)
(0.978604 0.0137707 0)
(0.979738 0.01542 0)
(1.00499 -0.00584989 0)
(0.991866 -0.00917322 0)
(0.982708 0.00113985 0)
(0.993636 0.0117684 0)
(1.00795 0.00874805 0)
(1.01067 4.64848e-05 0)
(1.01161 -0.00899925 0)
(1.00503 -0.0182317 0)
(1.00105 -0.0198186 0)
(0.992526 -0.0246349 0)
(0.984727 -0.0177666 0)
(0.982871 -0.0204826 0)
(0.976158 -0.0113496 0)
(0.974048 -0.00860577 0)
(0.973232 5.70101e-05 0)
(0.974254 0.00386063 0)
(0.975137 0.00886506 0)
(0.977394 0.0112619 0)
(0.979027 0.0133391 0)
(0.980237 0.015103 0)
(1.00468 -0.00576501 0)
(0.99217 -0.0089964 0)
(0.9832 0.00115313 0)
(0.993595 0.0113415 0)
(1.00752 0.00857551 0)
(1.01044 -0.000185833 0)
(1.01102 -0.00880175 0)
(1.00528 -0.0178499 0)
(1.00104 -0.0197094 0)
(0.992583 -0.0237916 0)
(0.984971 -0.0178683 0)
(0.982633 -0.0196121 0)
(0.976445 -0.0114559 0)
(0.974053 -0.00801724 0)
(0.973558 -0.000243805 0)
(0.974516 0.00387634 0)
(0.975403 0.00851468 0)
(0.977672 0.0111747 0)
(0.979252 0.013037 0)
(0.980557 0.0147985 0)
(1.0044 -0.00567011 0)
(0.992402 -0.00884092 0)
(0.983702 0.00120225 0)
(0.993656 0.0108634 0)
(1.00707 0.00845229 0)
(1.01031 -0.000451377 0)
(1.01046 -0.00861747 0)
(1.00542 -0.0174762 0)
(1.00105 -0.0194707 0)
(0.992595 -0.0231698 0)
(0.985198 -0.0176224 0)
(0.982457 -0.0190451 0)
(0.976733 -0.0113195 0)
(0.97412 -0.00761469 0)
(0.973852 -0.000418606 0)
(0.974738 0.0038468 0)
(0.975601 0.00822511 0)
(0.977877 0.0108395 0)
(0.979394 0.0126754 0)
(0.980735 0.01455 0)
(1.00416 -0.00558089 0)
(0.992558 -0.00866739 0)
(0.984188 0.00121911 0)
(0.993813 0.0104523 0)
(1.00664 0.00821743 0)
(1.01022 -0.000603653 0)
(1.00996 -0.00852785 0)
(1.00546 -0.0170249 0)
(1.00106 -0.0193498 0)
(0.992586 -0.0223229 0)
(0.985408 -0.0176009 0)
(0.982364 -0.018291 0)
(0.97706 -0.0112007 0)
(0.974262 -0.00726325 0)
(0.974179 -0.000538273 0)
(0.97501 0.00370479 0)
(0.975821 0.00803871 0)
(0.978075 0.010603 0)
(0.979593 0.0123611 0)
(0.980949 0.0142531 0)
(1.00399 -0.0054774 0)
(0.992637 -0.00852056 0)
(0.984646 0.00126479 0)
(0.99404 0.0100114 0)
(1.00625 0.00803441 0)
(1.01013 -0.000826386 0)
(1.0095 -0.00838857 0)
(1.0054 -0.016621 0)
(1.00108 -0.0191349 0)
(0.992559 -0.0215877 0)
(0.985614 -0.0174351 0)
(0.982382 -0.017675 0)
(0.977413 -0.0110177 0)
(0.974538 -0.00696477 0)
(0.974551 -0.000564719 0)
(0.975347 0.00343253 0)
(0.976097 0.00779461 0)
(0.978285 0.0102685 0)
(0.979763 0.0120727 0)
(0.9811 0.0138849 0)
(1.00388 -0.00535695 0)
(0.992659 -0.00840296 0)
(0.985057 0.00133859 0)
(0.994315 0.00952919 0)
(1.00593 0.00786395 0)
(1.01002 -0.00103729 0)
(1.00907 -0.00829976 0)
(1.00527 -0.0161447 0)
(1.00104 -0.0188743 0)
(0.992561 -0.0210166 0)
(0.985801 -0.0169668 0)
(0.982491 -0.0172671 0)
(0.977843 -0.0107111 0)
(0.974922 -0.00666168 0)
(0.975004 -0.000749939 0)
(0.975792 0.00333409 0)
(0.97649 0.00765446 0)
(0.978596 0.0100787 0)
(0.980073 0.0117429 0)
(0.981356 0.0135664 0)
(1.00383 -0.00526488 0)
(0.992642 -0.00821625 0)
(0.985425 0.00130351 0)
(0.994601 0.00920957 0)
(1.00568 0.00748898 0)
(1.00987 -0.00102494 0)
(1.00866 -0.00840351 0)
(1.00506 -0.0154786 0)
(1.00099 -0.0189281 0)
(0.992581 -0.0199427 0)
(0.985994 -0.0171115 0)
(0.982696 -0.0162489 0)
(0.978336 -0.0108967 0)
(0.975394 -0.00598382 0)
(0.975567 -0.000961522 0)
(0.976366 0.00351999 0)
(0.976978 0.00722418 0)
(0.978971 0.010128 0)
(0.98044 0.011325 0)
(0.981668 0.0130697 0)
(1.00382 -0.00513485 0)
(0.992618 -0.0081018 0)
(0.985742 0.00138579 0)
(0.99488 0.00872352 0)
(1.00548 0.00731974 0)
(1.00969 -0.00125241 0)
(1.00824 -0.00825635 0)
(1.00482 -0.0151404 0)
(1.0009 -0.0184844 0)
(0.992632 -0.0195298 0)
(0.986183 -0.0165251 0)
(0.98297 -0.0159114 0)
(0.978897 -0.0105357 0)
(0.976019 -0.00579325 0)
(0.976177 -0.000929937 0)
(0.976992 0.00320615 0)
(0.977562 0.00701559 0)
(0.979381 0.00974706 0)
(0.980718 0.0109845 0)
(0.98195 0.0125834 0)
(1.00383 -0.00498916 0)
(0.992602 -0.00799619 0)
(0.986026 0.00142744 0)
(0.99513 0.00829997 0)
(1.00532 0.00704823 0)
(1.00946 -0.00139429 0)
(1.00782 -0.00818598 0)
(1.00457 -0.0146528 0)
(1.00076 -0.0181612 0)
(0.992743 -0.0190658 0)
(0.986354 -0.0159223 0)
(0.983319 -0.0155767 0)
(0.9795 -0.0100153 0)
(0.976674 -0.00575181 0)
(0.976883 -0.000868185 0)
(0.977754 0.00299976 0)
(0.978264 0.00693814 0)
(0.979923 0.00941662 0)
(0.98126 0.0107319 0)
(0.982389 0.0122451 0)
(1.00386 -0.00489594 0)
(0.992608 -0.00779137 0)
(0.986295 0.00136563 0)
(0.995333 0.00800732 0)
(1.00519 0.00657355 0)
(1.00919 -0.00119102 0)
(1.0074 -0.00847812 0)
(1.00428 -0.0138602 0)
(1.00061 -0.0182267 0)
(0.992859 -0.0179749 0)
(0.986552 -0.0160713 0)
(0.983701 -0.0144595 0)
(0.980156 -0.0104858 0)
(0.977396 -0.004818 0)
(0.977649 -0.000802724 0)
(0.978531 0.00336094 0)
(0.979021 0.00639786 0)
(0.980483 0.00949397 0)
(0.981744 0.0102613 0)
(0.982818 0.0116203 0)
(1.00387 -0.00474357 0)
(0.992658 -0.00767956 0)
(0.986547 0.00142651 0)
(0.995508 0.007554 0)
(1.00505 0.00635992 0)
(1.00889 -0.00144704 0)
(1.00698 -0.00822808 0)
(1.00399 -0.0136273 0)
(1.00044 -0.0175722 0)
(0.993012 -0.0178598 0)
(0.986758 -0.0152796 0)
(0.984084 -0.0141876 0)
(0.980872 -0.00991963 0)
(0.978242 -0.00484491 0)
(0.978409 -0.000844976 0)
(0.979282 0.00290402 0)
(0.979784 0.00614926 0)
(0.981038 0.00891093 0)
(0.982105 0.0100784 0)
(0.983198 0.0113489 0)
(1.00387 -0.00457669 0)
(0.99275 -0.00758802 0)
(0.986804 0.00146729 0)
(0.995653 0.00713113 0)
(1.00491 0.00603327 0)
(1.00858 -0.00151077 0)
(1.00656 -0.00815713 0)
(1.00372 -0.0132696 0)
(1.00023 -0.0170459 0)
(0.993208 -0.0175518 0)
(0.986966 -0.014565 0)
(0.984521 -0.0139381 0)
(0.981558 -0.00937577 0)
(0.978987 -0.00496175 0)
(0.979219 -0.000707458 0)
(0.98015 0.00255735 0)
(0.980643 0.0060012 0)
(0.981734 0.00846667 0)
(0.982771 0.00993847 0)
(0.983675 0.0110595 0)
(1.00385 -0.00449618 0)
(0.992872 -0.0073454 0)
(0.987085 0.00132689 0)
(0.995765 0.00694328 0)
(1.00477 0.00544107 0)
(1.00822 -0.00118233 0)
(1.00615 -0.00853085 0)
(1.00342 -0.0123777 0)
(1.00007 -0.0171606 0)
(0.99338 -0.0163927 0)
(0.987208 -0.0148771 0)
(0.984918 -0.012771 0)
(0.982293 -0.00973345 0)
(0.97983 -0.00387831 0)
(0.980019 -0.000636989 0)
(0.980926 0.0031082 0)
(0.981481 0.00549406 0)
(0.982407 0.00873629 0)
(0.983287 0.00942438 0)
(0.984112 0.0104329 0)
(1.00379 -0.00429794 0)
(0.993044 -0.00727971 0)
(0.987374 0.00141202 0)
(0.995882 0.00646299 0)
(1.0046 0.00523669 0)
(1.00786 -0.00149359 0)
(1.00576 -0.00814108 0)
(1.00315 -0.0123168 0)
(0.999884 -0.0163375 0)
(0.993564 -0.0163346 0)
(0.98748 -0.0140516 0)
(0.985355 -0.0124832 0)
(0.983058 -0.00925416 0)
(0.980677 -0.00413101 0)
(0.980791 -0.000721554 0)
(0.98167 0.00261988 0)
(0.982277 0.00532454 0)
(0.982999 0.0081581 0)
(0.983591 0.00940546 0)
(0.984438 0.0104378 0)
(1.00371 -0.00415817 0)
(0.993248 -0.00712347 0)
(0.987686 0.00137574 0)
(0.996003 0.00613099 0)
(1.00442 0.0048311 0)
(1.0075 -0.00151428 0)
(1.00536 -0.00797415 0)
(1.0029 -0.0121128 0)
(0.999702 -0.0156509 0)
(0.993794 -0.0160798 0)
(0.987747 -0.0132619 0)
(0.985745 -0.0121971 0)
(0.983741 -0.00882426 0)
(0.9815 -0.00442725 0)
(0.981583 -0.000450471 0)
(0.982505 0.00215759 0)
(0.98315 0.00527693 0)
(0.983792 0.00746375 0)
(0.984311 0.00948087 0)
(0.984857 0.0104668 0)
(1.00362 -0.00405254 0)
(0.993453 -0.00690452 0)
(0.98804 0.00124648 0)
(0.996105 0.00595014 0)
(1.00426 0.00427097 0)
(1.00711 -0.00130123 0)
(1.00499 -0.00812217 0)
(1.00263 -0.0114481 0)
(0.999565 -0.0154856 0)
(0.993986 -0.0152472 0)
(0.988062 -0.0131348 0)
(0.986156 -0.0112245 0)
(0.984426 -0.00880052 0)
(0.982337 -0.00394289 0)
(0.98234 -0.000539075 0)
(0.983243 0.00224992 0)
(0.983948 0.00479906 0)
(0.984535 0.0073448 0)
(0.984916 0.00897427 0)
(0.985216 0.00998011 0)
(1.00351 -0.00384256 0)
(0.99368 -0.00683347 0)
(0.988401 0.00129414 0)
(0.996222 0.00549443 0)
(1.00408 0.00403522 0)
(1.00672 -0.00153448 0)
(1.00464 -0.0078522 0)
(1.00238 -0.0111904 0)
(0.999425 -0.014892 0)
(0.994213 -0.0149115 0)
(0.9884 -0.0124001 0)
(0.986533 -0.0107756 0)
(0.985113 -0.00841401 0)
(0.983179 -0.00377801 0)
(0.98308 -0.000543579 0)
(0.983965 0.00227317 0)
(0.98474 0.00456246 0)
(0.985253 0.00703093 0)
(0.985443 0.00845927 0)
(0.985556 0.00946078 0)
(1.00338 -0.0037275 0)
(0.993918 -0.00664276 0)
(0.988775 0.0011841 0)
(0.996347 0.00528685 0)
(1.00389 0.00357457 0)
(1.00634 -0.0015434 0)
(1.00429 -0.00769214 0)
(1.00214 -0.010817 0)
(0.999296 -0.014427 0)
(0.994447 -0.0143039 0)
(0.98875 -0.0120192 0)
(0.986925 -0.0101121 0)
(0.985782 -0.0079533 0)
(0.983991 -0.00376966 0)
(0.983829 -0.000452705 0)
(0.984669 0.00226197 0)
(0.98546 0.00427225 0)
(0.985923 0.00651343 0)
(0.985971 0.00794732 0)
(0.985896 0.00894477 0)
(1.00325 -0.00357371 0)
(0.994158 -0.00647582 0)
(0.989165 0.00111373 0)
(0.996469 0.00498979 0)
(1.0037 0.00321193 0)
(1.00597 -0.00161698 0)
(1.00395 -0.00753823 0)
(1.0019 -0.0104402 0)
(0.999193 -0.0138402 0)
(0.994671 -0.0138632 0)
(0.989128 -0.011519 0)
(0.987336 -0.00944124 0)
(0.986391 -0.00768397 0)
(0.984818 -0.00368137 0)
(0.98459 -0.000371901 0)
(0.985322 0.00214796 0)
(0.986132 0.00396058 0)
(0.986593 0.00607056 0)
(0.986499 0.00747733 0)
(0.986245 0.0084596 0)
(1.00312 -0.00340078 0)
(0.994404 -0.0063425 0)
(0.989553 0.0010564 0)
(0.996595 0.00465195 0)
(1.00352 0.00293714 0)
(1.0056 -0.00181893 0)
(1.00363 -0.0072964 0)
(1.00168 -0.0101065 0)
(0.999068 -0.0132276 0)
(0.994912 -0.0134652 0)
(0.989534 -0.0109085 0)
(0.98771 -0.00900511 0)
(0.987002 -0.00725568 0)
(0.985644 -0.003571 0)
(0.985327 -0.00041793 0)
(0.985959 0.0020012 0)
(0.986785 0.00378488 0)
(0.987241 0.00565371 0)
(0.987023 0.00696625 0)
(0.986603 0.00798743 0)
(1.00299 -0.00327193 0)
(0.994646 -0.00616135 0)
(0.989954 0.00094099 0)
(0.996717 0.00443092 0)
(1.00333 0.00257565 0)
(1.00525 -0.0018716 0)
(1.00332 -0.00713804 0)
(1.00145 -0.00971806 0)
(0.998972 -0.0127106 0)
(0.99515 -0.0128133 0)
(0.989942 -0.0106171 0)
(0.988121 -0.00838434 0)
(0.987588 -0.00685625 0)
(0.986422 -0.00352551 0)
(0.98607 -0.000503211 0)
(0.986612 0.00200833 0)
(0.987402 0.00360181 0)
(0.98783 0.0052493 0)
(0.987552 0.0064859 0)
(0.987004 0.00755795 0)
(1.00285 -0.00310617 0)
(0.994893 -0.00601269 0)
(0.99035 0.000910769 0)
(0.996834 0.00405494 0)
(1.00315 0.00234508 0)
(1.0049 -0.00200876 0)
(1.00302 -0.00695785 0)
(1.00125 -0.00939956 0)
(0.998877 -0.0119947 0)
(0.995372 -0.0124186 0)
(0.99038 -0.0101315 0)
(0.988529 -0.00790902 0)
(0.988125 -0.00648178 0)
(0.987196 -0.00342973 0)
(0.986844 -0.000519936 0)
(0.98725 0.00190894 0)
(0.987957 0.00336482 0)
(0.988407 0.00486124 0)
(0.988091 0.00611675 0)
(0.987397 0.00710357 0)
(1.00272 -0.00295241 0)
(0.995139 -0.00585549 0)
(0.990744 0.000793891 0)
(0.996954 0.00375607 0)
(1.00297 0.00209968 0)
(1.00456 -0.00208869 0)
(1.00274 -0.00676784 0)
(1.00106 -0.00903675 0)
(0.998776 -0.011456 0)
(0.995597 -0.0118676 0)
(0.990823 -0.00973788 0)
(0.988943 -0.00745315 0)
(0.988672 -0.00604363 0)
(0.987938 -0.00330539 0)
(0.987583 -0.000617615 0)
(0.987876 0.00173907 0)
(0.988514 0.0032215 0)
(0.988984 0.00461253 0)
(0.988616 0.00573591 0)
(0.987786 0.00661793 0)
(1.00259 -0.00281091 0)
(0.995382 -0.00569321 0)
(0.99114 0.000736099 0)
(0.997072 0.00344864 0)
(1.00279 0.00184966 0)
(1.00423 -0.00210724 0)
(1.00246 -0.00659376 0)
(1.00088 -0.00873265 0)
(0.998698 -0.0108494 0)
(0.995806 -0.0112989 0)
(0.991279 -0.00936722 0)
(0.989384 -0.0069762 0)
(0.989174 -0.00569833 0)
(0.988637 -0.00319807 0)
(0.988334 -0.000698266 0)
(0.988542 0.00163781 0)
(0.989074 0.00311267 0)
(0.989504 0.00431216 0)
(0.989084 0.00531635 0)
(0.988179 0.00614159 0)
(1.00246 -0.00265097 0)
(0.995629 -0.00553793 0)
(0.991529 0.000650912 0)
(0.997188 0.00311036 0)
(1.00262 0.00162394 0)
(1.00391 -0.00211464 0)
(1.0022 -0.00639395 0)
(1.00073 -0.00840922 0)
(0.998623 -0.0102823 0)
(0.99601 -0.0107823 0)
(0.991739 -0.00898418 0)
(0.989815 -0.00660938 0)
(0.989676 -0.00533064 0)
(0.989325 -0.00302811 0)
(0.989068 -0.000744956 0)
(0.989199 0.0014665 0)
(0.989591 0.00292095 0)
(0.989994 0.004007 0)
(0.989564 0.0049835 0)
(0.988583 0.00572025 0)
(1.00234 -0.00250655 0)
(0.995868 -0.00538259 0)
(0.991917 0.000554123 0)
(0.997307 0.00283169 0)
(1.00246 0.00137274 0)
(1.00359 -0.00209148 0)
(1.00194 -0.00619315 0)
(1.00057 -0.00811298 0)
(0.998562 -0.00978009 0)
(0.996203 -0.0102018 0)
(0.992199 -0.00862966 0)
(0.990281 -0.00620314 0)
(0.990165 -0.00495086 0)
(0.989966 -0.00288576 0)
(0.989774 -0.000802515 0)
(0.989864 0.00127308 0)
(0.990136 0.00276661 0)
(0.990489 0.00378191 0)
(0.990004 0.00468354 0)
(0.988966 0.00531099 0)
(1.00221 -0.00236145 0)
(0.996111 -0.00522161 0)
(0.992301 0.000481877 0)
(0.997421 0.00253302 0)
(1.00231 0.00111974 0)
(1.00328 -0.00206112 0)
(1.00168 -0.00595693 0)
(1.00044 -0.00780828 0)
(0.998519 -0.00924403 0)
(0.996393 -0.00964295 0)
(0.992663 -0.0082465 0)
(0.990744 -0.00587054 0)
(0.990635 -0.00462591 0)
(0.990584 -0.00274706 0)
(0.990458 -0.000815272 0)
(0.990535 0.00110359 0)
(0.990672 0.00261593 0)
(0.990947 0.00352759 0)
(0.990423 0.00439031 0)
(0.989341 0.00493681 0)
(1.00209 -0.00221536 0)
(0.996347 -0.00506151 0)
(0.992682 0.000362932 0)
(0.997537 0.00226428 0)
(1.00218 0.000850036 0)
(1.003 -0.0020139 0)
(1.00143 -0.00568705 0)
(1.00031 -0.00747368 0)
(0.998486 -0.00877688 0)
(0.99657 -0.00909978 0)
(0.99311 -0.00789164 0)
(0.991228 -0.00555756 0)
(0.991106 -0.00428448 0)
(0.991177 -0.0025872 0)
(0.991116 -0.00080749 0)
(0.991201 0.000929156 0)
(0.991216 0.00243594 0)
(0.991412 0.00330752 0)
(0.990829 0.00413753 0)
(0.989699 0.00460919 0)
(1.00197 -0.00207445 0)
(0.996581 -0.00489715 0)
(0.993059 0.000268031 0)
(0.997647 0.00201776 0)
(1.00205 0.00057275 0)
(1.00272 -0.00199592 0)
(1.00118 -0.00539088 0)
(1.0002 -0.00713928 0)
(0.998468 -0.00829777 0)
(0.996749 -0.00857879 0)
(0.99356 -0.00748858 0)
(0.991717 -0.00526243 0)
(0.991564 -0.00396539 0)
(0.991741 -0.00243425 0)
(0.991738 -0.000786245 0)
(0.991852 0.000755442 0)
(0.991767 0.0022513 0)
(0.991865 0.00308941 0)
(0.991217 0.00387673 0)
(0.99004 0.00430983 0)
(1.00185 -0.00194626 0)
(0.996808 -0.00471703 0)
(0.993432 0.000134813 0)
(0.997754 0.00179128 0)
(1.00193 0.000289304 0)
(1.00248 -0.00198885 0)
(1.00095 -0.00506246 0)
(1.00008 -0.00674668 0)
(0.998455 -0.00784266 0)
(0.996917 -0.00806313 0)
(0.993987 -0.00711851 0)
(0.992214 -0.00501316 0)
(0.992024 -0.0036766 0)
(0.992285 -0.00227961 0)
(0.99233 -0.000755474 0)
(0.992489 0.000620662 0)
(0.992329 0.00206562 0)
(0.992324 0.00289141 0)
(0.991604 0.00364958 0)
(0.990376 0.00406377 0)
(1.00174 -0.00180192 0)
(0.99703 -0.00455994 0)
(0.993802 2.64032e-05 0)
(0.997858 0.00156398 0)
(1.00182 2.49425e-05 0)
(1.00225 -0.00203721 0)
(1.00073 -0.00473538 0)
(0.999975 -0.00635581 0)
(0.998453 -0.00737829 0)
(0.997087 -0.00758087 0)
(0.994408 -0.00672741 0)
(0.992716 -0.0047599 0)
(0.99248 -0.00340869 0)
(0.992805 -0.00212725 0)
(0.99289 -0.00071693 0)
(0.9931 0.000504461 0)
(0.992887 0.00186263 0)
(0.992783 0.00269901 0)
(0.991987 0.0034234 0)
(0.990694 0.00383638 0)
(1.00163 -0.00167658 0)
(0.997243 -0.00437734 0)
(0.994166 -9.8007e-05 0)
(0.997956 0.00133419 0)
(1.00172 -0.000240561 0)
(1.00207 -0.00209835 0)
(1.00053 -0.00439014 0)
(0.999862 -0.00592632 0)
(0.998441 -0.00691517 0)
(0.997242 -0.0071022 0)
(0.994806 -0.00633383 0)
(0.993213 -0.00451606 0)
(0.992937 -0.00317168 0)
(0.993312 -0.00197624 0)
(0.993426 -0.000677305 0)
(0.993686 0.000415069 0)
(0.993456 0.00166229 0)
(0.993261 0.00251927 0)
(0.992382 0.00320565 0)
(0.991017 0.00363604 0)
(1.00152 -0.00156091 0)
(0.997451 -0.00419528 0)
(0.994522 -0.000206846 0)
(0.99805 0.0011422 0)
(1.00162 -0.000491681 0)
(1.00191 -0.00214781 0)
(1.00035 -0.00406252 0)
(0.999744 -0.00551071 0)
(0.998427 -0.00646446 0)
(0.997394 -0.00665125 0)
(0.995191 -0.00594141 0)
(0.993706 -0.00427081 0)
(0.993394 -0.00295017 0)
(0.993803 -0.00182239 0)
(0.993937 -0.000626327 0)
(0.994242 0.000364637 0)
(0.994018 0.00147459 0)
(0.993745 0.00233379 0)
(0.992785 0.00298881 0)
(0.991339 0.00344629 0)
(1.00142 -0.00142416 0)
(0.99765 -0.00403714 0)
(0.994874 -0.000294779 0)
(0.998141 0.000960412 0)
(1.00153 -0.000701787 0)
(1.00178 -0.00218528 0)
(1.00021 -0.00376615 0)
(0.999635 -0.00511621 0)
(0.998414 -0.00603251 0)
(0.997542 -0.00622922 0)
(0.995563 -0.00558478 0)
(0.994191 -0.00403451 0)
(0.99385 -0.0027627 0)
(0.994282 -0.00168252 0)
(0.994428 -0.000582418 0)
(0.994761 0.000336664 0)