/*--------------------------------*- C++ -*----------------------------------*\
| =========                 |                                                 |
| \\      /  F ield         | OpenFOAM: The Open Source CFD Toolbox           |
|  \\    /   O peration     | Version:  v2012                                 |
|   \\  /    A nd           | Website:  www.openfoam.com                      |
|    \\/     M anipulation  |                                                 |
\*---------------------------------------------------------------------------*/
FoamFile
{
    version     2.0;
    format      ascii;
    class       surfaceScalarField;
    location    "6.5";
    object      phi;
}
// * * * * * * * * * * * * * * * * * * * * * * * * * * * * * * * * * * * * * //

dimensions      [0 3 -1 0 0 0 0];
oriented        oriented;


internalField   nonuniform List<scalar> 
13830
(
9.81233e-07
-1.12071e-06
1.0239e-06
5.50752e-07
9.02512e-07
9.98089e-07
9.03207e-07
-8.74988e-07
1.01469e-06
-6.06128e-07
9.34144e-07
-2.58118e-07
9.59546e-07
8.98495e-07
8.8826e-07
6.50354e-07
9.10551e-07
2.18162e-08
8.98332e-07
-1.94515e-07
9.10913e-07
-6.57461e-07
9.24365e-07
-3.46327e-07
9.32635e-07
-5.14414e-07
9.42793e-07
-1.72872e-07
9.44336e-07
-1.98288e-07
9.49139e-07
-2.12182e-08
9.47687e-07
-3.08213e-08
9.48907e-07
3.61492e-08
9.45965e-07
3.83295e-08
6.41381e-08
9.35132e-07
1.02107e-06
-1.16925e-06
1.0666e-06
5.05229e-07
9.41371e-07
1.12331e-06
9.41039e-07
-8.74656e-07
1.05247e-06
-7.17562e-07
9.6925e-07
-1.74895e-07
9.91055e-07
8.7669e-07
9.37444e-07
7.03966e-07
9.48129e-07
1.1131e-08
9.48063e-07
-1.94449e-07
9.55021e-07
-6.64419e-07
9.69352e-07
-3.60658e-07
9.74429e-07
-5.19491e-07
9.87196e-07
-1.85639e-07
9.83014e-07
-1.94106e-07
9.93612e-07
-3.18162e-08
9.82825e-07
-2.00342e-08
9.92672e-07
2.63015e-08
9.7587e-07
5.51315e-08
5.49554e-08
9.85053e-07
1.06047e-06
-1.22026e-06
1.11173e-06
4.53967e-07
9.88796e-07
1.24625e-06
9.82992e-07
-8.68852e-07
1.08777e-06
-8.22344e-07
1.01302e-06
-1.00143e-07
1.02202e-06
8.67697e-07
9.94833e-07
7.31147e-07
9.90781e-07
1.51829e-08
1.0016e-06
-2.05266e-07
9.97065e-07
-6.59886e-07
1.01574e-06
-3.79331e-07
1.01194e-06
-5.15689e-07
1.0314e-06
-2.05098e-07
1.01936e-06
-1.82067e-07
1.03473e-06
-4.71844e-08
1.01953e-06
-4.84266e-09
1.02917e-06
1.66646e-08
1.01452e-06
6.97854e-08
5.24486e-08
1.01702e-06
1.09849e-06
-1.27098e-06
1.15665e-06
3.95806e-07
1.04193e-06
1.36097e-06
1.0286e-06
-8.55526e-07
1.12044e-06
-9.14181e-07
1.06201e-06
-4.17091e-08
1.05772e-06
8.71985e-07
1.05309e-06
7.35777e-07
1.03713e-06
3.11455e-08
1.05179e-06
-2.19925e-07
1.03704e-06
-6.45134e-07
1.05593e-06
-3.98228e-07
1.04731e-06
-5.07069e-07
1.06751e-06
-2.25298e-07
1.05629e-06
-1.70842e-07
1.06912e-06
-6.00167e-08
1.05841e-06
5.86402e-09
1.0633e-06
1.17759e-08
1.05434e-06
7.87449e-08
5.43806e-08
1.05241e-06
1.13458e-06
-1.318e-06
1.19804e-06
3.32346e-07
1.09792e-06
1.46108e-06
1.07673e-06
-8.34335e-07
1.15037e-06
-9.87815e-07
1.11303e-06
-4.37137e-09
1.10013e-06
8.84888e-07
1.10876e-06
7.27147e-07
1.08629e-06
5.36076e-08
1.09732e-06
-2.30956e-07
1.07711e-06
-6.24921e-07
1.0918e-06
-4.12917e-07
1.0834e-06
-4.98666e-07
1.10096e-06
-2.42862e-07
1.09484e-06
-1.64725e-07
1.10447e-06
-6.96457e-08
1.09876e-06
1.15811e-08
1.10085e-06
9.67793e-09
1.09524e-06
8.43553e-08
5.80052e-08
1.09162e-06
1.16901e-06
-1.35817e-06
1.23402e-06
2.67334e-07
1.15396e-06
1.54114e-06
1.12615e-06
-8.06524e-07
1.17873e-06
-1.04039e-06
1.16281e-06
1.15405e-08
1.14848e-06
8.99223e-07
1.16118e-06
7.14444e-07
1.13737e-06
7.74202e-08
1.14098e-06
-2.34562e-07
1.11931e-06
-6.0325e-07
1.12824e-06
-4.21852e-07
1.12154e-06
-4.91966e-07
1.1366e-06
-2.57923e-07
1.13491e-06
-1.63033e-07
1.14347e-06
-7.82073e-08
1.14079e-06
1.42624e-08
1.14231e-06
8.15882e-09
1.13837e-06
8.82929e-08
6.18075e-08
1.13457e-06
1.20276e-06
-1.38923e-06
1.26462e-06
2.0548e-07
1.20779e-06
1.59797e-06
1.17589e-06
-7.74626e-07
1.20755e-06
-1.07205e-06
1.20943e-06
9.66388e-09
1.19975e-06
9.08899e-07
1.21107e-06
7.03124e-07
1.18877e-06
9.97271e-08
1.1855e-06
-2.31295e-07
1.16391e-06
-5.81662e-07
1.16797e-06
-4.25909e-07
1.16166e-06
-4.85657e-07
1.17528e-06
-2.71548e-07
1.17592e-06
-1.63669e-07
1.18502e-06
-8.73085e-08
1.18415e-06
1.51362e-08
1.18625e-06
6.05113e-09
1.18354e-06
9.10078e-08
6.50009e-08
1.18035e-06
1.23727e-06
-1.41032e-06
1.29154e-06
1.51211e-07
1.25813e-06
1.63137e-06
1.2255e-06
-7.41996e-07
1.23888e-06
-1.08543e-06
1.25257e-06
-4.0284e-09
1.25017e-06
9.11294e-07
1.25891e-06
6.94386e-07
1.23898e-06
1.19659e-07
1.23189e-06
-2.24203e-07
1.21038e-06
-5.60153e-07
1.21121e-06
-4.2674e-07
1.2036e-06
-4.78052e-07
1.21617e-06
-2.84118e-07
1.21747e-06
-1.64965e-07
1.22743e-06
-9.72641e-08
1.22788e-06
1.46809e-08
1.23087e-06
3.06683e-09
1.22949e-06
9.23856e-08
6.72569e-08
1.22723e-06
1.27397e-06
-1.42193e-06
1.3175e-06
1.07677e-07
1.30502e-06
1.64386e-06
1.27511e-06
-7.12085e-07
1.27404e-06
-1.08436e-06
1.29313e-06
-2.3116e-08
1.29721e-06
9.07216e-07
1.30482e-06
6.86777e-07
1.2875e-06
1.36979e-07
1.27994e-06
-2.16644e-07
1.25834e-06
-5.38556e-07
1.25733e-06
-4.25725e-07
1.24758e-06
-4.68305e-07
1.25878e-06
-2.9532e-07
1.25965e-06
-1.65834e-07
1.26989e-06
-1.07505e-07
1.27137e-06
1.32053e-08
1.27493e-06
-4.95631e-10
1.27499e-06
9.23252e-08
6.85745e-08
1.27367e-06
1.31395e-06
-1.42561e-06
1.34541e-06
7.62146e-08
1.34964e-06
1.63963e-06
1.32511e-06
-6.87554e-07
1.31356e-06
-1.07281e-06
1.33271e-06
-4.22617e-08
1.34063e-06
8.99296e-07
1.34921e-06
6.78191e-07
1.3349e-06
1.51292e-07
1.32926e-06
-2.11003e-07
1.30777e-06
-5.17065e-07
1.30581e-06
-4.23771e-07
1.29389e-06
-4.56384e-07
1.30326e-06
-3.04693e-07
1.30303e-06
-1.65604e-07
1.31267e-06
-1.17141e-07
1.31476e-06
1.11169e-08
1.31829e-06
-4.03047e-09
1.31962e-06
9.09957e-08
6.9189e-08
1.31901e-06
1.35771e-06
-1.4233e-06
1.37755e-06
5.63772e-08
1.39382e-06
1.62335e-06
1.37591e-06
-6.69636e-07
1.35731e-06
-1.05421e-06
1.37313e-06
-5.80849e-08
1.38214e-06
8.90285e-07
1.39319e-06
6.67146e-07
1.38233e-06
1.62147e-07
1.37974e-06
-2.08412e-07
1.35873e-06
-4.96051e-07
1.35639e-06
-4.21428e-07
1.34269e-06
-4.42687e-07
1.34996e-06
-3.11962e-07
1.34834e-06
-1.63983e-07
1.35656e-06
-1.25363e-07
1.35879e-06
8.88934e-09
1.36164e-06
-6.88738e-09
1.36382e-06
8.88218e-08
6.94694e-08
1.36354e-06
1.40524e-06
-1.41689e-06
1.41518e-06
4.64379e-08
1.43933e-06
1.5992e-06
1.42777e-06
-6.58074e-07
1.40486e-06
-1.0313e-06
1.41607e-06
-6.9297e-08
1.42428e-06
8.82071e-07
1.43829e-06
6.53141e-07
1.43099e-06
1.69444e-07
1.4316e-06
-2.09023e-07
1.41134e-06
-4.75786e-07
1.40887e-06
-4.18964e-07
1.39392e-06
-4.27734e-07
1.39904e-06
-3.17087e-07
1.39611e-06
-1.61052e-07
1.40239e-06
-1.3164e-07
1.40437e-06
6.91351e-09
1.40604e-06
-8.56347e-09
1.40854e-06
8.63276e-08
6.98074e-08
1.4082e-06
1.45616e-06
-1.4078e-06
1.4585e-06
4.41033e-08
1.48736e-06
1.57034e-06
1.48085e-06
-6.5157e-07
1.45567e-06
-1.00612e-06
1.4626e-06
-7.62259e-08
1.46922e-06
8.75455e-07
1.48593e-06
6.36426e-07
1.48176e-06
1.73618e-07
1.48515e-06
-2.12413e-07
1.46572e-06
-4.56354e-07
1.46315e-06
-4.16398e-07
1.44741e-06
-4.11989e-07
1.45047e-06
-3.20149e-07
1.44659e-06
-1.57175e-07
1.45069e-06
-1.35744e-07
1.45223e-06
5.38345e-09
1.45247e-06
-8.80972e-09
1.45483e-06
8.39725e-08
7.05167e-08
1.45412e-06
1.51001e-06
-1.39693e-06
1.507e-06
4.71059e-08
1.53842e-06
1.53892e-06
1.53527e-06
-6.48425e-07
1.50927e-06
-9.80111e-07
1.51309e-06
-8.00511e-08
1.51815e-06
8.70398e-07
1.537e-06
6.17573e-07
1.53514e-06
1.75482e-07
1.54064e-06
-2.17912e-07
1.52201e-06
-4.37727e-07
1.51918e-06
-4.13564e-07
1.503e-06
-3.95807e-07
1.50407e-06
-3.2122e-07
1.49974e-06
-1.5285e-07
1.5017e-06
-1.37706e-07
1.50281e-06
4.28164e-09
1.50165e-06
-7.65051e-09
1.50358e-06
8.20442e-08
7.17618e-08
1.50233e-06
1.56638e-06
-1.3847e-06
1.55999e-06
5.34954e-08
1.5926e-06
1.50631e-06
1.59119e-06
-6.47022e-07
1.56531e-06
-9.54228e-07
1.56738e-06
-8.21209e-08
1.57134e-06
8.66435e-07
1.59179e-06
5.9713e-07
1.59135e-06
1.75924e-07
1.59823e-06
-2.24795e-07
1.58038e-06
-4.19879e-07
1.57702e-06
-4.10205e-07
1.56067e-06
-3.79456e-07
1.55972e-06
-3.20275e-07
1.55541e-06
-1.48539e-07
1.55543e-06
-1.37719e-07
1.55626e-06
3.44527e-09
1.55395e-06
-5.33731e-09
1.55537e-06
8.06249e-08
7.35286e-08
1.5536e-06
1.62506e-06
-1.37121e-06
1.6169e-06
6.16572e-08
1.64983e-06
1.47338e-06
1.64885e-06
-6.46041e-07
1.62367e-06
-9.29045e-07
1.62512e-06
-8.35748e-08
1.62851e-06
8.6304e-07
1.65018e-06
5.75469e-07
1.65044e-06
1.75658e-07
1.65799e-06
-2.32346e-07
1.64097e-06
-4.02858e-07
1.63683e-06
-4.06061e-07
1.62054e-06
-3.63173e-07
1.61747e-06
-3.17197e-07
1.61347e-06
-1.44542e-07
1.61179e-06
-1.36046e-07
1.61256e-06
2.68477e-09
1.60949e-06
-2.26813e-09
1.61048e-06
7.96273e-08
7.56449e-08
1.60837e-06
1.68604e-06
-1.3565e-06
1.67747e-06
7.02205e-08
1.7101e-06
1.44075e-06
1.70853e-06
-6.44475e-07
1.68439e-06
-9.04904e-07
1.68608e-06
-8.52643e-08
1.68928e-06
8.59839e-07
1.71193e-06
5.5282e-07
1.71247e-06
1.7512e-07
1.71999e-06
-2.39864e-07
1.70391e-06
-3.86781e-07
1.69876e-06
-4.00909e-07
1.6828e-06
-3.47213e-07
1.67747e-06
-3.11866e-07
1.67388e-06
-1.4095e-07
1.67078e-06
-1.32948e-07
1.67159e-06
1.87173e-09
1.66818e-06
1.14305e-09
1.66895e-06
7.88588e-08
7.7844e-08
1.66675e-06
1.74945e-06
-1.34064e-06
1.74167e-06
7.80075e-08
1.77345e-06
1.40897e-06
1.77054e-06
-6.41572e-07
1.74766e-06
-8.82017e-07
1.75022e-06
-8.7825e-08
1.7534e-06
8.56659e-07
1.77683e-06
5.29385e-07
1.77749e-06
1.74466e-07
1.78428e-06
-2.46661e-07
1.7693e-06
-3.71798e-07
1.76295e-06
-3.94559e-07
1.7476e-06
-3.31864e-07
1.73999e-06
-3.04261e-07
1.73674e-06
-1.37693e-07
1.73245e-06
-1.28658e-07
1.73332e-06
1.00331e-09
1.72991e-06
4.54994e-09
1.73065e-06
7.81171e-08
7.98456e-08
1.72865e-06
1.81551e-06
-1.32381e-06
1.80944e-06
8.40793e-08
1.83991e-06
1.3785e-06
1.83514e-06
-6.36805e-07
1.81365e-06
-8.60523e-07
1.81758e-06
-9.17554e-08
1.82075e-06
8.53485e-07
1.8447e-06
5.05435e-07
1.84554e-06
1.73627e-07
1.85099e-06
-2.52103e-07
1.83723e-06
-3.58045e-07
1.82949e-06
-3.86812e-07
1.81506e-06
-3.17439e-07
1.80532e-06
-2.94519e-07
1.80222e-06
-1.34597e-07
1.79697e-06
-1.23401e-07
1.79777e-06
1.98575e-10
1.79459e-06
7.735e-09
1.79544e-06
7.7259e-08
8.14295e-08
1.79386e-06
1.88438e-06
-1.30629e-06
1.88063e-06
8.78313e-08
1.90945e-06
1.34968e-06
1.90253e-06
-6.29884e-07
1.8825e-06
-8.40497e-07
1.88818e-06
-9.7433e-08
1.89131e-06
8.50354e-07
1.9154e-06
4.81345e-07
1.91665e-06
1.72383e-07
1.92021e-06
-2.55671e-07
1.90779e-06
-3.45625e-07
1.89847e-06
-3.77492e-07
1.88523e-06
-3.04199e-07
1.87365e-06
-2.8294e-07
1.87052e-06
-1.31466e-07
1.86452e-06
-1.17403e-07
1.86508e-06
-3.60257e-10
1.86219e-06
1.06236e-08
1.86322e-06
7.623e-08
8.24811e-08
1.86217e-06
1.95615e-06
-1.28834e-06
1.95493e-06
8.90492e-08
1.98196e-06
1.32266e-06
1.97284e-06
-6.20771e-07
1.95426e-06
-8.2191e-07
1.9619e-06
-1.05076e-07
1.96501e-06
8.47244e-07
1.9888e-06
4.57559e-07
1.99075e-06
1.70429e-07
1.99208e-06
-2.57e-07
1.98107e-06
-3.34618e-07
1.97002e-06
-3.66443e-07
1.95813e-06
-2.92306e-07
1.94513e-06
-2.6994e-07
1.94178e-06
-1.28114e-07
1.93529e-06
-1.10918e-07
1.93543e-06
-4.9411e-10
1.93279e-06
1.32611e-08
1.93397e-06
7.50505e-08
8.29977e-08
1.93345e-06
2.03083e-06
-1.27012e-06
2.03201e-06
8.7868e-08
2.05731e-06
1.29735e-06
2.04621e-06
-6.09669e-07
2.02889e-06
-8.0459e-07
2.03851e-06
-1.14692e-07
2.04178e-06
8.43977e-07
2.06481e-06
4.34528e-07
2.06777e-06
1.67465e-07
2.06665e-06
-2.55882e-07
2.05712e-06
-3.25086e-07
2.04425e-06
-3.53568e-07
2.03377e-06
-2.81834e-07
2.01981e-06
-2.55971e-07
2.01609e-06
-1.24396e-07
2.00938e-06
-1.04211e-07
2.00896e-06
-7.46135e-11
2.00647e-06
1.575e-08
2.00773e-06
7.37912e-08
8.30553e-08
2.00767e-06
2.1084e-06
-1.25168e-06
2.11163e-06
8.46415e-08
2.13548e-06
1.2735e-06
2.12277e-06
-5.96962e-07
2.10639e-06
-7.88209e-07
2.11776e-06
-1.26059e-07
2.12156e-06
8.40177e-07
2.14344e-06
4.12646e-07
2.14765e-06
1.63256e-07
2.14399e-06
-2.52228e-07
2.13595e-06
-3.17049e-07
2.12132e-06
-3.3893e-07
2.11221e-06
-2.72726e-07
2.09773e-06
-2.41494e-07
2.09352e-06
-1.20186e-07
2.08682e-06
-9.75113e-08
2.08581e-06
9.35865e-10
2.08335e-06
1.82166e-08
2.08461e-06
7.25312e-08
8.27596e-08
2.0849e-06
2.18887e-06
-1.23297e-06
2.19373e-06
7.9786e-08
2.21651e-06
1.25072e-06
2.20267e-06
-5.83119e-07
2.18678e-06
-7.72316e-07
2.19945e-06
-1.38733e-07
2.20434e-06
8.35286e-07
2.22476e-06
3.92224e-07
2.23035e-06
1.57674e-07
2.22414e-06
-2.46025e-07
2.21762e-06
-3.10521e-07
2.20143e-06
-3.22745e-07
2.19351e-06
-2.64804e-07
2.17897e-06
-2.26953e-07
2.17416e-06
-1.15383e-07
2.16763e-06
-9.09751e-08
2.16609e-06
2.47881e-09
2.1635e-06
2.08067e-08
2.16471e-06
7.13197e-08
8.22131e-08
2.16525e-06
2.27228e-06
-1.21386e-06
2.27841e-06
7.36638e-08
2.30056e-06
1.22856e-06
2.28606e-06
-5.68618e-07
2.27015e-06
-7.56406e-07
2.28353e-06
-1.52109e-07
2.29018e-06
8.2863e-07
2.30892e-06
3.73488e-07
2.31589e-06
1.50704e-07
2.3072e-06
-2.37337e-07
2.30215e-06
-3.05468e-07
2.28477e-06
-3.05373e-07
2.27778e-06
-2.57807e-07
2.26358e-06
-2.1275e-07
2.25812e-06
-1.09924e-07
2.25181e-06
-8.46655e-08
2.24984e-06
4.44903e-09
2.24696e-06
2.36833e-08
2.24815e-06
7.01293e-08
8.151e-08
2.24885e-06
2.35873e-06
-1.19421e-06
2.36586e-06
6.65362e-08
2.38783e-06
1.2066e-06
2.37309e-06
-5.53877e-07
2.35668e-06
-7.39994e-07
2.37005e-06
-1.65482e-07
2.37916e-06
8.19523e-07
2.39606e-06
3.56581e-07
2.40432e-06
1.42445e-07
2.39332e-06
-2.26332e-07
2.38959e-06
-3.0174e-07
2.37152e-06
-2.87301e-07
2.36512e-06
-2.51406e-07
2.35162e-06
-1.99253e-07
2.3455e-06
-1.038e-07
2.33939e-06
-7.85586e-08
2.33699e-06
6.84423e-09
2.33365e-06
2.70245e-08
2.33506e-06
6.87238e-08
8.07449e-08
2.33582e-06
2.44835e-06
-1.17388e-06
2.45631e-06
5.85698e-08
2.4785e-06
1.18441e-06
2.46385e-06
-5.39229e-07
2.44654e-06
-7.22691e-07
2.45918e-06
-1.78122e-07
2.47133e-06
8.07375e-07
2.48633e-06
3.41588e-07
2.49574e-06
1.3303e-07
2.48265e-06
-2.13246e-07
2.48e-06
-2.99086e-07
2.46179e-06
-2.69092e-07
2.45562e-06
-2.45232e-07
2.44314e-06
-1.86777e-07
2.43638e-06
-9.704e-08
2.43048e-06
-7.26611e-08
2.42711e-06
1.02197e-08
2.42341e-06
3.07251e-08
2.42554e-06
6.65857e-08
8.00197e-08
2.42627e-06
2.54126e-06
-1.15274e-06
2.54996e-06
4.98676e-08
2.57273e-06
1.16164e-06
2.55841e-06
-5.24905e-07
2.53997e-06
-7.04249e-07
2.55118e-06
-1.89335e-07
2.56677e-06
7.9178e-07
2.57981e-06
3.28551e-07
2.59026e-06
1.22578e-07
2.57538e-06
-1.98368e-07
2.57349e-06
-2.97191e-07
2.55567e-06
-2.51277e-07
2.5494e-06
-2.38957e-07
2.53812e-06
-1.75496e-07
2.53084e-06
-8.97577e-08
2.52514e-06
-6.6967e-08
2.52616e-06
9.20029e-09
2.52455e-06
3.23354e-08
2.51971e-06
7.14293e-08
7.94278e-08
2.5203e-06
2.63762e-06
-1.13068e-06
2.64699e-06
4.04972e-08
2.67067e-06
1.13797e-06
2.65679e-06
-5.11029e-07
2.63714e-06
-6.84599e-07
2.64631e-06
-1.98504e-07
2.66554e-06
7.72553e-07
2.67662e-06
3.17469e-07
2.68802e-06
1.11175e-07
2.6717e-06
-1.82046e-07
2.67018e-06
-2.95672e-07
2.65328e-06
-2.34379e-07
2.64656e-06
-2.3223e-07
2.63657e-06
-1.65504e-07
2.62939e-06
-8.25838e-08
2.62175e-06
-5.93222e-08
2.6183e-06
1.26418e-08
2.61483e-06
3.58151e-08
2.61754e-06
6.87143e-08
7.89088e-08
2.61806e-06
2.73759e-06
-1.10762e-06
2.74758e-06
3.05092e-08
2.77242e-06
1.11313e-06
2.75901e-06
-4.97625e-07
2.73824e-06
-6.63829e-07
2.74491e-06
-2.05176e-07
2.76769e-06
7.49776e-07
2.77691e-06
3.08253e-07
2.78915e-06
9.89278e-08
2.77186e-06
-1.64757e-07
2.77016e-06
-2.93969e-07
2.75486e-06
-2.19082e-07
2.74706e-06
-2.24426e-07
2.7388e-06
-1.57241e-07
2.73151e-06
-7.52942e-08
2.72278e-06
-5.05963e-08
2.71864e-06
1.67845e-08
2.71496e-06
3.94978e-08
2.71938e-06
6.42912e-08
7.87325e-08
2.71956e-06
2.84134e-06
-1.08349e-06
2.8519e-06
1.99467e-08
2.87808e-06
1.08695e-06
2.86506e-06
-4.84608e-07
2.84343e-06
-6.42192e-07
2.84731e-06
-2.09054e-07
2.87335e-06
7.23729e-07
2.88085e-06
3.00757e-07
2.89381e-06
8.59678e-08
2.87611e-06
-1.47051e-07
2.87359e-06
-2.91459e-07
2.86061e-06
-2.06097e-07
2.85102e-06
-2.14833e-07
2.84474e-06
-1.50964e-07
2.83866e-06
-6.92097e-08
2.83677e-06
-4.87078e-08
2.8379e-06
1.56541e-08
2.83585e-06
4.15438e-08
2.82537e-06
7.47713e-08
7.92589e-08
2.82484e-06
2.94904e-06
-1.0583e-06
2.96014e-06
8.84943e-09
2.98777e-06
1.05932e-06
2.97496e-06
-4.71795e-07
2.95283e-06
-6.20066e-07
2.95381e-06
-2.10033e-07
2.98269e-06
6.94845e-07
2.98865e-06
2.948e-07
3.00221e-06
7.24081e-08
2.98457e-06
-1.29415e-07
2.98082e-06
-2.87703e-07
2.97048e-06
-1.95756e-07
2.95902e-06
-2.03375e-07
2.95426e-06
-1.46207e-07
2.94392e-06
-5.8873e-08
2.93633e-06
-4.11161e-08
2.9307e-06
2.12884e-08
2.92711e-06
4.51291e-08
2.93487e-06
6.70142e-08
7.9873e-08
2.93425e-06
3.06089e-06
-1.03203e-06
3.0725e-06
-2.75236e-09
3.10159e-06
1.03023e-06
3.08873e-06
-4.58936e-07
3.06654e-06
-5.97876e-07
3.06469e-06
-2.08186e-07
3.09591e-06
6.63628e-07
3.10058e-06
2.90132e-07
3.11455e-06
5.84379e-08
3.0974e-06
-1.1227e-07
3.0922e-06
-2.825e-07
3.08415e-06
-1.87701e-07
3.07181e-06
-1.91043e-07
3.068e-06
-1.42391e-07
3.06382e-06
-5.46986e-08
3.06415e-06
-4.14449e-08
3.06489e-06
2.05529e-08
3.06289e-06
4.71303e-08
3.04863e-06
8.12718e-08
8.08075e-08
3.0477e-06
3.17709e-06
-1.00476e-06
3.18915e-06
-1.48064e-08
3.21969e-06
9.99685e-07
3.20644e-06
-4.45692e-07
3.1847e-06
-5.76134e-07
3.18015e-06
-2.03628e-07
3.2133e-06
6.30475e-07
3.2168e-06
2.8663e-07
3.23112e-06
4.41192e-08
3.21467e-06
-9.58162e-08
3.20828e-06
-2.76117e-07
3.20069e-06
-1.80108e-07
3.1909e-06
-1.81253e-07
3.18492e-06
-1.36415e-07
3.18148e-06
-5.12551e-08
3.16568e-06
-2.56427e-08
3.16011e-06
2.61202e-08
3.15879e-06
4.84448e-08
3.16545e-06
7.46162e-08
8.05928e-08
3.16567e-06
3.29783e-06
-9.76582e-07
3.31029e-06
-2.72661e-08
3.34219e-06
9.67791e-07
3.32827e-06
-4.31772e-07
3.30734e-06
-5.55204e-07
3.30044e-06
-1.9673e-07
3.33495e-06
5.95968e-07
3.3378e-06
2.83778e-07
3.35182e-06
3.0101e-08
3.33706e-06
-8.10601e-08
3.32841e-06
-2.67469e-07
3.32287e-06
-1.74566e-07
3.31261e-06
-1.70993e-07
3.30013e-06
-1.23934e-07
3.29274e-06
-4.38647e-08
3.28545e-06
-1.83533e-08
3.28093e-06
3.0641e-08
3.27899e-06
5.03816e-08
3.2874e-06
6.62047e-08
8.02837e-08
3.28771e-06
3.42332e-06
-9.47619e-07
3.43612e-06
-4.00624e-08
3.46925e-06
9.34661e-07
3.45439e-06
-4.16917e-07
3.43448e-06
-5.35291e-07
3.42577e-06
-1.88026e-07
3.46096e-06
5.60782e-07
3.4639e-06
2.80838e-07
3.47678e-06
1.72188e-08
3.46502e-06
-6.92969e-08
3.45245e-06
-2.54898e-07
3.45031e-06
-1.72427e-07
3.4351e-06
-1.55788e-07
3.43809e-06
-1.26925e-07
3.43556e-06
-4.13248e-08
3.43578e-06
-1.85822e-08
3.43691e-06
2.95138e-08
3.43434e-06
5.29548e-08
3.41501e-06
8.55376e-08
8.14016e-08
3.41389e-06
3.55376e-06
-9.18035e-07
3.56677e-06
-5.30729e-08
3.60113e-06
9.00304e-07
3.58491e-06
-4.00697e-07
3.56645e-06
-5.16828e-07
3.556e-06
-1.77579e-07
3.59201e-06
5.24772e-07
3.59451e-06
2.78336e-07
3.60715e-06
4.57812e-09
3.59635e-06
-5.84945e-08
3.58424e-06
-2.42786e-07
3.57921e-06
-1.67399e-07
3.56944e-06
-1.4602e-07
3.55602e-06
-1.13504e-07
3.54896e-06
-3.42602e-08
3.54005e-06
-9.677e-09
3.53578e-06
3.3789e-08
3.53547e-06
5.32635e-08
3.54458e-06
7.64232e-08
8.04672e-08
3.54552e-06
3.68933e-06
-8.87977e-07
3.70246e-06
-6.62083e-08
3.73793e-06
8.64839e-07
3.72023e-06
-3.83004e-07
3.70314e-06
-4.99735e-07
3.69161e-06
-1.66051e-07
3.72768e-06
4.88705e-07
3.73071e-06
2.7531e-07
3.74195e-06
-6.66598e-09
3.73368e-06
-5.02243e-08
3.72003e-06
-2.29136e-07
3.7155e-06
-1.62871e-07
3.70849e-06
-1.39004e-07
3.69106e-06
-9.60772e-08
3.68369e-06
-2.68945e-08
3.67511e-06
-1.09025e-09
3.67041e-06
3.84845e-08
3.66939e-06
5.42798e-08
3.68065e-06
6.51653e-08
7.95858e-08
3.68153e-06
3.83021e-06
-8.57595e-07
3.84336e-06
-7.93557e-08
3.87983e-06
8.28365e-07
3.86071e-06
-3.6388e-07
3.84469e-06
-4.8372e-07
3.83292e-06
-1.54279e-07
3.86787e-06
4.53758e-07
3.87301e-06
2.70162e-07
3.88093e-06
-1.45823e-08
3.87762e-06
-4.69151e-08
3.85716e-06
-2.08673e-07
3.85728e-06
-1.62988e-07
3.84104e-06
-1.22774e-07
3.85015e-06
-1.05183e-07
3.84927e-06
-2.60189e-08
3.8505e-06
-2.31657e-09
3.85158e-06
3.7408e-08
3.84722e-06
5.86338e-08
3.82396e-06
8.84286e-08
8.16845e-08
3.82186e-06
3.97662e-06
-8.27059e-07
3.98954e-06
-9.22761e-08
4.02721e-06
7.90691e-07
4.00631e-06
-3.42981e-07
3.9918e-06
-4.69206e-07
3.97928e-06
-1.41764e-07
4.01446e-06
4.18586e-07
4.01872e-06
2.65902e-07
4.02804e-06
-2.3909e-08
4.02223e-06
-4.11035e-08
4.00924e-06
-1.9568e-07
4.00651e-06
-1.60255e-07
4.00085e-06
-1.17122e-07
3.97665e-06
-8.09734e-08
3.96868e-06
-1.8055e-08
3.96049e-06
5.87218e-09
3.95606e-06
4.18425e-08
3.95655e-06
5.81412e-08
3.96765e-06
7.7333e-08
8.03215e-08
3.96901e-06
4.1287e-06
-7.96473e-07
4.14128e-06
-1.04863e-07
4.17998e-06
7.51994e-07
4.1577e-06
-3.20699e-07
4.14414e-06
-4.55651e-07
4.13183e-06
-1.29451e-07
4.1658e-06
3.84617e-07
4.17094e-06
2.60762e-07
4.1796e-06
-3.25673e-08
4.17391e-06
-3.5418e-08
4.16208e-06
-1.83853e-07
4.14557e-06
-1.43745e-07
4.13667e-06
-1.08217e-07
4.1259e-06
-7.0202e-08
4.11974e-06
-1.1897e-08
4.11163e-06
1.3986e-08
4.10707e-06
4.64032e-08
4.10668e-06
5.85321e-08
4.11974e-06
6.4273e-08
7.92673e-08
4.12079e-06
4.28665e-06
-7.65935e-07
4.2988e-06
-1.17012e-07
4.33828e-06
7.12508e-07
4.3152e-06
-2.97616e-07
4.30175e-06
-4.42197e-07
4.29116e-06
-1.18861e-07
4.32131e-06
3.54467e-07
4.33074e-06
2.51334e-07
4.3342e-06
-3.6032e-08
4.33459e-06
-3.58104e-08
4.31198e-06
-1.61237e-07
4.32049e-06
-1.52256e-07
4.31515e-06
-1.02878e-07
4.31305e-06
-6.81076e-08
4.31077e-06
-9.60815e-09
4.3142e-06
1.05475e-08
4.31585e-06
4.47526e-08
4.30881e-06
6.558e-08
4.28138e-06
9.1697e-08
8.35211e-08
4.27713e-06
4.45073e-06
-7.35584e-07
4.46209e-06
-1.28363e-07
4.50271e-06
6.7188e-07
4.47842e-06
-2.73327e-07
4.46599e-06
-4.2976e-07
4.45528e-06
-1.08149e-07
4.486e-06
3.23741e-07
4.49207e-06
2.45264e-07
4.49976e-06
-4.37201e-08
4.49431e-06
-3.03595e-08
4.48459e-06
-1.51523e-07
4.4661e-06
-1.33766e-07
4.4587e-06
-9.54716e-08
4.44467e-06
-5.40767e-08
4.43911e-06
-4.05648e-09
4.43138e-06
1.82803e-08
4.42791e-06
4.82228e-08
4.42868e-06
6.48077e-08
4.44096e-06
7.94205e-08
8.25444e-08
4.44194e-06
4.62108e-06
-7.05455e-07
4.63167e-06
-1.38955e-07
4.67292e-06
6.30633e-07
4.64842e-06
-2.48827e-07
4.63568e-06
-4.17019e-07
4.62714e-06
-9.96146e-08
4.65435e-06
2.96531e-07
4.66241e-06
2.37211e-07
4.66829e-06
-4.96017e-08
4.66194e-06
-2.40161e-08
4.64507e-06
-1.34644e-07
4.63477e-06
-1.23471e-07
4.63021e-06
-9.09137e-08
4.61312e-06
-3.6987e-08
4.60857e-06
4.92782e-10
4.60097e-06
2.58881e-08
4.5974e-06
5.17902e-08
4.59731e-06
6.49019e-08
4.61121e-06
6.55133e-08
8.20985e-08
4.61166e-06
4.79792e-06
-6.7559e-07
4.80776e-06
-1.48794e-07
4.84919e-06
5.89202e-07
4.82546e-06
-2.25091e-07
4.81072e-06
-4.02283e-07
4.80799e-06
-9.68785e-08
4.82627e-06
2.78242e-07
4.843e-06
2.20484e-07
4.83718e-06
-4.37864e-08
4.84734e-06
-3.41761e-08
4.81802e-06
-1.05321e-07
4.81352e-06
-1.1897e-07
4.80741e-06
-8.48021e-08
4.8254e-06
-5.49786e-08
4.82858e-06
-2.68595e-09
4.83369e-06
2.07759e-08
4.83517e-06
5.03105e-08
4.82524e-06
7.48346e-08
4.79386e-06
9.68942e-08
8.98946e-08
4.78606e-06
4.98162e-06
-6.46142e-07
4.99022e-06
-1.5739e-07
5.03238e-06
5.47041e-07
5.00854e-06
-2.0125e-07
4.99449e-06
-3.88237e-07
4.99044e-06
-9.28242e-08
5.01192e-06
2.56761e-07
5.02207e-06
2.1033e-07
5.02072e-06
-4.24345e-08
5.02109e-06
-3.45462e-08
5.00272e-06
-8.6954e-08
4.99239e-06
-1.08632e-07
4.98445e-06
-7.68677e-08
4.97367e-06
-4.4194e-08
4.9666e-06
4.38442e-09
4.96203e-06
2.53401e-08
4.95639e-06
5.59512e-08
4.95639e-06
7.48417e-08
4.97106e-06
8.22183e-08
9.02143e-08
4.97074e-06
5.17225e-06
-6.17074e-07
5.18004e-06
-1.65181e-07
5.2219e-06
5.05177e-07
5.19937e-06
-1.78718e-07
5.18427e-06
-3.73142e-07
5.1808e-06
-8.93566e-08
5.20396e-06
2.3361e-07
5.20857e-06
2.05716e-07
5.21221e-06
-4.6079e-08
5.20804e-06
-3.03732e-08
5.19462e-06
-7.35342e-08
5.17856e-06
-9.25698e-08
5.17391e-06
-7.22204e-08
5.16335e-06
-3.36313e-08
5.15805e-06
9.67984e-09
5.15109e-06
3.2306e-08
5.15272e-06
5.43188e-08
5.1547e-06
7.28614e-08
5.15878e-06
7.81386e-08
8.75514e-08
5.16144e-06
5.37016e-06
-5.88454e-07
5.37709e-06
-1.7211e-07
5.41836e-06
4.63902e-07
5.39813e-06
-1.58488e-07
5.37989e-06
-3.54899e-07
5.37988e-06
-8.93511e-08
5.39979e-06
2.13701e-07
5.40602e-06
1.9949e-07
5.40388e-06
-4.39416e-08
5.40467e-06
-3.11629e-08
5.39041e-06
-5.92787e-08
5.37523e-06
-7.73903e-08
5.36874e-06
-6.57305e-08
5.36118e-06
-2.60659e-08
5.35577e-06
1.50915e-08
5.35022e-06
3.78575e-08
5.35207e-06
5.24697e-08
5.35492e-06
7.00024e-08
5.3557e-06
7.73603e-08
8.45156e-08
5.35874e-06
5.57563e-06
-5.60341e-07
5.58165e-06
-1.78132e-07
5.62225e-06
4.233e-07
5.60459e-06
-1.40825e-07
5.58392e-06
-3.3423e-07
5.58477e-06
-9.02013e-08
5.60395e-06
1.94522e-07
5.61021e-06
1.93231e-07
5.60548e-06
-3.92122e-08
5.6079e-06
-3.35848e-08
5.59421e-06
-4.55942e-08
5.5797e-06
-6.28798e-08
5.57193e-06
-5.79559e-08
5.56588e-06
-2.00176e-08
5.56134e-06
1.96356e-08
5.55662e-06
4.25743e-08
5.55656e-06
5.25248e-08
5.55743e-06
6.91344e-08
5.56037e-06
7.44245e-08
8.12337e-08
5.56365e-06
5.78887e-06
-5.32731e-07
5.79442e-06
-1.83685e-07
5.83352e-06
3.842e-07
5.82011e-06
-1.27411e-07
5.79597e-06
-3.10086e-07
5.79729e-06
-9.15292e-08
5.81531e-06
1.76505e-07
5.8223e-06
1.86242e-07
5.81533e-06
-3.22422e-08
5.81808e-06
-3.63304e-08
5.80611e-06
-3.36255e-08
5.79217e-06
-4.89462e-08
5.78329e-06
-4.90715e-08
5.77815e-06
-1.48789e-08
5.7747e-06
2.30855e-08
5.77066e-06
4.66106e-08
5.77007e-06
5.31194e-08
5.77219e-06
6.7017e-08
5.77304e-06
7.35672e-08
7.79262e-08
5.77635e-06
6.01025e-06
-5.05681e-07
6.01534e-06
-1.88774e-07
6.05281e-06
3.46731e-07
6.04329e-06
-1.17899e-07
6.01699e-06
-2.83781e-07
6.01717e-06
-9.17125e-08
6.03459e-06
1.59084e-07
6.04233e-06
1.7851e-07
6.03371e-06
-2.36232e-08
6.03604e-06
-3.86641e-08
6.02639e-06
-2.39705e-08
6.01265e-06
-3.52125e-08
6.00327e-06
-3.96905e-08
5.99842e-06
-1.00277e-08
5.99606e-06
2.54494e-08
5.9924e-06
5.02645e-08
5.98996e-06
5.55563e-08
5.98971e-06
6.72714e-08
5.99382e-06
6.94549e-08
7.4584e-08
5.99716e-06
6.24003e-06
-4.79213e-07
6.24481e-06
-1.93552e-07
6.2804e-06
3.11146e-07
6.27383e-06
-1.11331e-07
6.24701e-06
-2.56966e-07
6.2453e-06
-9.00027e-08
6.26216e-06
1.42231e-07
6.27053e-06
1.70132e-07
6.26104e-06
-1.4124e-08
6.26228e-06
-3.99126e-08
6.2549e-06
-1.65884e-08
6.24148e-06
-2.1794e-08
6.23199e-06
-3.01972e-08
6.22701e-06
-5.04275e-09
6.22527e-06
2.71821e-08
6.22258e-06
5.2961e-08
6.22108e-06
5.70557e-08
6.22382e-06
6.45284e-08
6.22328e-06
6.99907e-08
7.14668e-08
6.2264e-06
6.47857e-06
-4.53376e-07
6.483e-06
-1.97987e-07
6.51672e-06
2.77425e-07
6.51234e-06
-1.0695e-07
6.48633e-06
-2.30956e-07
6.48227e-06
-8.59418e-08
6.49854e-06
1.25959e-07
6.50735e-06
1.61326e-07
6.49746e-06
-4.23274e-09
6.49702e-06
-3.94786e-08
6.4919e-06
-1.14629e-08
6.47922e-06
-9.11592e-09
6.46978e-06
-2.07607e-08
6.46446e-06
2.76312e-10
6.46306e-06
2.85896e-08
6.46124e-06
5.47729e-08
6.45809e-06
6.02121e-08
6.45735e-06
6.52677e-08
6.46126e-06
6.60815e-08
6.84876e-08
6.46424e-06
6.72615e-06
-4.28188e-07
6.73027e-06
-2.02109e-07
6.76217e-06
2.45533e-07
6.75938e-06
-1.04167e-07
6.73516e-06
-2.06731e-07
6.72906e-06
-7.98409e-08
6.74401e-06
1.11009e-07
6.75308e-06
1.52255e-07
6.74323e-06
5.61289e-09
6.74097e-06
-3.7214e-08
6.73768e-06
-8.1742e-09
6.72614e-06
2.42906e-09
6.71658e-06
-1.12031e-08
6.71105e-06
5.8052e-09
6.7095e-06
3.01334e-08
6.70871e-06
5.55648e-08
6.70733e-06
6.15998e-08
6.70923e-06
6.33617e-08
6.70848e-06
6.68302e-08
6.56538e-08
6.71132e-06
6.98316e-06
-4.03694e-07
6.98681e-06
-2.05763e-07
7.0171e-06
2.15242e-07
7.01552e-06
-1.02587e-07
6.99394e-06
-1.8515e-07
6.98583e-06
-7.17311e-08
6.99901e-06
9.78257e-08
7.00821e-06
1.43054e-07
6.99864e-06
1.51881e-08
6.99443e-06
-3.30052e-08
6.9925e-06
-6.24384e-09
6.98248e-06
1.24476e-08
6.97289e-06
-1.61556e-09
6.96739e-06
1.13126e-08
6.9655e-06
3.20145e-08
6.96562e-06
5.54446e-08
6.96333e-06
6.38951e-08
6.96215e-06
6.45422e-08
6.96497e-06
6.40083e-08
6.29942e-08
6.96763e-06
7.2499e-06
-3.79901e-07
7.25294e-06
-2.0881e-07
7.28193e-06
1.86261e-07
7.28117e-06
-1.01828e-07
7.26409e-06
-1.68069e-07
7.25298e-06
-6.06259e-08
7.26394e-06
8.68683e-08
7.27297e-06
1.34026e-07
7.26393e-06
2.42213e-08
7.25805e-06
-2.71236e-08
7.25689e-06
-5.08484e-09
7.24856e-06
2.07764e-08
7.23904e-06
7.90848e-09
7.23363e-06
1.67232e-08
7.23117e-06
3.44693e-08
7.23179e-06
5.48247e-08
7.23105e-06
6.46433e-08
7.23253e-06
6.30614e-08
7.23138e-06
6.51518e-08
6.06938e-08
7.23368e-06
7.52677e-06
-3.5684e-07
7.52916e-06
-2.11203e-07
7.55678e-06
1.58643e-07
7.55688e-06
-1.0193e-07
7.54312e-06
-1.54305e-07
7.52972e-06
-4.72274e-08
7.53934e-06
7.72444e-08
7.54783e-06
1.25536e-07
7.53939e-06
3.26653e-08
7.53212e-06
-1.98557e-08
7.53112e-06
-4.07877e-09
7.52467e-06
2.7225e-08
7.51534e-06
1.72371e-08
7.5101e-06
2.19619e-08
7.50723e-06
3.73407e-08
7.50811e-06
5.39395e-08
7.50713e-06
6.56291e-08
7.50609e-06
6.40997e-08
7.50808e-06
6.31664e-08
5.89794e-08
7.50979e-06
7.81407e-06
-3.34454e-07
7.81639e-06
-2.13528e-07
7.84158e-06
1.33453e-07
7.84354e-06
-1.03884e-07
7.82564e-06
-1.36403e-07
7.81543e-06
-3.70209e-08
7.82597e-06
6.67049e-08
7.83314e-06
1.1836e-07
7.8254e-06
4.04079e-08
7.8172e-06
-1.16486e-08
7.81575e-06
-2.63729e-09
7.81111e-06
3.18686e-08
7.80215e-06
2.6201e-08
7.79712e-06
2.69899e-08
7.79401e-06
4.04527e-08
7.79477e-06
5.31791e-08
7.79488e-06
6.55197e-08
7.79647e-06
6.2501e-08
7.79521e-06
6.44263e-08
5.78891e-08
7.7963e-06
8.11225e-06
-3.12742e-07
8.11448e-06
-2.15762e-07
8.13669e-06
1.1124e-07
8.14164e-06
-1.08826e-07
8.13196e-06
-1.26728e-07
8.13219e-06
-3.72468e-08
8.12659e-06
7.22999e-08
8.1288e-06
1.16155e-07
8.12225e-06
4.69583e-08
8.11363e-06
-3.03505e-09
8.11125e-06
-2.53844e-10
8.10836e-06
3.47619e-08
8.10002e-06
3.45388e-08
8.09517e-06
3.18427e-08
8.09191e-06
4.37056e-08
8.09219e-06
5.29078e-08
8.09221e-06
6.54909e-08
8.09149e-06
6.32237e-08
8.09337e-06
6.25483e-08
5.73457e-08
8.09391e-06
8.42179e-06
-2.91766e-07
8.42305e-06
-2.17026e-07
8.44486e-06
8.94313e-08
8.44837e-06
-1.12338e-07
8.43927e-06
-1.17633e-07
8.42458e-06
-2.25558e-08
8.42983e-06
6.70551e-08
8.43637e-06
1.09611e-07
8.43069e-06
5.26444e-08
8.4217e-06
5.95377e-09
8.41819e-06
3.25579e-09
8.4166e-06
3.63506e-08
8.40918e-06
4.19568e-08
8.40434e-06
3.66828e-08
8.40119e-06
4.68528e-08
8.40107e-06
5.30349e-08