/*--------------------------------*- C++ -*----------------------------------*\
| =========                 |                                                 |
| \\      /  F ield         | OpenFOAM: The Open Source CFD Toolbox           |
|  \\    /   O peration     | Version:  v2012                                 |
|   \\  /    A nd           | Website:  www.openfoam.com                      |
|    \\/     M anipulation  |                                                 |
\*---------------------------------------------------------------------------*/
FoamFile
{
    version     2.0;
    format      ascii;
    class       surfaceScalarField;
    location    "8.3";
    object      phi;
}
// * * * * * * * * * * * * * * * * * * * * * * * * * * * * * * * * * * * * * //

dimensions      [0 3 -1 0 0 0 0];
oriented        oriented;


internalField   nonuniform List<scalar> 
13830
(
9.40996e-07
-1.19173e-06
1.05297e-06
-1.56875e-06
1.05496e-06
5.1256e-07
9.28614e-07
2.34589e-06
9.90206e-07
-1.334e-06
9.90138e-07
-1.36196e-06
9.66995e-07
-1.55603e-06
9.96336e-07
-5.59851e-07
1.00242e-06
-5.19043e-07
9.67669e-07
-8.76871e-09
9.8648e-07
2.08771e-08
9.71394e-07
-1.63527e-07
9.85814e-07
-1.16383e-07
9.82116e-07
-6.16587e-08
9.84312e-07
-3.11404e-08
9.83459e-07
2.39008e-08
9.79952e-07
4.97209e-08
9.78525e-07
9.21956e-08
9.72529e-07
9.27926e-08
1.1227e-07
9.61557e-07
9.79935e-07
-1.19914e-06
1.08772e-06
-1.67653e-06
1.08981e-06
5.10469e-07
1.0009e-06
2.4348e-06
1.04297e-06
-1.37607e-06
1.03575e-06
-1.35474e-06
1.01721e-06
-1.53749e-06
1.04069e-06
-5.83328e-07
1.04847e-06
-5.26819e-07
1.01696e-06
2.27372e-08
1.03054e-06
7.30157e-09
1.01829e-06
-1.51279e-07
1.02805e-06
-1.26143e-07
1.02758e-06
-6.1191e-08
1.02371e-06
-2.72735e-08
1.02849e-06
1.9128e-08
1.01541e-06
6.28011e-08
1.02337e-06
8.42331e-08
1.0031e-06
1.1306e-07
1.02523e-07
1.01285e-06
1.01754e-06
-1.20723e-06
1.11862e-06
-1.77761e-06
1.12332e-06
5.05769e-07
1.07025e-06
2.48786e-06
1.08873e-06
-1.39454e-06
1.0779e-06
-1.34391e-06
1.05946e-06
-1.51905e-06
1.08426e-06
-6.08125e-07
1.09269e-06
-5.35246e-07
1.07433e-06
4.10964e-08
1.07762e-06
4.00432e-09
1.07361e-06
-1.4726e-07
1.07189e-06
-1.24422e-07
1.07986e-06
-6.91675e-08
1.06591e-06
-1.33218e-08
1.07626e-06
8.77775e-09
1.05694e-06
8.21205e-08
1.0646e-06
7.65743e-08
1.04633e-06
1.31333e-07
1.00825e-07
1.04802e-06
1.05191e-06
-1.21136e-06
1.14641e-06
-1.87211e-06
1.15871e-06
4.93473e-07
1.13528e-06
2.51129e-06
1.12973e-06
-1.38899e-06
1.11471e-06
-1.32889e-06
1.09415e-06
-1.4985e-06
1.12241e-06
-6.36386e-07
1.13243e-06
-5.45259e-07
1.12872e-06
4.48039e-08
1.12483e-06
7.8903e-09
1.1256e-06
-1.48026e-07
1.11686e-06
-1.15688e-07
1.12748e-06
-7.97861e-08
1.11219e-06
1.97362e-09
1.1204e-06
5.63162e-10
1.10443e-06
9.80915e-08
1.10651e-06
7.44987e-08
1.09397e-06
1.43874e-07
1.04427e-07
1.09036e-06
1.08346e-06
-1.20726e-06
1.17244e-06
-1.9611e-06
1.19933e-06
4.66579e-07
1.19631e-06
2.51431e-06
1.16805e-06
-1.36073e-06
1.14624e-06
-1.30708e-06
1.12427e-06
-1.47652e-06
1.15523e-06
-6.67353e-07
1.16852e-06
-5.58542e-07
1.17658e-06
3.67401e-08
1.17086e-06
1.36126e-08
1.17161e-06
-1.48774e-07
1.16128e-06
-1.05358e-07
1.17061e-06
-8.91207e-08
1.15876e-06
1.38199e-08
1.16389e-06
-4.56322e-09
1.15258e-06
1.094e-07
1.1516e-06
7.54782e-08
1.14248e-06
1.52996e-07
1.09841e-07
1.13707e-06
1.11432e-06
-1.19274e-06
1.1989e-06
-2.04567e-06
1.24654e-06
4.18937e-07
1.25481e-06
2.50605e-06
1.20654e-06
-1.31246e-06
1.17558e-06
-1.27612e-06
1.15429e-06
-1.45524e-06
1.18589e-06
-6.9895e-07
1.20308e-06
-5.75732e-07
1.21951e-06
2.03092e-08
1.21544e-06
1.76859e-08
1.21369e-06
-1.4703e-07
1.20374e-06
-9.54032e-08
1.2114e-06
-9.67836e-08
1.2028e-06
2.24187e-08
1.2069e-06
-8.6591e-09
1.19877e-06
1.17524e-07
1.19749e-06
7.6764e-08
1.19047e-06
1.60017e-07
1.15233e-07
1.18507e-06
1.14738e-06
-1.16842e-06
1.22775e-06
-2.12605e-06
1.29867e-06
3.4802e-07
1.31132e-06
2.4934e-06
1.24663e-06
-1.24778e-06
1.2064e-06
-1.23588e-06
1.18735e-06
-1.43619e-06
1.21779e-06
-7.29386e-07
1.23746e-06
-5.95402e-07
1.25999e-06
-2.22187e-09
1.25821e-06
1.9465e-08
1.25383e-06
-1.42649e-07
1.24364e-06
-8.52207e-08
1.25058e-06
-1.03724e-07
1.24379e-06
2.92158e-08
1.24846e-06
-1.33366e-08
1.24273e-06
1.23262e-07
1.24242e-06
7.70672e-08
1.23744e-06
1.65003e-07
1.1977e-07
1.2329e-06
1.18508e-06
-1.13732e-06
1.25997e-06
-2.20094e-06
1.35175e-06
2.56245e-07
1.36503e-06
2.48012e-06
1.28807e-06
-1.17082e-06
1.24115e-06
-1.18897e-06
1.22439e-06
-1.41942e-06
1.25265e-06
-7.57647e-07
1.27213e-06
-6.14882e-07
1.2992e-06
-2.92916e-08
1.29889e-06
1.97693e-08
1.29274e-06
-1.36498e-07
1.28131e-06
-7.37895e-08
1.28813e-06
-1.10542e-07
1.28239e-06
3.49519e-08
1.28813e-06
-1.90703e-08
1.28483e-06
1.26561e-07
1.28586e-06
7.60369e-08
1.28326e-06
1.67599e-07
1.2308e-07
1.27995e-06
1.2286e-06
-1.10356e-06
1.29537e-06
-2.26771e-06
1.4012e-06
1.50419e-07
1.41426e-06
2.46705e-06
1.32975e-06
-1.08631e-06
1.28049e-06
-1.1397e-06
1.26505e-06
-1.40399e-06
1.29053e-06
-7.83128e-07
1.3073e-06
-6.31654e-07
1.3373e-06
-5.92879e-08
1.33753e-06
1.95367e-08
1.33069e-06
-1.29655e-07
1.31753e-06
-6.06325e-08
1.32417e-06
-1.17183e-07
1.31939e-06
3.97316e-08
1.32593e-06
-2.56076e-08
1.32529e-06
1.27201e-07
1.32757e-06
7.37581e-08
1.3276e-06
1.67562e-07
1.25016e-07
1.32567e-06
1.27771e-06
-1.07099e-06
1.33314e-06
-2.32315e-06
1.44365e-06
3.9913e-08
1.45759e-06
2.45311e-06
1.3709e-06
-9.99618e-07
1.32382e-06
-1.09263e-06
1.3087e-06
-1.38887e-06
1.33086e-06
-8.05285e-07
1.3433e-06
-6.44094e-07
1.37436e-06
-9.03454e-08
1.37455e-06
1.93407e-08
1.3681e-06
-1.23203e-07
1.35329e-06
-4.58254e-08
1.35935e-06
-1.23233e-07
1.35552e-06
4.35567e-08
1.36225e-06
-3.23371e-08
1.36418e-06
1.25266e-07
1.36734e-06
7.06012e-08
1.36988e-06
1.65025e-07
1.25632e-07
1.36926e-06
1.33131e-06
-1.04229e-06
1.37255e-06
-2.36438e-06
1.47807e-06
-6.56077e-08
1.49481e-06
2.43637e-06
1.41163e-06
-9.16433e-07
1.37028e-06
-1.05128e-06
1.35492e-06
-1.37351e-06
1.37331e-06
-8.23675e-07
1.38071e-06
-6.51494e-07
1.41092e-06
-1.2056e-07
1.41083e-06
1.94356e-08
1.40578e-06
-1.18154e-07
1.38974e-06
-2.97898e-08
1.39472e-06
-1.28214e-07
1.39168e-06
4.65978e-08
1.39781e-06
-3.84685e-08
1.40181e-06
1.2127e-07
1.40524e-06
6.71737e-08
1.40972e-06
1.60543e-07
1.25205e-07
1.41015e-06
1.38806e-06
-1.0187e-06
1.41341e-06
-2.38973e-06
1.50599e-06
-1.58182e-07
1.52745e-06
2.41491e-06
1.45291e-06
-8.4189e-07
1.41926e-06
-1.01763e-06
1.40352e-06
-1.35777e-06
1.41803e-06
-8.38184e-07
1.42036e-06
-6.53828e-07
1.44811e-06
-1.48303e-07
1.44763e-06
1.99159e-08
1.44474e-06
-1.15268e-07
1.42809e-06
-1.31423e-08
1.4316e-06
-1.31724e-07
1.42902e-06
4.91799e-08
1.43372e-06
-4.3167e-08
1.43895e-06
1.16043e-07
1.4419e-06
6.4219e-08
1.44749e-06
1.54959e-07
1.24182e-07
1.44851e-06
1.44683e-06
-1.00028e-06
1.45622e-06
-2.39911e-06
1.53094e-06
-2.32908e-07
1.55843e-06
2.38742e-06
1.4961e-06
-7.7956e-07
1.47058e-06
-9.92112e-07
1.45445e-06
-1.34164e-06
1.46538e-06
-8.49115e-07
1.46311e-06
-6.5156e-07
1.4873e-06
-1.72494e-07
1.4864e-06
2.08244e-08
1.48599e-06
-1.14863e-07
1.46944e-06
3.40979e-09
1.47121e-06
-1.33499e-07
1.46876e-06
5.16336e-08
1.4713e-06
-4.5707e-08
1.47685e-06
1.10492e-07
1.47865e-06
6.24225e-08
1.48443e-06
1.49176e-07
1.23065e-07
1.48555e-06
1.50691e-06
-9.86318e-07
1.50183e-06
-2.39403e-06
1.55732e-06
-2.88402e-07
1.59127e-06
2.35347e-06
1.54248e-06
-7.30765e-07
1.52431e-06
-9.73948e-07
1.50765e-06
-1.32498e-06
1.51562e-06
-8.57087e-07
1.50955e-06
-6.45493e-07
1.5298e-06
-1.92736e-07
1.52843e-06
2.21864e-08
1.53034e-06
-1.16764e-07
1.51456e-06
1.91826e-08
1.51449e-06
-1.33424e-07
1.51197e-06
5.41467e-08
1.51188e-06
-4.56094e-08
1.51702e-06
1.05347e-07
1.5172e-06
6.22408e-08
1.52244e-06
1.43937e-07
1.22268e-07
1.52324e-06
1.568e-06
-9.75703e-07
1.55109e-06
-2.37712e-06
1.58903e-06
-3.26347e-07
1.62907e-06
2.31343e-06
1.59288e-06
-6.94569e-07
1.58058e-06
-9.6165e-07
1.56305e-06
-1.30745e-06
1.56879e-06
-8.62823e-07
1.5599e-06
-6.36604e-07
1.57644e-06
-2.09278e-07
1.57464e-06
2.39855e-08
1.5783e-06
-1.20421e-07
1.56387e-06
3.36077e-08
1.56196e-06
-1.31515e-07
1.55941e-06
5.67022e-08
1.55655e-06
-4.27473e-08
1.56085e-06
1.01041e-07
1.55928e-06
6.38072e-08
1.56354e-06
1.39685e-07
1.22034e-07
1.56377e-06
1.63012e-06
-9.67282e-07
1.60454e-06
-2.35154e-06
1.62855e-06
-3.50362e-07
1.67373e-06
2.26825e-06
1.64758e-06
-6.68417e-07
1.63943e-06
-9.53496e-07
1.6206e-06
-1.28862e-06
1.62475e-06
-8.6697e-07
1.61402e-06
-6.25877e-07
1.62756e-06
-2.2282e-07
1.62543e-06
2.61153e-08
1.63012e-06
-1.25112e-07
1.61746e-06
4.62718e-08
1.61381e-06
-1.27867e-07
1.61139e-06
5.91217e-08
1.60598e-06
-3.73325e-08
1.60931e-06
9.77068e-08
1.60617e-06
6.6953e-08
1.60929e-06
1.3656e-07
1.22418e-07
1.60891e-06
1.69352e-06
-9.60053e-07
1.66231e-06
-2.32033e-06
1.67664e-06
-3.64683e-07
1.72577e-06
2.21911e-06
1.70643e-06
-6.49079e-07
1.70084e-06
-9.479e-07
1.68032e-06
-1.2681e-06
1.68336e-06
-8.70008e-07
1.67165e-06
-6.14171e-07
1.68307e-06
-2.34242e-07
1.68085e-06
2.83408e-08
1.68588e-06
-1.30141e-07
1.67525e-06
5.68977e-08
1.66998e-06
-1.22594e-07
1.66797e-06
6.11334e-08
1.66041e-06
-2.97799e-08
1.66285e-06
9.52682e-08
1.65849e-06
7.1311e-08
1.66058e-06
1.34476e-07
1.23335e-07
1.65966e-06
1.75851e-06
-9.53245e-07
1.72423e-06
-2.28605e-06
1.73267e-06
-3.73123e-07
1.78464e-06
2.16714e-06
1.76905e-06
-6.3349e-07
1.76475e-06
-9.43607e-07
1.74231e-06
-1.24566e-06
1.74455e-06
-8.72245e-07
1.73254e-06
-6.02157e-07
1.74267e-06
-2.44375e-07
1.74071e-06
3.02998e-08
1.74552e-06
-1.34951e-07
1.73713e-06
6.52903e-08
1.73034e-06
-1.15806e-07
1.72898e-06
6.24959e-08
1.71978e-06
-2.05874e-08
1.72148e-06
9.35681e-08
1.71635e-06
7.64426e-08
1.7176e-06
1.33234e-07
1.24629e-07
1.7163e-06
1.82542e-06
-9.46325e-07
1.78994e-06
-2.25058e-06
1.79535e-06
-3.78534e-07
1.84925e-06
2.11325e-06
1.835e-06
-6.19239e-07
1.83115e-06
-9.39758e-07
1.80676e-06
-1.22127e-06
1.80836e-06
-8.73852e-07
1.79653e-06
-5.90327e-07
1.80601e-06
-2.53857e-07
1.80477e-06
3.15471e-08
1.80897e-06
-1.39151e-07
1.80295e-06
7.13134e-08
1.79476e-06
-1.07618e-07
1.7942e-06
6.3055e-08
1.78387e-06
-1.02621e-08
1.78497e-06
9.24674e-08
1.77948e-06
8.19387e-08
1.78009e-06
1.3262e-07
1.26138e-07
1.77858e-06
1.89452e-06
-9.38947e-07
1.85908e-06
-2.21514e-06
1.86328e-06
-3.82732e-07
1.91848e-06
2.05805e-06
1.90395e-06
-6.04714e-07
1.90005e-06
-9.35852e-07
1.87386e-06
-1.19508e-06
1.87492e-06
-8.7491e-07
1.86362e-06
-5.7903e-07
1.87284e-06
-2.6307e-07
1.87276e-06
3.16192e-08
1.87609e-06
-1.42483e-07
1.87252e-06
7.48888e-08
1.86309e-06
-9.81882e-08
1.86339e-06
6.27583e-08
1.8524e-06
7.21029e-10
1.85299e-06
9.18842e-08
1.84745e-06
8.74719e-08
1.84762e-06
1.32458e-07
1.27729e-07
1.84602e-06
1.96606e-06
-9.30902e-07
1.93133e-06
-2.18041e-06
1.93528e-06
-3.86674e-07
1.99141e-06
2.00192e-06
1.97571e-06
-5.89014e-07
1.97153e-06
-9.31672e-07
1.94387e-06
-1.16742e-06
1.94439e-06
-8.7543e-07
1.93387e-06
-5.6851e-07
1.94294e-06
-2.72144e-07
1.94445e-06
3.01089e-08
1.94675e-06
-1.44778e-07
1.94565e-06
7.59859e-08
1.93517e-06
-8.77143e-08
1.93629e-06
6.16476e-08
1.92507e-06
1.19332e-08
1.92518e-06
9.17793e-08
1.91983e-06
9.28166e-08
1.91967e-06
1.3262e-07
1.29317e-07
1.91808e-06
2.04022e-06
-9.2207e-07
2.0065e-06
-2.14669e-06
2.01055e-06
-3.90723e-07
2.06744e-06
1.94502e-06
2.0502e-06
-5.71775e-07
2.04573e-06
-9.27198e-07
2.017e-06
-1.1387e-06
2.01694e-06
-8.75367e-07
2.00736e-06
-5.58933e-07
2.01619e-06
-2.80975e-07
2.01957e-06
2.67335e-08
2.02075e-06
-1.45959e-07
2.02209e-06
7.46473e-08
2.0108e-06
-7.64309e-08
2.01261e-06
5.98413e-08
2.00155e-06
2.29952e-08
2.00119e-06
9.21426e-08
1.99618e-06
9.78255e-08
1.99578e-06
1.33021e-07
1.30857e-07
1.99424e-06
2.11716e-06
-9.12386e-07
2.08449e-06
-2.11402e-06
2.08865e-06
-3.94886e-07
2.14626e-06
1.88741e-06
2.12748e-06
-5.52995e-07
2.1228e-06
-9.22522e-07
2.09347e-06
-1.10937e-06
2.09272e-06
-8.7461e-07
2.0842e-06
-5.50422e-07
2.0925e-06
-2.89267e-07
2.09788e-06
2.13538e-08
2.09793e-06
-1.46014e-07
2.10154e-06
7.10332e-08
2.08973e-06
-6.46176e-08
2.09205e-06
5.75179e-08
2.08148e-06
3.35714e-08
2.08064e-06
9.29774e-08
2.07605e-06
1.02416e-07
2.07549e-06
1.33581e-07
1.32338e-07
2.07401e-06
2.19701e-06
-9.01817e-07
2.16533e-06
-2.08234e-06
2.16946e-06
-3.99015e-07
2.2278e-06
1.82907e-06
2.20768e-06
-5.3287e-07
2.20292e-06
-9.1777e-07
2.17346e-06
-1.0799e-06
2.17182e-06
-8.72973e-07
2.16447e-06
-5.43072e-07
2.17182e-06
-2.96617e-07
2.17917e-06
1.40072e-08
2.1781e-06
-1.44949e-07
2.18372e-06
6.54114e-08
2.1717e-06
-5.25909e-08
2.17432e-06
5.49e-08
2.16451e-06
4.33743e-08
2.16323e-06
9.42625e-08
2.15905e-06
1.06591e-07
2.15846e-06
1.34176e-07
1.33757e-07
2.15704e-06
2.27993e-06
-8.90349e-07
2.24914e-06
-2.05155e-06
2.25306e-06
-4.02935e-07
2.31216e-06
1.76997e-06
2.29098e-06
-5.11688e-07
2.28626e-06
-9.13051e-07
2.25708e-06
-1.05072e-06
2.25431e-06
-8.70195e-07
2.24819e-06
-5.36952e-07
2.25419e-06
-3.0262e-07
2.26328e-06
4.91938e-09
2.26114e-06
-1.42813e-07
2.26839e-06
5.81619e-08
2.2565e-06
-4.07038e-08
2.25916e-06
5.22426e-08
2.25036e-06
5.21788e-08
2.24868e-06
9.59388e-08
2.24482e-06
1.10449e-07
2.24441e-06
1.34592e-07
1.35088e-07
2.24307e-06
2.36602e-06
-8.77981e-07
2.33605e-06
-2.02158e-06
2.33961e-06
-4.065e-07
2.3995e-06
1.71007e-06
2.37759e-06
-4.89777e-07
2.37297e-06
-9.08427e-07
2.34445e-06
-1.02221e-06
2.34022e-06
-8.65959e-07
2.33534e-06
-5.32079e-07
2.33966e-06
-3.06941e-07
2.35014e-06
-5.55695e-09
2.34703e-06
-1.39704e-07
2.35543e-06
4.97618e-08
2.34404e-06
-2.93137e-08
2.3465e-06
4.97873e-08
2.33884e-06
5.98346e-08
2.33673e-06
9.80472e-08
2.33305e-06
1.14131e-07
2.33321e-06
1.34436e-07
1.36272e-07
2.33202e-06
2.45542e-06
-8.64726e-07
2.42618e-06
-1.99234e-06
2.42928e-06
-4.096e-07
2.48998e-06
1.64938e-06
2.46769e-06
-4.67492e-07
2.46316e-06
-9.03897e-07
2.43562e-06
-9.94669e-07
2.4296e-06
-8.59931e-07
2.42592e-06
-5.28403e-07
2.42836e-06
-3.09386e-07
2.43977e-06
-1.69588e-08
2.43587e-06
-1.35806e-07
2.44488e-06
4.07533e-08
2.43431e-06
-1.87453e-08
2.43636e-06
4.77381e-08
2.43e-06
6.61887e-08
2.42683e-06
1.01221e-07
2.42341e-06
1.17554e-07
2.42486e-06
1.32981e-07
1.37233e-07
2.4239e-06
2.54828e-06
-8.5061e-07
2.51966e-06
-1.96372e-06
2.5222e-06
-4.12141e-07
2.58373e-06
1.58786e-06
2.56146e-06
-4.45225e-07
2.55696e-06
-8.99401e-07
2.53064e-06
-9.68349e-07
2.52251e-06
-8.51796e-07
2.51992e-06
-5.25817e-07
2.52045e-06
-3.09913e-07
2.53226e-06
-2.87721e-08
2.5278e-06
-1.31342e-07
2.53694e-06
3.16157e-08
2.52734e-06
-9.15133e-09
2.52891e-06
4.61664e-08
2.52397e-06
7.11349e-08
2.52498e-06
1.00209e-07
2.52452e-06
1.1801e-07
2.51947e-06
1.38029e-07
1.37906e-07
2.5188e-06
2.64475e-06
-8.35677e-07
2.61658e-06
-1.93555e-06
2.61848e-06
-4.14041e-07
2.68086e-06
1.52548e-06
2.65902e-06
-4.23385e-07
2.65444e-06
-8.94812e-07
2.62952e-06
-9.43438e-07
2.61902e-06
-8.41288e-07
2.6174e-06
-5.24205e-07
2.61608e-06
-3.08583e-07
2.62782e-06
-4.05167e-08
2.62305e-06
-1.2657e-07
2.63191e-06
2.27563e-08
2.62331e-06
-5.51808e-10
2.62485e-06
4.462e-08
2.61914e-06
7.68522e-08
2.61593e-06
1.03419e-07
2.61354e-06
1.20393e-07
2.61709e-06
1.34484e-07
1.38102e-07
2.61689e-06
2.74496e-06
-8.19985e-07
2.71704e-06
-1.90763e-06
2.71822e-06
-4.15224e-07
2.78152e-06
1.46218e-06
2.76051e-06
-4.0238e-07
2.75565e-06
-8.89952e-07
2.73225e-06
-9.20039e-07
2.71925e-06
-8.28287e-07
2.7184e-06
-5.23349e-07
2.71553e-06
-3.05716e-07
2.72657e-06
-5.1556e-08
2.72205e-06
-1.22053e-07
2.72991e-06
1.48945e-08
2.72278e-06
6.57987e-09
2.72391e-06
4.34958e-08
2.71826e-06
8.24993e-08
2.71453e-06
1.07145e-07
2.71217e-06
1.22761e-07
2.71815e-06
1.285e-07
1.38006e-07
2.71825e-06
2.84908e-06
-8.0361e-07
2.82117e-06
-1.87972e-06
2.82159e-06
-4.15641e-07
2.88582e-06
1.39795e-06
2.86602e-06
-3.82584e-07
2.86066e-06
-8.84589e-07
2.83882e-06
-8.98203e-07
2.82335e-06
-8.12815e-07
2.82298e-06
-5.22981e-07
2.81905e-06
-3.01785e-07
2.82873e-06
-6.12351e-08
2.82518e-06
-1.18506e-07
2.83123e-06
8.84776e-09
2.82597e-06
1.18364e-08
2.82771e-06
4.1764e-08
2.8298e-06
8.04042e-08
2.83177e-06
1.05175e-07
2.83147e-06
1.23064e-07
2.82285e-06
1.37112e-07
1.37897e-07
2.82296e-06
2.95727e-06
-7.86636e-07
2.92913e-06
-1.85158e-06
2.92876e-06
-4.15272e-07
2.99389e-06
1.33282e-06
2.97563e-06
-3.64327e-07
2.96949e-06
-8.78446e-07
2.94925e-06
-8.77959e-07
2.93145e-06
-7.95018e-07
2.9313e-06
-5.22833e-07
2.92673e-06
-2.97215e-07
2.93474e-06
-6.92456e-08
2.9324e-06
-1.16163e-07
2.93669e-06
4.55447e-09
2.93297e-06
1.55568e-08
2.92957e-06
4.51665e-08
2.92714e-06
8.28366e-08
2.92272e-06
1.09589e-07
2.92003e-06
1.25757e-07
2.93073e-06
1.26415e-07
1.37192e-07
2.93143e-06
3.06967e-06
-7.69145e-07
3.04108e-06
-1.82299e-06
3.03993e-06
-4.14123e-07
3.10587e-06
1.26688e-06
3.08942e-06
-3.47875e-07
3.08224e-06
-8.71269e-07
3.06354e-06
-8.59255e-07
3.04371e-06
-7.75183e-07
3.04349e-06
-5.22617e-07
3.03873e-06
-2.92455e-07
3.04507e-06
-7.55863e-08
3.04336e-06
-1.14456e-07
3.04719e-06
7.29858e-10
3.04448e-06
1.82657e-08
3.04641e-06
4.32336e-08
3.05216e-06
7.70844e-08
3.05481e-06
1.06945e-07
3.0546e-06
1.25968e-07
3.04249e-06
1.38518e-07
1.36142e-07
3.04354e-06
3.18643e-06
-7.51215e-07
3.15723e-06
-1.79379e-06
3.15534e-06
-4.1224e-07
3.22189e-06
1.20034e-06
3.20749e-06
-3.3348e-07
3.19899e-06
-8.62766e-07
3.18185e-06
-8.42121e-07
3.1602e-06
-7.53528e-07
3.15986e-06
-5.22284e-07
3.15491e-06
-2.87499e-07
3.16045e-06
-8.11268e-08
3.15756e-06
-1.11565e-07
3.16391e-06
-5.61894e-09
3.15941e-06
2.27655e-08
3.16108e-06
4.15562e-08
3.15157e-06
8.65972e-08
3.14805e-06
1.1047e-07
3.14785e-06
1.26169e-07
3.15726e-06
1.29102e-07
1.33438e-07
3.15997e-06
3.3077e-06
-7.32901e-07
3.27778e-06
-1.76387e-06
3.27523e-06
-4.09685e-07
3.34208e-06
1.13349e-06
3.32992e-06
-3.21324e-07
3.31996e-06
-8.52806e-07
3.30419e-06
-8.26354e-07
3.28127e-06
-7.30604e-07
3.2803e-06
-5.21318e-07
3.27612e-06
-2.83311e-07
3.27995e-06
-8.49618e-08
3.27754e-06
-1.09151e-07
3.28358e-06
-1.1666e-08
3.27355e-06
3.27948e-08
3.2699e-06
4.52137e-08
3.26891e-06
8.75852e-08
3.26724e-06
1.12139e-07
3.26628e-06
1.27124e-07
3.27723e-06
1.18155e-07
1.30348e-07
3.28032e-06
3.43363e-06
-7.14251e-07
3.40298e-06
-1.73322e-06
3.39983e-06
-4.06538e-07
3.46663e-06
1.06669e-06
3.45681e-06
-3.11506e-07
3.44542e-06
-8.41413e-07
3.43059e-06
-8.11524e-07
3.40731e-06
-7.07329e-07
3.40471e-06
-5.18709e-07
3.40293e-06
-2.8153e-07
3.40335e-06
-8.53873e-08
3.40321e-06
-1.09009e-07
3.40461e-06
-1.30633e-08
3.4102e-06
2.7196e-08
3.41074e-06
4.46806e-08
3.41668e-06
8.16409e-08
3.42175e-06
1.07069e-07
3.4209e-06
1.27977e-07
3.40291e-06
1.36145e-07
1.28563e-07
3.40469e-06
3.56439e-06
-6.95294e-07
3.53301e-06
-1.70184e-06
3.52944e-06
-4.02964e-07
3.5957e-06
1.00043e-06
3.58842e-06
-3.04227e-07
3.57536e-06
-8.28358e-07
3.56172e-06
-7.97877e-07
3.53777e-06
-6.83382e-07
3.53469e-06
-5.15625e-07
3.53268e-06
-2.79522e-07
3.53482e-06
-8.75336e-08
3.53055e-06
-1.04731e-07
3.53605e-06
-1.85709e-08
3.52749e-06
3.57621e-08
3.52258e-06
4.95855e-08
3.51945e-06
8.47733e-08
3.51869e-06
1.07828e-07
3.52028e-06
1.26384e-07
3.53094e-06
1.25493e-07
1.24848e-07
3.53465e-06
3.70012e-06
-6.7603e-07
3.66812e-06
-1.66984e-06
3.66427e-06
-3.99112e-07
3.72955e-06
9.35152e-07
3.72477e-06
-2.99444e-07
3.71028e-06
-8.13867e-07
3.69733e-06
-7.84925e-07
3.6736e-06
-6.59655e-07
3.66904e-06
-5.11065e-07
3.66839e-06
-2.78874e-07
3.67019e-06
-8.93364e-08
3.66567e-06
-1.00212e-07
3.67357e-06
-2.64643e-08
3.66179e-06
4.7537e-08
3.65625e-06
5.51242e-08
3.6529e-06
8.81299e-08
3.65181e-06
1.08914e-07
3.65336e-06
1.24836e-07
3.66571e-06
1.13139e-07
1.21458e-07
3.6691e-06
3.84102e-06
-6.56456e-07
3.80853e-06
-1.63735e-06
3.80456e-06
-3.95141e-07
3.86851e-06
8.71202e-07
3.86594e-06
-2.96878e-07
3.85063e-06
-7.98555e-07
3.83734e-06
-7.71641e-07
3.81552e-06
-6.37835e-07
3.80723e-06
-5.02772e-07
3.81102e-06
-2.8266e-07
3.80634e-06
-8.46624e-08
3.80599e-06
-9.98549e-08
3.8045e-06
-2.49769e-08
3.81995e-06
3.209e-08
3.82084e-06
5.42261e-08
3.82634e-06
8.26364e-08
3.83214e-06
1.03114e-07
3.83086e-06
1.26116e-07
3.8079e-06
1.36096e-07
1.21277e-07
3.80808e-06
3.98727e-06
-6.36574e-07
3.95438e-06
-1.60446e-06
3.95059e-06
-3.91352e-07
4.01264e-06
8.09146e-07
4.0125e-06
-2.96731e-07
3.99589e-06
-7.81955e-07
3.98347e-06
-7.59214e-07
3.96095e-06
-6.15317e-07
3.95421e-06
-4.96035e-07
3.95407e-06
-2.82515e-07
3.95848e-06
-8.90766e-08
3.95499e-06
-9.63674e-08
3.96169e-06
-3.16764e-08
3.94639e-06
4.73951e-08
3.93953e-06
6.10897e-08
3.93572e-06
8.64451e-08
3.93476e-06
1.04068e-07
3.93897e-06
1.21912e-07
3.95092e-06
1.24144e-07
1.18121e-07
3.95408e-06
4.13907e-06
-6.16363e-07
4.1059e-06
-1.57129e-06
4.10247e-06
-3.87927e-07
4.16246e-06
7.49158e-07
4.16428e-06
-2.98544e-07
4.14705e-06
-7.64726e-07
4.13454e-06
-7.46704e-07
4.11264e-06
-5.93425e-07
4.10572e-06
-4.89113e-07
4.10422e-06
-2.81017e-07
4.11084e-06
-9.56886e-08
4.09395e-06
-7.94777e-08
4.09639e-06
-3.41179e-08
4.09481e-06
4.89719e-08
4.08996e-06
6.59394e-08
4.08605e-06
9.03598e-08
4.08468e-06
1.05432e-07
4.08825e-06
1.18349e-07
4.10237e-06
1.10024e-07
1.15527e-07
4.10496e-06
4.29664e-06
-5.95817e-07
4.26331e-06
-1.53796e-06
4.26037e-06
-3.84984e-07
4.31831e-06
6.91211e-07
4.32131e-06
-3.01538e-07
4.30485e-06
-7.48265e-07
4.28991e-06
-7.31767e-07
4.27187e-06
-5.75384e-07
4.26007e-06
-4.77314e-07
4.26359e-06
-2.84533e-07
4.25906e-06
-9.11625e-08
4.26826e-06
-8.86746e-08
4.27239e-06
-3.82472e-08
4.28024e-06
4.11139e-08
4.28029e-06
6.58934e-08
4.28694e-06
8.37064e-08
4.29293e-06
9.94509e-08
4.2895e-06
1.21775e-07
4.26315e-06
1.36371e-07
1.18222e-07
4.26046e-06
4.46023e-06
-5.74961e-07
4.42669e-06
-1.50442e-06
4.42465e-06
-3.82941e-07
4.48004e-06
6.35819e-07
4.48465e-06
-3.06143e-07
4.4675e-06
-7.31122e-07
4.4537e-06
-7.17961e-07
4.43324e-06
-5.5493e-07
4.42585e-06
-4.69923e-07
4.42229e-06
-2.80976e-07
4.43216e-06
-1.01027e-07
4.41404e-06
-7.05516e-08
4.41433e-06
-3.85394e-08
4.41151e-06
4.3934e-08
4.40853e-06
6.88666e-08
4.40385e-06
8.83946e-08
4.40321e-06
1.0009e-07
4.40815e-06
1.16832e-07
4.42226e-06
1.22265e-07
1.16042e-07
4.42444e-06
4.63003e-06
-5.5378e-07
4.59639e-06
-1.47078e-06
4.59523e-06
-3.81786e-07
4.64845e-06
5.82603e-07
4.65357e-06
-3.11262e-07
4.63741e-06
-7.14969e-07
4.62177e-06
-7.02323e-07
4.60347e-06
-5.36622e-07
4.59426e-06
-4.60716e-07
4.58832e-06
-2.75037e-07
4.59191e-06
-1.04619e-07
4.58123e-06
-5.98715e-08
4.58446e-06
-4.17608e-08
4.57872e-06
4.96678e-08
4.57748e-06
7.01046e-08
4.57272e-06
9.31577e-08
4.57139e-06
1.01419e-07
4.57558e-06
1.1264e-07
4.59177e-06
1.06083e-07
1.14427e-07
4.59338e-06
4.80631e-06
-5.32302e-07
4.77261e-06
-1.43707e-06
4.77226e-06
-3.81445e-07
4.82381e-06
5.31055e-07
4.82805e-06
-3.15501e-07
4.81529e-06
-7.02204e-07
4.79404e-06
-6.8108e-07
4.78362e-06
-5.26201e-07
4.76327e-06
-4.40368e-07
4.77423e-06
-2.85988e-07
4.76351e-06
-9.39038e-08
4.76771e-06
-6.40686e-08
4.76693e-06
-4.09807e-08
4.79062e-06
2.59758e-08
4.79654e-06
6.41882e-08
4.80424e-06
8.54522e-08
4.80901e-06
9.66502e-08
4.80258e-06
1.19073e-07
4.77311e-06
1.35547e-07
1.20527e-07
4.76701e-06
4.98938e-06
-5.10607e-07
4.95542e-06
-1.40312e-06
4.95637e-06
-3.82393e-07
5.00539e-06
4.82029e-07
5.01052e-06
-3.20627e-07
4.99653e-06
-6.88217e-07
4.97854e-06
-6.63083e-07
4.96291e-06
-5.10579e-07
4.94753e-06
-4.24986e-07
4.94718e-06
-2.85641e-07
4.94644e-06
-9.31591e-08
4.93845e-06
-5.60815e-08
4.93613e-06
-3.86571e-08
4.93576e-06
2.63462e-08
4.93421e-06
6.5732e-08
4.93272e-06
8.69502e-08
4.92799e-06
1.01378e-07
4.93105e-06
1.16013e-07
4.94955e-06
1.17047e-07
1.19275e-07
4.9508e-06
5.17941e-06
-4.88702e-07
5.14535e-06
-1.36906e-06
5.14718e-06
-3.84228e-07
5.19457e-06
4.34638e-07
5.19926e-06
-3.25313e-07
5.18522e-06
-6.74179e-07
5.16956e-06
-6.47426e-07
5.14941e-06
-4.9042e-07
5.14042e-06
-4.15999e-07
5.13249e-06
-2.77711e-07
5.13718e-06
-9.78462e-08
5.12561e-06
-4.45138e-08
5.12429e-06
-3.73351e-08
5.12344e-06
2.71889e-08
5.12432e-06
6.48583e-08
5.12101e-06
9.02604e-08
5.12354e-06
9.88407e-08
5.13084e-06
1.08712e-07
5.13628e-06
1.11613e-07
1.15037e-07
5.14052e-06
5.37674e-06
-4.66665e-07
5.34257e-06
-1.33489e-06
5.34509e-06
-3.86745e-07
5.39142e-06
3.88306e-07
5.39446e-06
-3.28357e-07
5.38221e-06
-6.61928e-07
5.36511e-06
-6.30326e-07
5.34667e-06
-4.71979e-07
5.33322e-06
-4.02549e-07
5.32871e-06
-2.73199e-07
5.33098e-06
-1.00113e-07
5.32233e-06
-3.58643e-08
5.3184e-06
-3.34082e-08
5.31922e-06
2.63665e-08
5.32047e-06
6.36068e-08
5.31931e-06
9.14229e-08
5.32348e-06
9.46722e-08
5.32842e-06
1.03771e-07
5.33168e-06
1.0835e-07
1.0976e-07
5.33696e-06
5.58166e-06
-4.44583e-07
5.54726e-06
-1.30049e-06
5.55055e-06
-3.90028e-07
5.5957e-06
3.43155e-07
5.59759e-06
-3.30251e-07
5.58575e-06
-6.50082e-07
5.56874e-06
-6.13324e-07
5.55083e-06
-4.54069e-07
5.53536e-06
-3.87078e-07
5.53153e-06
-2.69362e-07
5.53339e-06
-1.0198e-07
5.52633e-06
-2.87973e-08
5.52096e-06
-2.80376e-08
5.52242e-06
2.49058e-08
5.52421e-06
6.1813e-08
5.52514e-06
9.04914e-08
5.52635e-06
9.34665e-08
5.52857e-06
1.01551e-07
5.53479e-06
1.02125e-07
1.03869e-07
5.54068e-06
5.7944e-06
-4.22504e-07
5.75993e-06
-1.26603e-06
5.7636e-06
-3.93692e-07
5.80819e-06
2.98561e-07
5.80839e-06
-3.30453e-07
5.79699e-06
-6.38678e-07
5.77977e-06
-5.96101e-07
5.76276e-06
-4.37065e-07
5.74579e-06
-3.7011e-07
5.74168e-06
-2.65251e-07
5.74367e-06
-1.03973e-07
5.73807e-06
-2.31911e-08
5.73204e-06
-2.20071e-08
5.73333e-06
2.36106e-08
5.73562e-06
5.95248e-08
5.73785e-06
8.82581e-08
5.73874e-06
9.25789e-08
5.74363e-06
9.66653e-08
5.74606e-06
9.96956e-08
9.79845e-08
5.75194e-06
6.01531e-06
-4.00511e-07
5.98074e-06
-1.23146e-06
5.98467e-06
-3.97619e-07
6.02879e-06
2.54441e-07
6.02753e-06
-3.29193e-07
6.01597e-06
-6.27117e-07
5.99873e-06
-5.78864e-07
5.98257e-06
-4.20906e-07
5.96481e-06
-3.52353e-07
5.9598e-06
-2.60235e-07
5.96211e-06
-1.06289e-07
5.95795e-06
-1.90302e-08
5.95158e-06
-1.56293e-08
5.95245e-06
2.27329e-08
5.95494e-06
5.70336e-08
5.95802e-06
8.51792e-08
5.95809e-06
9.25144e-08
5.95858e-06
9.61683e-08
5.9656e-06
9.26837e-08
9.2404e-08
5.97118e-06
6.24466e-06
-3.78674e-07
6.21003e-06
-1.19683e-06
6.21412e-06
-4.01709e-07
6.25749e-06
2.11071e-07
6.2553e-06
-3.26999e-07
6.24302e-06
-6.14838e-07
6.22606e-06
-5.61908e-07
6.21055e-06
-4.05395e-07
6.1927e-06
-3.34497e-07
6.18635e-06
-2.53891e-07
6.18904e-06
-1.08972e-07
6.18619e-06
-1.61813e-08
6.17971e-06
-9.14823e-09
6.18016e-06
2.22765e-08
6.18237e-06
5.48309e-08
6.18633e-06
8.12174e-08
6.18781e-06
9.10331e-08
6.19359e-06
9.03837e-08
6.19372e-06
9.25574e-08
8.73898e-08
6.19873e-06
6.48282e-06
-3.57086e-07
6.44809e-06
-1.16211e-06
6.45228e-06
-4.059e-07
6.49453e-06
1.6882e-07
6.49211e-06
-3.24575e-07
6.4786e-06
-6.0133e-07
6.46218e-06
-5.45489e-07
6.44715e-06
-3.90358e-07
6.42959e-06
-3.16944e-07
6.42177e-06
-2.46066e-07
6.42462e-06
-1.11825e-07
6.42305e-06
-1.46114e-08
6.41663e-06
-2.73121e-09
6.41676e-06
2.21528e-08
6.4186e-06
5.29908e-08
6.42307e-06
7.67439e-08
6.42411e-06
8.99913e-08
6.42421e-06
9.02909e-08
6.43045e-06
8.63109e-08
8.28721e-08
6.43497e-06
6.73007e-06
-3.35817e-07
6.69524e-06
-1.12727e-06
6.69952e-06
-4.10181e-07
6.74037e-06
1.27968e-07
6.73808e-06
-3.22284e-07
6.7234e-06
-5.86649e-07
6.70725e-06
-5.29338e-07
6.69275e-06
-3.75856e-07
6.67568e-06
-2.99881e-07
6.66648e-06
-2.36861e-07
6.66914e-06
-1.14483e-07
6.66892e-06
-1.43991e-08
6.66276e-06
3.43311e-09
6.66259e-06
2.2323e-08
6.66396e-06
5.16228e-08
6.66856e-06
7.21423e-08
6.67121e-06
8.73418e-08
6.67628e-06
8.52213e-08
6.67642e-06
8.61703e-08
7.91209e-08
6.68017e-06
6.9868e-06
-3.14965e-07
6.95177e-06
-1.09225e-06
6.95622e-06
-4.14627e-07
6.99531e-06
8.88779e-08
6.99349e-06
-3.20468e-07
6.97793e-06
-5.71094e-07
6.96173e-06
-5.13129e-07
6.94773e-06
-3.61861e-07
6.93126e-06
-2.83405e-07
6.92098e-06
-2.26587e-07
6.92286e-06
-1.16361e-07
6.92414e-06
-1.5678e-08
6.91835e-06
9.21926e-09
6.91785e-06
2.28287e-08
6.91891e-06
5.05625e-08
6.92332e-06
6.77302e-08
6.92608e-06
8.45819e-08
6.92678e-06
8.45229e-08
6.93177e-06
8.1173e-08
7.60575e-08
6.93484e-06
7.25334e-06
-2.94613e-07
7.21796e-06
-1.05687e-06
7.22278e-06
-4.19452e-07
7.25985e-06
5.18142e-08
7.25994e-06
-3.20561e-07
7.24277e-06
-5.53921e-07
7.22598e-06
-4.96339e-07
7.21239e-06
-3.48272e-07
7.19657e-06
-2.67582e-07
7.18556e-06
-2.15578e-07
7.18624e-06
-1.17042e-07
7.18894e-06
-1.8384e-08
7.18381e-06
1.43526e-08
7.18288e-06
2.376e-08
7.18381e-06
4.96326e-08
7.18779e-06
6.37459e-08
7.19189e-06
8.04856e-08
7.19646e-06
7.99527e-08
7.19689e-06
8.07453e-08
7.3646e-08
7.1993e-06
7.53006e-06
-2.74841e-07
7.49431e-06
-1.02112e-06
7.49939e-06
-4.24532e-07
7.53457e-06
1.66331e-08
7.53699e-06
-3.22981e-07
7.51701e-06
-5.33934e-07
7.50052e-06
-4.79856e-07
7.48716e-06
-3.34906e-07
7.47195e-06
-2.52376e-07
7.46056e-06
-2.04188e-07
7.45984e-06
-1.16318e-07
7.46366e-06
-2.22061e-08
7.45953e-06
1.84837e-08
7.45811e-06
2.51836e-08
7.45905e-06
4.8689e-08
7.46239e-06
6.04061e-08
7.46628e-06
7.65949e-08
7.46722e-06
7.90086e-08
7.47195e-06
7.6023e-08
7.15846e-08
7.47401e-06
7.81731e-06
-2.55694e-07
7.78165e-06
-9.85461e-07
7.78609e-06
-4.2898e-07
7.82006e-06
-1.73287e-08
7.81621e-06
-3.19139e-07
7.79984e-06
-5.17561e-07
7.786e-06
-4.66018e-07
7.77234e-06
-3.21246e-07
7.75771e-06
-2.37741e-07
7.74635e-06
-1.92833e-07
7.74413e-06
-1.141e-07
7.74855e-06
-2.66267e-08
7.74579e-06
2.12485e-08
7.74388e-06
2.70955e-08
7.74485e-06
4.77172e-08
7.74752e-06
5.77355e-08
7.75221e-06
7.1907e-08
7.75682e-06
7.43994e-08
7.75757e-06
7.52684e-08
6.98199e-08
7.75934e-06
8.11553e-06
-2.37264e-07
8.07967e-06
-9.49599e-07
8.08348e-06
-4.32793e-07
8.11735e-06
-5.11923e-08
8.12051e-06
-3.22305e-07
8.11036e-06
-5.07411e-07
8.08577e-06
-4.4143e-07
8.06818e-06
-3.03657e-07
8.05435e-06
-2.23908e-07
8.04332e-06
-1.81804e-07
8.03969e-06
-1.10471e-07
8.04406e-06
-3.09934e-08
8.04287e-06
2.24411e-08
8.04065e-06
2.93176e-08
8.04164e-06
4.67268e-08
8.04368e-06
5.56922e-08
8.04778e-06
6.78039e-08
8.04935e-06
7.28351e-08
8.05388e-06
7.07378e-08
6.8095e-08
8.0556e-06
8.42515e-06
-2.19654e-07
8.38806e-06
-9.12508e-07
8.39361e-06
-4.38344e-07
8.42368e-06
-8.12633e-08
8.4247e-06
-3.2332e-07
8.4044e-06
-4.87117e-07
8.3882e-06
-4.25222e-07
8.37553e-06
-2.9099e-07
8.36233e-06
-2.10708e-07
8.35162e-06
-1.71096e-07
8.34689e-06
-1.0574e-07
8.35059e-06
-3.46985e-08
8.35113e-06
2.19052e-08