/*--------------------------------*- C++ -*----------------------------------*\
| =========                 |                                                 |
| \\      /  F ield         | OpenFOAM: The Open Source CFD Toolbox           |
|  \\    /   O peration     | Version:  v2012                                 |
|   \\  /    A nd           | Website:  www.openfoam.com                      |
|    \\/     M anipulation  |                                                 |
\*---------------------------------------------------------------------------*/
FoamFile
{
    version     2.0;
    format      ascii;
    class       volVectorField;
    location    "8.3";
    object      U;
}
// * * * * * * * * * * * * * * * * * * * * * * * * * * * * * * * * * * * * * //

dimensions      [0 1 -1 0 0 0 0];


internalField   nonuniform List<vector> 
7000
(
(0.681476 -0.00951232 0)
(1.29124 -0.0134102 0)
(0.97553 0.0053865 0)
(1.26058 0.0260834 0)
(0.747511 -0.0167513 0)
(1.33475 -0.0199242 0)
(0.807561 -0.0260522 0)
(1.23299 -0.0100152 0)
(0.910002 -0.0107633 0)
(1.21719 -0.00082358 0)
(0.862767 0.000925942 0)
(1.22717 -0.00523105 0)
(0.860725 -0.00363985 0)
(1.23009 -0.00242237 0)
(0.877309 -0.00133957 0)
(1.21386 0.00130696 0)
(0.893272 0.00238039 0)
(1.19 0.00605715 0)
(0.902345 0.00597231 0)
(1.16463 0.0090864 0)
(0.708182 -0.00953474 0)
(1.27336 -0.0145777 0)
(0.980051 0.00513714 0)
(1.24673 0.0271877 0)
(0.833338 -0.0176932 0)
(1.28866 -0.0199378 0)
(0.863968 -0.0255571 0)
(1.2085 -0.0106115 0)
(0.945013 -0.0110749 0)
(1.20002 0.000288217 0)
(0.904927 0.000292958 0)
(1.2003 -0.0047544 0)
(0.907099 -0.00419369 0)
(1.19439 -0.00232252 0)
(0.929721 -0.00134733 0)
(1.16603 0.00108792 0)
(0.957114 0.0030735 0)
(1.12406 0.00544229 0)
(0.984703 0.00742339 0)
(1.07592 0.00801687 0)
(0.747654 -0.00961076 0)
(1.23923 -0.0155974 0)
(0.990848 0.00507669 0)
(1.2225 0.0283434 0)
(0.91308 -0.018058 0)
(1.22997 -0.019755 0)
(0.920901 -0.0252536 0)
(1.16497 -0.0111395 0)
(0.991072 -0.0112063 0)
(1.16761 0.000862183 0)
(0.968506 7.6836e-05 0)
(1.15903 -0.00447094 0)
(0.974575 -0.00437521 0)
(1.14378 -0.0024723 0)
(0.999195 -0.000924398 0)
(1.11081 0.000627353 0)
(1.02225 0.00410162 0)
(1.07191 0.00486238 0)
(1.03569 0.00879529 0)
(1.04001 0.00774816 0)
(0.794146 -0.00967243 0)
(1.19047 -0.0164764 0)
(1.00761 0.005083 0)
(1.19462 0.0289014 0)
(0.981354 -0.0181452 0)
(1.16936 -0.0195919 0)
(0.966864 -0.0249246 0)
(1.11441 -0.0116328 0)
(1.03037 -0.0113613 0)
(1.1298 0.0010958 0)
(1.02632 0.000125598 0)
(1.11932 -0.00446725 0)
(1.02979 -0.00413472 0)
(1.10272 -0.00289148 0)
(1.04738 -0.000224094 0)
(1.07862 0.000158218 0)
(1.05665 0.00507465 0)
(1.05459 0.00463762 0)
(1.05416 0.00978606 0)
(1.03746 0.00807037 0)
(0.842412 -0.00967645 0)
(1.13327 -0.0172992 0)
(1.02794 0.00494005 0)
(1.17082 0.0290128 0)
(1.03319 -0.0178856 0)
(1.11599 -0.0193323 0)
(0.99511 -0.0245476 0)
(1.06969 -0.0121889 0)
(1.05295 -0.0115987 0)
(1.09797 0.00101286 0)
(1.06304 0.000291989 0)
(1.0927 -0.00452642 0)
(1.05891 -0.00376849 0)
(1.08051 -0.00330299 0)
(1.06755 0.000385878 0)
(1.06829 -0.000140374 0)
(1.0675 0.00581875 0)
(1.05562 0.00467352 0)
(1.05909 0.0105112 0)
(1.04476 0.00857629 0)
(0.887365 -0.00959898 0)
(1.0764 -0.0180903 0)
(1.04816 0.0045727 0)
(1.15575 0.0289403 0)
(1.06802 -0.0173419 0)
(1.07584 -0.0189452 0)
(1.00666 -0.024181 0)
(1.03841 -0.0127787 0)
(1.05854 -0.0119265 0)
(1.07678 0.000707688 0)
(1.07876 0.000435393 0)
(1.07912 -0.00451381 0)
(1.06683 -0.00342227 0)
(1.07083 -0.00361882 0)
(1.07003 0.000824422 0)
(1.06609 -0.000336953 0)
(1.06759 0.00636014 0)
(1.05937 0.00475959 0)
(1.05989 0.0110875 0)
(1.05136 0.00904612 0)
(0.925421 -0.00943738 0)
(1.02792 -0.0188474 0)
(1.0643 0.0039694 0)
(1.14922 0.0287945 0)
(1.08771 -0.0165692 0)
(1.04967 -0.0184111 0)
(1.0073 -0.0238548 0)
(1.02062 -0.0133539 0)
(1.05313 -0.0123299 0)
(1.06351 0.000237211 0)
(1.08099 0.000511501 0)
(1.07183 -0.00440814 0)
(1.06365 -0.00309077 0)
(1.06432 -0.00388396 0)
(1.06489 0.00114798 0)
(1.06295 -0.000541273 0)
(1.06375 0.00674529 0)
(1.05995 0.00480307 0)
(1.05911 0.0115265 0)
(1.05458 0.0094357 0)
(0.955108 -0.00920856 0)
(0.99266 -0.0195576 0)
(1.07323 0.00313094 0)
(1.14719 0.0286226 0)
(1.09523 -0.0156266 0)
(1.03432 -0.0177557 0)
(1.00345 -0.0235734 0)
(1.01167 -0.0138949 0)
(1.04338 -0.0127591 0)
(1.05319 -0.000359756 0)
(1.07662 0.000533065 0)
(1.06481 -0.00423686 0)
(1.05636 -0.00272505 0)
(1.05592 -0.00414481 0)
(1.05707 0.00141695 0)
(1.05628 -0.000798155 0)
(1.05798 0.00699232 0)
(1.05678 0.00478134 0)
(1.05676 0.011794 0)
(1.05458 0.009739 0)
(0.976708 -0.00894233 0)
(0.971446 -0.020201 0)
(1.07348 0.00209726 0)
(1.1442 0.0284511 0)
(1.09365 -0.01457 0)
(1.0254 -0.0170344 0)
(0.999396 -0.0233193 0)
(1.00666 -0.014393 0)
(1.03331 -0.0131514 0)
(1.04262 -0.00104826 0)
(1.06909 0.000529483 0)
(1.0556 -0.00403139 0)
(1.04789 -0.00230113 0)
(1.04474 -0.00440959 0)
(1.04797 0.00164868 0)
(1.04654 -0.00110962 0)
(1.05045 0.00709725 0)
(1.05055 0.00468382 0)
(1.05233 0.0118664 0)
(1.05172 0.00994261 0)
(0.991492 -0.00867169 0)
(0.962038 -0.0207498 0)
(1.06542 0.000961597 0)
(1.13588 0.0282781 0)
(1.08574 -0.013463 0)
(1.01942 -0.0163161 0)
(0.996786 -0.0230724 0)
(1.00277 -0.0148366 0)
(1.02424 -0.013461 0)
(1.03115 -0.00178568 0)
(1.0594 0.000520205 0)
(1.04442 -0.00382105 0)
(1.03899 -0.00182116 0)
(1.03192 -0.00466068 0)
(1.03789 0.00184112 0)
(1.03491 -0.00144817 0)
(1.04108 0.00705511 0)
(1.04186 0.00451583 0)
(1.0454 0.01175 0)
(1.04597 0.0100387 0)
(1.00103 -0.00842347 0)
(0.960802 -0.0211754 0)
(1.05101 -0.000164385 0)
(1.12038 0.0280859 0)
(1.07401 -0.0123726 0)
(1.01456 -0.0156609 0)
(0.995513 -0.0228204 0)
(0.999187 -0.0152129 0)
(1.01618 -0.0136657 0)
(1.01954 -0.00252448 0)
(1.04794 0.000516923 0)
(1.03253 -0.00363967 0)
(1.02985 -0.00128891 0)
(1.01905 -0.00487651 0)
(1.02719 0.00199232 0)
(1.02262 -0.00177524 0)
(1.03019 0.00687695 0)
(1.03129 0.00430703 0)
(1.03594 0.0114785 0)
(1.03734 0.0100378 0)
(1.00677 -0.00821345 0)
(0.964165 -0.0214597 0)
(1.03303 -0.0011881 0)
(1.09862 0.0278568 0)
(1.06073 -0.0113643 0)
(1.01031 -0.0151094 0)
(0.994917 -0.0225609 0)
(0.99601 -0.0155157 0)
(1.00905 -0.0137611 0)
(1.00888 -0.00322021 0)
(1.03541 0.000523768 0)
(1.02122 -0.00351489 0)
(1.02078 -0.000723627 0)
(1.00748 -0.00504106 0)
(1.01646 0.00211423 0)
(1.01077 -0.00204776 0)
(1.01846 0.00660013 0)
(1.01961 0.00410544 0)
(1.02452 0.0111066 0)
(1.02635 0.00997006 0)
(1.00988 -0.00804643 0)
(0.969384 -0.0216 0)
(1.01446 -0.00204106 0)
(1.07358 0.0275735 0)
(1.04781 -0.0104909 0)
(1.00678 -0.0146784 0)
(0.994464 -0.0222957 0)
(0.993455 -0.0157476 0)
(1.00295 -0.0137548 0)
(0.999972 -0.00383924 0)
(1.02294 0.000542073 0)
(1.01137 -0.00346435 0)
(1.01222 -0.00015109 0)
(0.998073 -0.0051433 0)
(1.0064 0.00222408 0)
(1.00024 -0.00222551 0)
(1.00684 0.0062786 0)
(1.00782 0.0039597 0)
(1.0122 0.0106977 0)
(1.01406 0.00987657 0)
(1.01128 -0.00791926 0)
(0.974708 -0.0216066 0)
(0.997749 -0.00269175 0)
(1.049 0.0272218 0)
(1.03663 -0.00978199 0)
(1.00418 -0.0143639 0)
(0.993901 -0.0220248 0)
(0.991516 -0.0159188 0)
(0.99797 -0.0136611 0)
(0.993132 -0.00436515 0)
(1.01164 0.000573539 0)
(1.00343 -0.0034925 0)
(1.00457 0.000410876 0)
(0.991119 -0.00517668 0)
(0.997635 0.00233077 0)
(0.991613 -0.00227846 0)
(0.996321 0.00596411 0)
(0.996982 0.00390458 0)
(1.00029 0.0103082 0)
(1.00189 0.0097954 0)
(1.01162 -0.0078241 0)
(0.97923 -0.021499 0)
(0.984467 -0.0031539 0)
(1.02799 0.0267983 0)
(1.02792 -0.00923879 0)
(1.00255 -0.0141473 0)
(0.99318 -0.0217442 0)
(0.990008 -0.0160433 0)
(0.994085 -0.0134984 0)
(0.988265 -0.0047986 0)
(1.0023 0.000617759 0)
(0.997429 -0.00358439 0)
(0.998127 0.00093532 0)
(0.986442 -0.00513781 0)
(0.990564 0.00243851 0)
(0.98509 -0.0021933 0)
(0.987635 0.00569228 0)
(0.987899 0.00395664 0)
(0.989962 0.00997761 0)
(0.991125 0.00975215 0)
(1.01137 -0.00775126 0)
(0.982643 -0.0213032 0)
(0.975157 -0.00345849 0)
(1.01226 0.0263101 0)
(1.02177 -0.00883879 0)
(1.00174 -0.0140039 0)
(0.992345 -0.0214465 0)
(0.988715 -0.0161337 0)
(0.991117 -0.0132877 0)
(0.985008 -0.00515195 0)
(0.995193 0.00067415 0)
(0.99316 -0.00372125 0)
(0.993027 0.00140395 0)
(0.983609 -0.00502754 0)
(0.985338 0.00254184 0)
(0.98057 -0.00198057 0)
(0.981157 0.00547415 0)
(0.981006 0.00411147 0)
(0.981957 0.0097247 0)
(0.982624 0.00975777 0)
(1.01084 -0.00769158 0)
(0.984993 -0.0210462 0)
(0.969538 -0.00364542 0)
(1.00198 0.0257691 0)
(1.01784 -0.00854523 0)
(1.00147 -0.0139085 0)
(0.991469 -0.0211234 0)
(0.987494 -0.0162003 0)
(0.988846 -0.0130487 0)
(0.982921 -0.00544395 0)
(0.990186 0.000737193 0)
(0.990321 -0.00387889 0)
(0.989261 0.00180513 0)
(0.982141 -0.00485044 0)
(0.981882 0.002629 0)
(0.977775 -0.00165342 0)
(0.976883 0.00531046 0)
(0.976341 0.00435081 0)
(0.976474 0.00955031 0)
(0.97668 0.0098104 0)
(1.01022 -0.00763778 0)
(0.98649 -0.0207517 0)
(0.966855 -0.00375757 0)
(0.996198 0.0251884 0)
(1.01559 -0.00831836 0)
(1.00146 -0.01384 0)
(0.990616 -0.0207692 0)
(0.986303 -0.0162496 0)
(0.987084 -0.0127969 0)
(0.981619 -0.00569634 0)
(0.986914 0.00079654 0)
(0.988615 -0.00403445 0)
(0.986733 0.00213095 0)
(0.981639 -0.00460991 0)
(0.979969 0.0026933 0)
(0.976377 -0.00123992 0)
(0.974542 0.00519242 0)
(0.973666 0.00464865 0)
(0.973297 0.0094439 0)
(0.973129 0.0098998 0)
(1.00964 -0.00758457 0)
(0.987368 -0.0204389 0)
(0.966225 -0.00382596 0)
(0.993559 0.0245801 0)
(1.01445 -0.00812355 0)
(1.0015 -0.0137829 0)
(0.98984 -0.0203817 0)
(0.985179 -0.0162858 0)
(0.985714 -0.0125453 0)
(0.980836 -0.00592611 0)
(0.984954 0.000843229 0)
(0.987776 -0.00417465 0)
(0.9853 0.00237303 0)
(0.98182 -0.00431128 0)
(0.979304 0.00272742 0)
(0.976073 -0.000754237 0)
(0.973751 0.00511262 0)
(0.972613 0.00497648 0)
(0.971996 0.00938975 0)
(0.971557 0.0100136 0)
(1.00915 -0.0075285 0)
(0.98783 -0.0201212 0)
(0.966849 -0.00387372 0)
(0.992771 0.0239531 0)
(1.01397 -0.00793544 0)
(1.00146 -0.013727 0)
(0.98918 -0.0199626 0)
(0.984193 -0.016312 0)
(0.984677 -0.012299 0)
(0.980413 -0.00615062 0)
(0.98393 0.000866817 0)
(0.987561 -0.00428718 0)
(0.984787 0.00252719 0)
(0.982482 -0.00396589 0)
(0.979583 0.00272429 0)
(0.976598 -0.000211209 0)
(0.97411 0.00506909 0)
(0.972795 0.00530691 0)
(0.972092 0.00936821 0)
(0.971473 0.0101406 0)
(1.00876 -0.00746746 0)
(0.988027 -0.0198065 0)
(0.968107 -0.00391605 0)
(0.992867 0.023313 0)
(1.0138 -0.0077381 0)
(1.00129 -0.013668 0)
(0.988664 -0.0195151 0)
(0.983424 -0.016329 0)
(0.983948 -0.0120654 0)
(0.980259 -0.0063727 0)
(0.983541 0.000853694 0)
(0.987739 -0.00436734 0)
(0.984982 0.00259765 0)
(0.983462 -0.00358096 0)
(0.980512 0.00268126 0)
(0.977717 0.000349085 0)
(0.975257 0.0050645 0)
(0.973851 0.00562982 0)
(0.973145 0.00935895 0)
(0.972414 0.0102686 0)
(1.00844 -0.00740027 0)
(0.988077 -0.0194991 0)
(0.969573 -0.00395781 0)
(0.99324 0.0226629 0)
(1.01372 -0.00752313 0)
(1.00103 -0.0136055 0)
(0.988307 -0.0190459 0)
(0.982936 -0.0163358 0)
(0.983505 -0.0118519 0)
(0.980316 -0.0065875 0)
(0.983556 0.000790256 0)
(0.988107 -0.00441529 0)
(0.985634 0.00258392 0)
(0.984604 -0.00315576 0)
(0.981816 0.00260635 0)
(0.979198 0.000894453 0)
(0.97687 0.00509633 0)
(0.975448 0.00595809 0)
(0.974774 0.00936185 0)
(0.973976 0.0103879 0)
(1.00818 -0.00732633 0)
(0.988063 -0.0192004 0)
(0.970992 -0.00400017 0)
(0.993579 0.0220041 0)
(1.01361 -0.00728914 0)
(1.00073 -0.0135386 0)
(0.988113 -0.018565 0)
(0.982764 -0.016331 0)
(0.983317 -0.0116583 0)
(0.980535 -0.00679535 0)
(0.983795 0.00066864 0)
(0.988504 -0.00442522 0)
(0.98648 0.00248616 0)
(0.985753 -0.00270182 0)
(0.98324 0.00251893 0)
(0.980811 0.00140872 0)
(0.978673 0.00513834 0)
(0.97729 0.0062849 0)
(0.976664 0.00939634 0)
(0.975825 0.010503 0)
(1.00794 -0.00724538 0)
(0.988045 -0.0189105 0)
(0.972254 -0.00404241 0)
(0.993782 0.0213378 0)
(1.01342 -0.00703737 0)
(1.00046 -0.0134695 0)
(0.988073 -0.0180764 0)
(0.982911 -0.0163135 0)
(0.98334 -0.0114917 0)
(0.980868 -0.00697931 0)
(0.984117 0.000486176 0)
(0.988824 -0.00440278 0)
(0.987286 0.00231908 0)
(0.986767 -0.00223987 0)
(0.984579 0.00242092 0)
(0.982345 0.00189552 0)
(0.98044 0.00518209 0)
(0.979132 0.00657394 0)
(0.978569 0.00945708 0)
(0.977701 0.0106258 0)
(1.00769 -0.00715732 0)
(0.98806 -0.0186288 0)
(0.97334 -0.00408361 0)
(0.993862 0.0206627 0)
(1.01316 -0.00676673 0)
(1.00026 -0.0134036 0)
(0.988172 -0.0175868 0)
(0.983343 -0.0162752 0)
(0.983522 -0.011353 0)
(0.981269 -0.00713516 0)
(0.984415 0.000256573 0)
(0.989009 -0.00435432 0)
(0.987886 0.0020937 0)
(0.987532 -0.00177622 0)
(0.985688 0.00231539 0)
(0.983644 0.00235193 0)
(0.982005 0.00524666 0)
(0.980796 0.00681002 0)
(0.980326 0.00950953 0)
(0.979433 0.0107466 0)
(1.00743 -0.00706203 0)
(0.988122 -0.0183553 0)
(0.974271 -0.00412041 0)
(0.993868 0.0199756 0)
(1.01283 -0.00648557 0)
(1.00019 -0.0133354 0)
(0.988391 -0.0171117 0)
(0.984 -0.0162121 0)
(0.983818 -0.0112322 0)
(0.9817 -0.00726321 0)
(0.984619 -6.92798e-06 0)
(0.989036 -0.00426721 0)
(0.988204 0.0018117 0)
(0.987987 -0.0013251 0)
(0.986496 0.00221365 0)
(0.984619 0.00276997 0)
(0.983276 0.00535 0)
(0.982179 0.00701587 0)
(0.981841 0.00954326 0)
(0.980935 0.0108494 0)
(1.00716 -0.00695979 0)
(0.988235 -0.0180882 0)
(0.975063 -0.0041546 0)
(0.993832 0.0192849 0)
(1.01246 -0.00620356 0)
(1.00027 -0.0132664 0)
(0.988706 -0.0166462 0)
(0.984808 -0.0161183 0)
(0.984191 -0.0111516 0)
(0.982132 -0.00732512 0)
(0.984696 -0.000313287 0)
(0.988908 -0.00413971 0)
(0.988239 0.00150565 0)
(0.988118 -0.000904475 0)
(0.986994 0.0021196 0)
(0.985255 0.00312038 0)
(0.984231 0.00547659 0)
(0.98325 0.00720734 0)
(0.983086 0.00955486 0)
(0.982184 0.0109365 0)
(1.00688 -0.00685046 0)
(0.988392 -0.0178277 0)
(0.975721 -0.00418404 0)
(0.993763 0.0185824 0)
(1.01208 -0.00590413 0)
(1.00048 -0.0132109 0)
(0.989091 -0.0161954 0)
(0.985684 -0.0159777 0)
(0.984616 -0.0111016 0)
(0.982549 -0.00735687 0)
(0.984651 -0.000614645 0)
(0.988648 -0.00404702 0)
(0.988041 0.00122408 0)
(0.987965 -0.000527429 0)
(0.987213 0.00207753 0)
(0.985594 0.00340208 0)
(0.984894 0.00561378 0)
(0.98404 0.0073475 0)
(0.984071 0.00954137 0)
(0.983201 0.0109917 0)
(1.00662 -0.00673346 0)
(0.988589 -0.0175753 0)
(0.976239 -0.00419876 0)
(0.993657 0.017861 0)
(1.01169 -0.00561415 0)
(1.00081 -0.0131468 0)
(0.989526 -0.0157718 0)
(0.986552 -0.0158189 0)
(0.985071 -0.01103 0)
(0.982942 -0.00737223 0)
(0.984518 -0.000920654 0)
(0.988294 -0.00391538 0)
(0.987695 0.000928087 0)
(0.987597 -0.000197632 0)
(0.987212 0.00200787 0)
(0.985703 0.00365899 0)
(0.985305 0.00573561 0)
(0.984594 0.0075109 0)
(0.984832 0.00952617 0)
(0.984019 0.0110351 0)
(1.0064 -0.00661293 0)
(0.988816 -0.017317 0)
(0.976621 -0.00422597 0)
(0.993511 0.0171579 0)
(1.0113 -0.00535004 0)
(1.00121 -0.0130652 0)
(0.989983 -0.0153824 0)
(0.987351 -0.0155705 0)
(0.985545 -0.0110573 0)
(0.983298 -0.00726439 0)
(0.984352 -0.00128404 0)
(0.98789 -0.0036992 0)
(0.98728 0.000586408 0)
(0.987096 0.000143535 0)
(0.987061 0.00186426 0)
(0.985666 0.00391391 0)
(0.98553 0.00579489 0)
(0.984969 0.00771278 0)
(0.985391 0.00943573 0)
(0.98467 0.0110225 0)
(1.00621 -0.0064813 0)
(0.989067 -0.0170749 0)
(0.976878 -0.00421836 0)
(0.99333 0.0164007 0)
(1.01092 -0.00505759 0)
(1.00163 -0.01301 0)
(0.990443 -0.0150008 0)
(0.988034 -0.0153171 0)
(0.986023 -0.0110168 0)
(0.98362 -0.00723238 0)
(0.984194 -0.00150876 0)
(0.987492 -0.00363184 0)
(0.986869 0.000371378 0)
(0.986558 0.000381763 0)
(0.986818 0.0018268 0)
(0.985558 0.00401784 0)
(0.985617 0.00588534 0)
(0.985214 0.00775449 0)
(0.985766 0.00937838 0)
(0.985171 0.0110175 0)
(1.00607 -0.00635099 0)
(0.989334 -0.0168154 0)
(0.977035 -0.00422464 0)
(0.993122 0.0156701 0)
(1.01055 -0.00483595 0)
(1.00203 -0.0129083 0)
(0.990879 -0.0146782 0)
(0.988582 -0.0149773 0)
(0.986495 -0.0110316 0)
(0.983906 -0.0070993 0)
(0.984075 -0.00178329 0)
(0.987146 -0.00350604 0)
(0.986515 0.000195271 0)
(0.986059 0.00054019 0)
(0.986535 0.00185896 0)
(0.985442 0.00405845 0)
(0.98561 0.00596454 0)
(0.985378 0.00780307 0)
(0.986047 0.00934921 0)
(0.98556 0.0109919 0)
(1.00598 -0.00621509 0)
(0.989607 -0.0165539 0)
(0.97713 -0.00423169 0)
(0.992894 0.0149379 0)
(1.01017 -0.00461125 0)
(1.00235 -0.0127983 0)
(0.991285 -0.0143501 0)
(0.988981 -0.0146344 0)
(0.986957 -0.0110394 0)
(0.984163 -0.00695719 0)
(0.984014 -0.00198492 0)
(0.986886 -0.00349294 0)
(0.986244 0.000122507 0)
(0.98566 0.000585811 0)
(0.986271 0.0019549 0)
(0.985353 0.00394319 0)
(0.985569 0.00604147 0)
(0.985477 0.00771189 0)
(0.986187 0.00930357 0)
(0.985817 0.0109322 0)
(1.00593 -0.00606252 0)
(0.989883 -0.01632 0)
(0.9772 -0.00417569 0)
(0.992653 0.0141133 0)
(1.00978 -0.00435819 0)
(1.00257 -0.0127406 0)
(0.991642 -0.0140061 0)
(0.989253 -0.0143148 0)
(0.987405 -0.0109502 0)
(0.984409 -0.00696594 0)
(0.984004 -0.00199946 0)
(0.986727 -0.00357866 0)
(0.986079 2.25417e-05 0)
(0.985385 0.00073131 0)
(0.98605 0.00195159 0)
(0.985334 0.00394289 0)
(0.985536 0.00613574 0)
(0.985573 0.0077938 0)
(0.986344 0.00924529 0)
(0.986014 0.0108338 0)
(1.0059 -0.00593072 0)
(0.990155 -0.0160241 0)
(0.977287 -0.00419523 0)
(0.992408 0.0134162 0)
(1.00937 -0.00426813 0)
(1.00268 -0.0125322 0)
(0.991959 -0.0138325 0)
(0.989407 -0.0137451 0)
(0.987836 -0.0110792 0)
(0.984656 -0.00671213 0)
(0.984056 -0.00234459 0)
(0.986648 -0.00319394 0)
(0.986046 -0.000411933 0)
(0.985237 0.00119769 0)
(0.985922 0.00176392 0)
(0.985402 0.00428335 0)
(0.985555 0.00601488 0)
(0.985648 0.008179 0)
(0.986406 0.008947 0)
(0.98617 0.0104699 0)
(1.00588 -0.00578127 0)
(0.990433 -0.0157535 0)
(0.977417 -0.00415775 0)
(0.992171 0.0126325 0)
(1.00894 -0.00409472 0)
(1.00268 -0.0123691 0)
(0.992216 -0.0135574 0)
(0.989494 -0.0133948 0)
(0.988235 -0.0109691 0)
(0.984915 -0.00666801 0)
(0.984177 -0.00232023 0)
(0.986652 -0.00327234 0)
(0.98611 -0.000451757 0)
(0.985218 0.00115915 0)
(0.985881 0.00192456 0)
(0.985553 0.00409496 0)
(0.985661 0.00606278 0)
(0.985742 0.0079785 0)
(0.986393 0.00894472 0)
(0.986289 0.0103228 0)
(1.00586 -0.00561397 0)
(0.990715 -0.0155091 0)
(0.977612 -0.00407945 0)
(0.991963 0.0118006 0)
(1.00848 -0.00391685 0)
(1.0026 -0.0123136 0)
(0.992422 -0.0131899 0)
(0.989539 -0.0130736 0)
(0.9886 -0.0108069 0)
(0.985224 -0.00678209 0)
(0.984303 -0.00213061 0)
(0.986725 -0.00350652 0)
(0.986264 -0.000364982 0)
(0.985311 0.00114235 0)
(0.985931 0.00222476 0)
(0.985789 0.00397746 0)
(0.985841 0.00617186 0)
(0.985922 0.0078738 0)
(0.986565 0.0089979 0)
(0.986444 0.0102005 0)
(1.00581 -0.00548412 0)
(0.990997 -0.01518 0)
(0.977895 -0.00409428 0)
(0.991785 0.011137 0)
(1.008 -0.00398104 0)
(1.00244 -0.0119233 0)
(0.992595 -0.0132023 0)
(0.989555 -0.0123654 0)
(0.988943 -0.0109511 0)
(0.985549 -0.0065316 0)
(0.984484 -0.00253747 0)
(0.986832 -0.00287896 0)
(0.986517 -0.000989061 0)
(0.985484 0.00172308 0)
(0.986058 0.00213006 0)
(0.986066 0.00441423 0)
(0.986114 0.00588388 0)
(0.98613 0.00826869 0)
(0.986683 0.00866317 0)
(0.986621 0.00972929 0)
(1.00572 -0.00532489 0)
(0.991288 -0.0148921 0)
(0.978257 -0.00405622 0)
(0.991658 0.0103765 0)
(1.0075 -0.00386091 0)
(1.00224 -0.0117829 0)
(0.992735 -0.0128735 0)
(0.989587 -0.0120869 0)
(0.989241 -0.0106928 0)
(0.9859 -0.00662305 0)
(0.984715 -0.0023726 0)
(0.98695 -0.00301704 0)
(0.986816 -0.000868254 0)
(0.985749 0.00157134 0)
(0.986251 0.00236712 0)
(0.98638 0.00416494 0)
(0.986459 0.00586569 0)
(0.986382 0.00782719 0)
(0.986731 0.0087638 0)
(0.986801 0.00966928 0)
(1.0056 -0.00513892 0)
(0.991587 -0.0146564 0)
(0.978693 -0.00394004 0)
(0.99159 0.00955717 0)
(1.007 -0.00376078 0)
(1.00204 -0.0116751 0)
(0.992831 -0.0124974 0)
(0.989637 -0.0118665 0)
(0.989516 -0.0103159 0)
(0.986305 -0.00696607 0)
(0.984922 -0.00204661 0)
(0.987114 -0.00321036 0)
(0.987152 -0.000805318 0)
(0.986032 0.00125317 0)
(0.986479 0.00267298 0)
(0.986734 0.00390959 0)
(0.986835 0.00590932 0)
(0.986758 0.00745931 0)
(0.987079 0.00889752 0)
(0.987031 0.00968309 0)
(1.00546 -0.00502122 0)
(0.991875 -0.014274 0)
(0.97921 -0.00398982 0)
(0.99156 0.00899711 0)
(1.00653 -0.00396596 0)
(1.00179 -0.0111689 0)
(0.99293 -0.0126322 0)
(0.989694 -0.0110701 0)
(0.989771 -0.0105742 0)
(0.98671 -0.00649833 0)
(0.985196 -0.00272143 0)
(0.987225 -0.00245952 0)
(0.9875 -0.00126987 0)
(0.986386 0.0021068 0)
(0.986755 0.00263591 0)
(0.98708 0.0045956 0)
(0.987254 0.00561675 0)
(0.987145 0.00795396 0)
(0.987346 0.00849929 0)
(0.987282 0.00919993 0)
(1.00529 -0.00484368 0)
(0.992171 -0.0140042 0)
(0.979776 -0.00393916 0)
(0.991579 0.00827588 0)
(1.00604 -0.00388569 0)
(1.00156 -0.0110778 0)
(0.993012 -0.0121968 0)
(0.989768 -0.010902 0)
(0.990023 -0.0101572 0)
(0.987109 -0.0067222 0)
(0.985472 -0.00252381 0)
(0.987418 -0.00251159 0)
(0.987925 -0.00123876 0)
(0.986749 0.00182353 0)
(0.987023 0.0028692 0)
(0.987403 0.00432827 0)
(0.987667 0.00566187 0)
(0.987512 0.00747077 0)
(0.987456 0.00865126 0)
(0.987499 0.00931567 0)
(1.0051 -0.00463699 0)
(0.992465 -0.0137822 0)
(0.980377 -0.00382974 0)
(0.991648 0.00751304 0)
(1.00558 -0.00384923 0)
(1.00134 -0.0109423 0)
(0.993067 -0.0118029 0)
(0.989876 -0.0107682 0)
(0.990225 -0.0097223 0)
(0.987563 -0.00697902 0)
(0.985771 -0.00228547 0)
(0.987524 -0.00263774 0)
(0.988256 -0.00120662 0)
(0.987177 0.00126885 0)
(0.987325 0.00316677 0)
(0.98777 0.00405086 0)
(0.988093 0.00582989 0)
(0.988019 0.00711031 0)
(0.987958 0.00884794 0)
(0.987763 0.00953714 0)
(1.00491 -0.00454889 0)
(0.992737 -0.0133303 0)
(0.981027 -0.00396561 0)
(0.991729 0.00710115 0)
(1.00514 -0.0041697 0)
(1.0011 -0.0103697 0)
(0.993145 -0.0119978 0)
(0.989957 -0.009874 0)
(0.990474 -0.010139 0)
(0.987973 -0.00626071 0)
(0.986071 -0.00307417 0)
(0.987695 -0.0017769 0)
(0.988636 -0.00150507 0)
(0.987605 0.00205962 0)
(0.987649 0.00293023 0)
(0.988106 0.0047893 0)
(0.988522 0.00548089 0)
(0.988471 0.00769235 0)
(0.988308 0.00824821 0)
(0.988025 0.00899352 0)
(1.00471 -0.00431556 0)
(0.993018 -0.0131332 0)
(0.981681 -0.00386697 0)
(0.991842 0.0063626 0)
(1.0047 -0.00403407 0)
(1.00087 -0.0103966 0)
(0.993227 -0.0113996 0)
(0.990065 -0.00991543 0)
(0.990676 -0.00946347 0)
(0.988398 -0.00672097 0)
(0.986427 -0.00265397 0)
(0.987851 -0.00183295 0)
(0.989004 -0.00146908 0)
(0.988056 0.0014733 0)
(0.987984 0.00289185 0)
(0.988425 0.00439389 0)
(0.98893 0.00543153 0)
(0.988858 0.00726414 0)
(0.988443 0.00845172 0)
(0.988253 0.00931484 0)
(1.0045 -0.0041419 0)
(0.993308 -0.0128411 0)
(0.982341 -0.00384647 0)
(0.991982 0.00574655 0)
(1.00427 -0.00405638 0)
(1.0007 -0.0103045 0)
(0.99327 -0.0108878 0)
(0.990198 -0.00992806 0)
(0.99087 -0.00886653 0)
(0.988855 -0.00699928 0)
(0.986779 -0.00231912 0)
(0.987991 -0.00200695 0)
(0.989296 -0.00122835 0)
(0.988516 0.000775784 0)
(0.988352 0.00298905 0)
(0.988803 0.00396872 0)
(0.989387 0.00552283 0)
(0.989463 0.00687698 0)
(0.989077 0.00888106 0)
(0.988515 0.0098429 0)
(1.0043 -0.00403492 0)
(0.993573 -0.0124088 0)
(0.983026 -0.00398606 0)
(0.992108 0.00535994 0)
(1.00387 -0.00430764 0)
(1.0005 -0.00985836 0)
(0.993357 -0.0109446 0)
(0.990316 -0.00919438 0)
(0.991076 -0.0089811 0)
(0.989291 -0.00660365 0)
(0.987172 -0.0026595 0)
(0.988148 -0.00142608 0)
(0.989586 -0.00137243 0)
(0.98898 0.00107721 0)
(0.988749 0.00281553 0)
(0.989157 0.00436155 0)
(0.989828 0.0053358 0)
(0.990025 0.00702537 0)
(0.989563 0.00838309 0)
(0.988746 0.00940643 0)
(1.0041 -0.00376764 0)
(0.99385 -0.012251 0)
(0.983706 -0.0038642 0)
(0.992233 0.00466916 0)
(1.00348 -0.00422242 0)
(1.00032 -0.00980836 0)
(0.993452 -0.0105296 0)
(0.990447 -0.00895762 0)
(0.991269 -0.00863838 0)
(0.989734 -0.00659053 0)
(0.987588 -0.00263037 0)
(0.988298 -0.0012075 0)
(0.989861 -0.00123327 0)
(0.989443 0.00102056 0)
(0.989168 0.00275294 0)
(0.989517 0.00446349 0)
(0.990228 0.00532866 0)
(0.990516 0.00679792 0)
(0.990006 0.00790612 0)
(0.98901 0.00897141 0)
(1.0039 -0.00365829 0)
(0.994131 -0.0118525 0)
(0.984379 -0.00397981 0)
(0.992369 0.00421164 0)
(1.00309 -0.00427016 0)
(1.00016 -0.00960961 0)
(0.99355 -0.0102593 0)
(0.990584 -0.00862173 0)
(0.991453 -0.00833278 0)
(0.990169 -0.00645455 0)
(0.988028 -0.00271397 0)
(0.988477 -0.000970886 0)
(0.990105 -0.00103932 0)
(0.989893 0.000928154 0)
(0.989621 0.00270062 0)
(0.989898 0.0045323 0)
(0.990587 0.00534475 0)
(0.990944 0.00654585 0)
(0.990436 0.00750509 0)
(0.989295 0.00852302 0)
(1.0037 -0.00345525 0)
(0.994412 -0.0115637 0)
(0.985055 -0.00398978 0)
(0.992504 0.00369884 0)
(1.0027 -0.00430163 0)
(0.999994 -0.00943495 0)
(0.993661 -0.0100022 0)
(0.990733 -0.00828924 0)
(0.991632 -0.00797182 0)
(0.990593 -0.00636079 0)
(0.988487 -0.00277523 0)
(0.988674 -0.000769299 0)
(0.990324 -0.000856978 0)
(0.990333 0.000876145 0)
(0.990107 0.00264184 0)
(0.990292 0.00452069 0)
(0.990903 0.00530044 0)
(0.991315 0.00628389 0)
(0.990824 0.00709991 0)
(0.989589 0.00801118 0)
(1.00351 -0.0032817 0)
(0.994696 -0.0112548 0)
(0.985723 -0.00403683 0)
(0.992642 0.0031636 0)
(1.00233 -0.00426077 0)
(0.999841 -0.00926406 0)
(0.993782 -0.00971588 0)
(0.990894 -0.00797792 0)
(0.991793 -0.00760209 0)
(0.990999 -0.00628529 0)
(0.988973 -0.00283326 0)
(0.988897 -0.00062034 0)
(0.990526 -0.000642794 0)
(0.990758 0.000859131 0)
(0.990601 0.0025567 0)
(0.990699 0.00436923 0)
(0.991198 0.00524336 0)
(0.991638 0.00605557 0)
(0.991178 0.00677395 0)
(0.989895 0.00755828 0)
(1.00331 -0.00310918 0)
(0.994977 -0.0109459 0)
(0.986392 -0.00407052 0)
(0.992789 0.00268299 0)
(1.00197 -0.00423521 0)
(0.999689 -0.00911627 0)
(0.993912 -0.00943501 0)
(0.991064 -0.00769101 0)
(0.991947 -0.00722218 0)
(0.991391 -0.00613255 0)
(0.989475 -0.00287589 0)
(0.989149 -0.000515608 0)
(0.990718 -0.000424302 0)
(0.991158 0.000846394 0)
(0.991084 0.00242329 0)
(0.99113 0.0041399 0)
(0.991504 0.00519411 0)
(0.991932 0.00586878 0)
(0.991494 0.00653219 0)
(0.990197 0.00716004 0)
(1.00312 -0.00293431 0)
(0.995259 -0.0106258 0)
(0.987053 -0.00411216 0)
(0.992936 0.00216973 0)
(1.00161 -0.00421182 0)
(0.999547 -0.00890537 0)
(0.994053 -0.00914374 0)
(0.991247 -0.00741154 0)
(0.992095 -0.00683646 0)
(0.991758 -0.00595773 0)
(0.989986 -0.00296587 0)
(0.98943 -0.000466712 0)
(0.990899 -0.000202284 0)
(0.991524 0.000851948 0)
(0.991552 0.00232976 0)
(0.991596 0.00392614 0)
(0.991829 0.00512908 0)
(0.992202 0.00570616 0)
(0.991775 0.00632047 0)
(0.990473 0.00677746 0)
(1.00294 -0.00276506 0)
(0.995536 -0.0103112 0)
(0.987707 -0.00416635 0)
(0.993094 0.00169423 0)
(1.00128 -0.0041642 0)
(0.999405 -0.00867522 0)
(0.994198 -0.00889711 0)
(0.991438 -0.00715098 0)
(0.992238 -0.00647766 0)
(0.992096 -0.0057512 0)
(0.9905 -0.00306682 0)
(0.989754 -0.000430482 0)
(0.991085 3.21943e-05 0)
(0.99187 0.000882286 0)
(0.992006 0.00228916 0)
(0.992072 0.00369823 0)
(0.99217 0.00500522 0)
(0.992456 0.00554471 0)
(0.992008 0.00612514 0)
(0.99072 0.00645155 0)
(1.00276 -0.00259687 0)
(0.995811 -0.0100012 0)
(0.988353 -0.00419035 0)
(0.993255 0.00123105 0)
(1.00096 -0.00415616 0)
(0.999268 -0.0084666 0)
(0.994351 -0.00862699 0)
(0.991646 -0.00687971 0)
(0.992381 -0.00610871 0)
(0.992408 -0.00551812 0)
(0.991017 -0.00311716 0)
(0.990119 -0.000436688 0)
(0.991267 0.000242644 0)
(0.992187 0.000882765 0)
(0.992427 0.00221914 0)
(0.992547 0.00343215 0)
(0.992539 0.00482749 0)
(0.992714 0.00536208 0)
(0.992226 0.00594197 0)
(0.990944 0.00618373 0)
(1.00258 -0.00242592 0)
(0.996081 -0.00969799 0)
(0.988991 -0.00424551 0)
(0.993423 0.000793406 0)
(1.00066 -0.00414261 0)
(0.999142 -0.00821793 0)
(0.994513 -0.00835046 0)
(0.991862 -0.00661913 0)
(0.992521 -0.00578004 0)
(0.992693 -0.00525706 0)
(0.99152 -0.00316179 0)
(0.990518 -0.000511315 0)
(0.991455 0.000425841 0)
(0.992477 0.000899766 0)
(0.992825 0.00219186 0)
(0.993022 0.00325246 0)
(0.992934 0.00465397 0)
(0.992982 0.00520582 0)
(0.992428 0.00578268 0)
(0.991141 0.00598204 0)
(1.00242 -0.00226882 0)
(0.996345 -0.00935993 0)
(0.98962 -0.00428922 0)
(0.993596 0.000371658 0)
(1.00037 -0.00414915 0)
(0.999019 -0.00794925 0)
(0.994676 -0.0080822 0)
(0.992089 -0.00639503 0)
(0.992668 -0.00546468 0)
(0.992954 -0.00496992 0)
(0.992005 -0.00314689 0)
(0.990957 -0.00060635 0)
(0.991659 0.000592444 0)
(0.992753 0.000955659 0)
(0.993207 0.00217603 0)
(0.993479 0.00307978 0)
(0.993338 0.00441289 0)
(0.993263 0.00501745 0)
(0.992636 0.00558701 0)
(0.991321 0.00580481 0)
(1.00225 -0.00212639 0)
(0.996601 -0.00902071 0)
(0.990236 -0.00437402 0)
(0.993779 1.4373e-05 0)
(1.00011 -0.0042023 0)
(0.998901 -0.00768007 0)
(0.99483 -0.0077646 0)
(0.992315 -0.00611967 0)
(0.992816 -0.00516832 0)
(0.993195 -0.004718 0)
(0.992462 -0.00311363 0)
(0.99142 -0.000754492 0)
(0.991891 0.00070893 0)
(0.993008 0.00101916 0)
(0.993554 0.00211318 0)
(0.993905 0.00290072 0)
(0.993758 0.00414562 0)
(0.99357 0.00482693 0)
(0.992859 0.00538334 0)
(0.991498 0.00564693 0)
(1.0021 -0.00195716 0)
(0.996853 -0.00873761 0)
(0.990845 -0.00436897 0)
(0.993958 -0.000421531 0)
(0.999852 -0.00415972 0)
(0.998811 -0.00746938 0)
(0.995019 -0.00750054 0)
(0.992567 -0.00584403 0)
(0.992973 -0.00485936 0)
(0.993425 -0.00443868 0)
(0.992896 -0.00302554 0)
(0.991912 -0.000885882 0)
(0.992156 0.000788942 0)
(0.993238 0.00110318 0)
(0.993872 0.00206427 0)
(0.994308 0.0027966 0)
(0.994184 0.00391787 0)
(0.993894 0.00466847 0)
(0.993096 0.00520424 0)
(0.991665 0.00551999 0)
(1.00195 -0.00181331 0)
(0.997093 -0.00840147 0)
(0.991434 -0.00442455 0)
(0.994155 -0.000798004 0)
(0.999633 -0.00413537 0)
(0.998711 -0.00728769 0)
(0.995189 -0.00720574 0)
(0.992809 -0.00553822 0)
(0.993124 -0.00453328 0)
(0.993631 -0.00415258 0)
(0.993287 -0.00289558 0)
(0.992405 -0.00100604 0)
(0.992454 0.000799396 0)
(0.993461 0.00120342 0)
(0.994174 0.00203977 0)
(0.994687 0.00272725 0)
(0.994611 0.00368371 0)
(0.994244 0.00448775 0)
(0.993354 0.00500098 0)
(0.991842 0.00537842 0)
(1.00181 -0.0016956 0)
(0.99732 -0.00803026 0)
(0.992015 -0.00451055 0)
(0.994359 -0.00105298 0)
(0.999419 -0.00422074 0)
(0.998633 -0.00704186 0)
(0.995377 -0.0068743 0)
(0.993057 -0.00529002 0)
(0.993267 -0.00428868 0)
(0.993823 -0.00393299 0)
(0.993652 -0.00277029 0)
(0.992905 -0.00111599 0)
(0.992802 0.000737491 0)
(0.993694 0.00129593 0)
(0.994456 0.00201156 0)
(0.995031 0.0026538 0)
(0.995024 0.00344423 0)
(0.994608 0.00428078 0)
(0.993637 0.00477523 0)