/*--------------------------------*- C++ -*----------------------------------*\
| =========                 |                                                 |
| \\      /  F ield         | OpenFOAM: The Open Source CFD Toolbox           |
|  \\    /   O peration     | Version:  v2012                                 |
|   \\  /    A nd           | Website:  www.openfoam.com                      |
|    \\/     M anipulation  |                                                 |
\*---------------------------------------------------------------------------*/
FoamFile
{
    version     2.0;
    format      ascii;
    class       volScalarField;
    location    "4.7";
    object      p;
}
// * * * * * * * * * * * * * * * * * * * * * * * * * * * * * * * * * * * * * //

dimensions      [0 2 -2 0 0 0 0];


internalField   nonuniform List<scalar> 
7000
(
-2.99962e-10
0.000200743
0.00019614
0.000462613
-0.000317768
-0.000610857
0.000367891
0.000273666
0.000584192
0.0018467
-0.00506417
-0.00397292
-0.00972603
-0.00923704
-0.011091
-0.0109623
-0.0116568
-0.0120679
-0.0126603
-0.0134274
1.39794e-06
0.000197002
0.000196468
0.000466382
-0.000324245
-0.000612702
0.000384513
0.000257774
0.000607712
0.00181366
-0.00502839
-0.00398828
-0.00970602
-0.00922946
-0.0110896
-0.0109472
-0.0116569
-0.0120566
-0.0126618
-0.0134289
3.00381e-06
0.000191988
0.000198029
0.000471841
-0.000333124
-0.000613581
0.000395789
0.000237075
0.000634619
0.00176676
-0.00497545
-0.00401916
-0.0096542
-0.00922841
-0.0110614
-0.0109325
-0.0116391
-0.0120449
-0.0126652
-0.0134014
4.22142e-06
0.000186338
0.000200265
0.000476877
-0.000342823
-0.000614541
0.000403765
0.000208636
0.000650229
0.0017017
-0.00492971
-0.00406307
-0.00958245
-0.00923458
-0.0110099
-0.0109268
-0.0116113
-0.0120456
-0.0126736
-0.0133798
5.0952e-06
0.000179783
0.000202868
0.000481454
-0.000353681
-0.000615738
0.00040855
0.000170796
0.000655053
0.00161595
-0.00488945
-0.00412122
-0.00949954
-0.00924687
-0.0109502
-0.0109301
-0.0115853
-0.0120572
-0.0126838
-0.0133681
5.64842e-06
0.000172154
0.000205864
0.000485617
-0.000365757
-0.000617023
0.000410295
0.000124113
0.000652213
0.00151038
-0.0048496
-0.00419577
-0.00940864
-0.00926611
-0.0108894
-0.0109382
-0.0115636
-0.0120691
-0.0126933
-0.0133538
5.86111e-06
0.00016347
0.000209268
0.00048931
-0.000378759
-0.000618435
0.000409469
7.08725e-05
0.000644022
0.0013885
-0.00480739
-0.00428595
-0.00931061
-0.00929072
-0.0108276
-0.0109465
-0.0115431
-0.0120755
-0.0127025
-0.0133324
5.72736e-06
0.000153832
0.000213024
0.000492607
-0.000392368
-0.000620139
0.000406831
1.38203e-05
0.000632235
0.00125442
-0.00476214
-0.00438777
-0.00920624
-0.00931692
-0.0107639
-0.0109525
-0.0115231
-0.0120776
-0.0127124
-0.0133069
5.25428e-06
0.000143358
0.000217082
0.000495663
-0.000406331
-0.000622308
0.000403205
-4.47937e-05
0.000618012
0.00111146
-0.00471346
-0.00449687
-0.00909662
-0.00934192
-0.0106998
-0.0109558
-0.0115064
-0.0120779
-0.0127234
-0.0132798
4.45598e-06
0.000132145
0.00022142
0.000498626
-0.000420475
-0.000625088
0.000399295
-0.000103679
0.00060173
0.000962125
-0.00466092
-0.00461023
-0.00898292
-0.00936485
-0.0106373
-0.0109562
-0.0114951
-0.0120763
-0.0127343
-0.013251
3.36093e-06
0.00012026
0.000226008
0.000501588
-0.000434702
-0.000628599
0.000395605
-0.000162525
0.000583217
0.000808364
-0.00460421
-0.00472589
-0.00886597
-0.00938547
-0.0105769
-0.0109532
-0.0114891
-0.0120714
-0.0127432
-0.01322
2.02284e-06
0.000107751
0.000230793
0.000504585
-0.000448969
-0.000632939
0.000392426
-0.000221763
0.000562173
0.000651704
-0.00454337
-0.00484227
-0.0087463
-0.00940295
-0.0105187
-0.0109455
-0.011487
-0.0120625
-0.0127488
-0.0131869
5.25221e-07
9.46569e-05
0.000235694
0.000507631
-0.000463257
-0.000638163
0.000389859
-0.000282265
0.000538509
0.000493283
-0.00447893
-0.0049577
-0.00862417
-0.00941581
-0.0104626
-0.0109319
-0.0114881
-0.0120502
-0.0127502
-0.0131521
-1.02483e-06
8.10323e-05
0.000240622
0.000510763
-0.000477539
-0.000644276
0.000387885
-0.000345024
0.000512455
0.000333837
-0.00441188
-0.00507043
-0.00849998
-0.00942241
-0.0104091
-0.0109116
-0.0114921
-0.0120358
-0.0127465
-0.0131153
-2.51235e-06
6.69492e-05
0.000245498
0.000514066
-0.000491764
-0.000651231
0.000386461
-0.000410832
0.000484525
0.000173623
-0.00434349
-0.0051787
-0.00837488
-0.00942113
-0.0103581
-0.010884
-0.0114986
-0.0120205
-0.0127369
-0.013076
-3.83424e-06
5.2494e-05
0.000250266
0.000517657
-0.000505839
-0.000658962
0.00038571
-0.000480035
0.00045542
1.24718e-05
-0.00427511
-0.00528078
-0.008251
-0.0094104
-0.0103097
-0.0108489
-0.0115061
-0.0120052
-0.0127209
-0.0130336
-4.91685e-06
3.77524e-05
0.000254901
0.000521642
-0.000519642
-0.000667428
0.000385397
-0.000552445
0.000425835
-0.000149847
-0.00420807
-0.00537547
-0.00813111
-0.00938878
-0.010264
-0.0108065
-0.0115128
-0.0119903
-0.0126983
-0.0129875
-5.72581e-06
2.27915e-05
0.000259405
0.00052607
-0.000533053
-0.000676652
0.000384829
-0.000627481
0.000396287
-0.000313309
-0.00414343
-0.00546209
-0.00801814
-0.00935524
-0.010221
-0.0107576
-0.0115167
-0.0119762
-0.0126689
-0.0129368
-6.26501e-06
7.64471e-06
0.000263812
0.000530906
-0.000545983
-0.000686733
0.000384261
-0.000704444
0.000366996
-0.00047745
-0.00408194
-0.00554006
-0.00791475
-0.00930955
-0.0101808
-0.0107033
-0.0115159
-0.0119633
-0.0126328
-0.0128803
-6.56741e-06
-7.69432e-06
0.000268178
0.000536036
-0.000558399
-0.00069782
0.000383618
-0.000782779
0.00033786
-0.000641263
-0.00402448
-0.00560869
-0.00782257
-0.00925242
-0.0101437
-0.0106453
-0.0115092
-0.0119523
-0.0125908
-0.0128166
-6.6824e-06
-2.32646e-05
0.00027258
0.000541298
-0.00057031
-0.000710084
0.000382749
-0.000862194
0.000308428
-0.000803348
-0.00397224
-0.00566729
-0.00774224
-0.00918491
-0.0101098
-0.0105859
-0.0114953
-0.0119436
-0.0125444
-0.012745
-6.66286e-06
-3.91251e-05
0.000277095
0.000546506
-0.000581739
-0.000723682
0.000381472
-0.000942569
0.000277967
-0.000962186
-0.00392653
-0.00571528
-0.00767392
-0.00910796
-0.0100786
-0.0105284
-0.011473
-0.0119351
-0.0124952
-0.0126666
-6.55528e-06
-5.5343e-05
0.000281789
0.000551469
-0.000592698
-0.000738714
0.000379612
-0.00102384
0.000245639
-0.00111626
-0.00388878
-0.00575191
-0.0076177
-0.00902289
-0.010048
-0.0104762
-0.0114441
-0.0119247
-0.0124425
-0.0125823
-6.39284e-06
-7.19891e-05
0.000286716
0.000556004
-0.00060319
-0.00075522
0.000376994
-0.00110581
0.00021048
-0.00126392
-0.00386052
-0.00577648
-0.00757336
-0.0089325
-0.0100148
-0.0104289
-0.0114111
-0.0119138
-0.0123861
-0.0124904
-6.19287e-06
-8.91296e-05
0.000291894
0.000559942
-0.00061319
-0.000773219
0.000373358
-0.00118791
0.000171346
-0.00140364
-0.00384292
-0.00578901
-0.0075397
-0.00884017
-0.0099782
-0.0103859
-0.0113726
-0.0119016
-0.0123274
-0.0123912
-5.96348e-06
-0.000106818
0.000297311
0.000563121
-0.000622661
-0.000792639
0.000368218
-0.00126952
0.00012739
-0.00153449
-0.003837
-0.00578984
-0.00751556
-0.00874758
-0.0099377
-0.0103498
-0.0113286
-0.0118846
-0.0122655
-0.0122855
-5.70528e-06
-0.000125118
0.000302961
0.000565406
-0.000631638
-0.000813371
0.000361204
-0.00135022
7.76956e-05
-0.00165499
-0.00384443
-0.00577952
-0.00749928
-0.00865727
-0.00989144
-0.0103213
-0.0112795
-0.0118598
-0.0122016
-0.0121752
-5.39564e-06
-0.000144113
0.000308821
0.000566708
-0.000640087
-0.000835457
0.000352225
-0.00142885
2.06046e-05
-0.00176424
-0.00386557
-0.0057606
-0.00748777
-0.00857151
-0.00983947
-0.010301
-0.0112275
-0.0118209
-0.0121321
-0.0120654
-5.02018e-06
-0.000163838
0.000314801
0.000566934
-0.000647898
-0.000858686
0.000340621
-0.0015042
-4.40512e-05
-0.00186297
-0.00389792
-0.00573438
-0.00747898
-0.00849193
-0.00978159
-0.0102864
-0.0111784
-0.011772
-0.0120529
-0.0119512
-4.57616e-06
-0.000184333
0.000320822
0.000566064
-0.000655332
-0.000882388
0.000324494
-0.00157573
-0.000117488
-0.00194975
-0.00394504
-0.00570268
-0.00746931
-0.00842097
-0.00972043
-0.0102738
-0.011132
-0.0117191
-0.0119631
-0.0118307
-3.98475e-06
-0.00020568
0.000326883
0.000564204
-0.000662499
-0.000906382
0.00030414
-0.00164234
-0.000201524
-0.00202536
-0.00401771
-0.00566839
-0.00745849
-0.00835761
-0.00965639
-0.0102658
-0.0110868
-0.0116575
-0.0118618
-0.0117094
-3.30797e-06
-0.000227838
0.000332778
0.000561597
-0.000669969
-0.000930496
0.000278843
-0.00170402
-0.000294787
-0.00209275
-0.00407998
-0.0056338
-0.00744511
-0.00830382
-0.00958851
-0.010255
-0.011045
-0.0115931
-0.0117669
-0.0115806
-2.4981e-06
-0.000250876
0.00033833
0.000558261
-0.000677413
-0.00095411
0.000247199
-0.00176103
-0.000398016
-0.00215066
-0.00414955
-0.00560431
-0.00741827
-0.00826149
-0.00952564
-0.0102395
-0.0110004
-0.0115289
-0.01167
-0.011443
-1.29066e-06
-0.000274889
0.000343749
0.000554191
-0.000682146
-0.000976946
0.000234331
-0.00181224
-0.000508762
-0.00220161
-0.00421793
-0.00559811
-0.00738291
-0.00822583
-0.00946209
-0.0102211
-0.0109581
-0.0114628
-0.0115995
-0.0112973
-8.38358e-08
-0.000299498
0.000348314
0.000550314
-0.000692317
-0.000997912
0.000187846
-0.00185831
-0.000624281
-0.00224492
-0.00428597
-0.00558513
-0.00735161
-0.00819598
-0.00939406
-0.0102114
-0.0109269
-0.0113975
-0.0114897
-0.0111424
1.3508e-06
-0.000324957
0.000351715
0.000546848
-0.000706513
-0.00101709
0.000126679
-0.00190004
-0.000756283
-0.00228041
-0.00435882
-0.00556128
-0.00731372
-0.00818021
-0.00933742
-0.0101977
-0.0108933
-0.0113298
-0.0113462
-0.0109844
3.57668e-06
-0.000351669
0.000355396
0.0005432
-0.000710298
-0.00103602
8.10593e-05
-0.00193756
-0.000886468
-0.00232067
-0.00442072
-0.00556154
-0.00727637
-0.00816553
-0.00928685
-0.0101745
-0.0108563
-0.0112628
-0.0112689
-0.0108156
5.65717e-06
-0.000378498
0.000356816
0.000540974
-0.000726191
-0.00105145
2.10035e-05
-0.00197195
-0.0010221
-0.00235593
-0.00447863
-0.00557268
-0.00723986
-0.00816045
-0.00924298
-0.0101494
-0.0108218
-0.0111904
-0.0111415
-0.010642
8.09024e-06
-0.000405979
0.000355612
0.000540686
-0.000750705
-0.00106389
-5.37812e-05
-0.00200449
-0.00116605
-0.00238418
-0.00453978
-0.00557422
-0.00719774
-0.00817859
-0.00920769
-0.0101212
-0.0107789
-0.0111137
-0.0109706
-0.0104761
1.18197e-05
-0.000434937
0.000354966
0.000541008
-0.000759439
-0.0010797
-0.000111717
-0.00203799
-0.0013016
-0.00242612
-0.0045879
-0.00559653
-0.0071646
-0.00817129
-0.00917058
-0.0100847
-0.0107288
-0.0110463
-0.0109369
-0.010307
1.51001e-05
-0.000463205
0.000349707
0.00054415
-0.000782317
-0.00109221
-0.000181051
-0.00207149
-0.00143771
-0.00246277
-0.0046311
-0.00563124
-0.00712928
-0.00818642
-0.00914995
-0.0100464
-0.010684
-0.0109771
-0.0108215
-0.0101317
1.89946e-05
-0.000491942
0.000340673
0.000550507
-0.00081341
-0.00110269
-0.000260302
-0.00210478
-0.0015813
-0.0024838
-0.00467661
-0.00567584
-0.00710968
-0.00819824
-0.00913454
-0.0100047
-0.010652
-0.0109203
-0.0106215
-0.00995175
2.45295e-05
-0.000521917
0.000331491
0.000557997
-0.000830263
-0.00112241
-0.000319219
-0.00214237
-0.00171662
-0.00252166
-0.0047073
-0.00571576
-0.00708491
-0.00819814
-0.00911439
-0.00997267
-0.0106247
-0.0108935
-0.0106364
-0.00976339
2.91635e-05
-0.000550422
0.00031534
0.000569143
-0.000856755
-0.00114229
-0.000382424
-0.00218217
-0.00185151
-0.00256263
-0.00473099
-0.00577695
-0.00704721
-0.00818609
-0.00910613
-0.00995139
-0.0105911
-0.010862
-0.0105922
-0.0095708
3.52361e-05
-0.000579025
0.000294662
0.000583831
-0.000884799
-0.00116529
-0.000447552
-0.00221854
-0.00199461
-0.00260078
-0.00475562
-0.00583586
-0.00701637
-0.00817602
-0.00909574
-0.00992007
-0.0105588
-0.0108243
-0.0105074
-0.00938314
4.22831e-05
-0.000607636
0.000270803
0.000599924
-0.000905982
-0.00119644
-0.000505243
-0.00225172
-0.00214122
-0.00265105
-0.00477057
-0.00589238
-0.00700512
-0.00815109
-0.00907155
-0.0098943
-0.0105368
-0.0107697
-0.010399
-0.00918588
4.8498e-05
-0.000634519
0.00023989
0.000618355
-0.000926926
-0.00123338
-0.000564067
-0.00228284
-0.00229056
-0.00270956
-0.00477648
-0.00596034
-0.00699338
-0.00810475
-0.00905824
-0.00988287
-0.010501
-0.0106857
-0.0102558
-0.00898642
5.67101e-05
-0.000660821
0.000203352
0.000638465
-0.000941918
-0.0012788
-0.000621827
-0.00230765
-0.00244205
-0.00278186
-0.00477508
-0.00601788
-0.00698545
-0.00806941
-0.00904805
-0.00984773
-0.0104374
-0.0105919
-0.0101121
-0.00879071
6.44008e-05
-0.000685404
0.000161875
0.000657866
-0.000951182
-0.00133061
-0.000680338
-0.00232902
-0.0025948
-0.00286262
-0.00476253
-0.00607122
-0.00699888
-0.00803423
-0.00900647
-0.00979708
-0.0103838
-0.0105011
-0.00995414
-0.00859441
7.26174e-05
-0.000707853
0.000111832
0.000676153
-0.000952724
-0.00138826
-0.000747068
-0.00234603
-0.00274306
-0.00295244
-0.0047511
-0.00611982
-0.00701245
-0.00798419
-0.00895889
-0.00976469
-0.0103229
-0.0103866
-0.00979735
-0.00840425
8.19092e-05
-0.000728857
5.94094e-05
0.000692375
-0.000946682
-0.00145279
-0.000815825
-0.00235508
-0.00288756
-0.00305902
-0.00473119
-0.00614686
-0.00702719
-0.00794797
-0.00891944
-0.00971435
-0.010229
-0.010277
-0.00966263
-0.00820748
9.04847e-05
-0.000747086
-3.06444e-06
0.000703856
-0.000933497
-0.00151936
-0.000894045
-0.00236118
-0.00302635
-0.00317269
-0.00470784
-0.00616653
-0.00705634
-0.00791768
-0.00885492
-0.00963814
-0.0101457
-0.0101883
-0.00951818
-0.00799742
9.99779e-05
-0.0007624
-6.77965e-05
0.000710314
-0.000912129
-0.00158886
-0.000983401
-0.00236328
-0.00315126
-0.00329456
-0.00469412
-0.00617651
-0.00707927
-0.00788072
-0.008782
-0.00957232
-0.0100757
-0.010083
-0.00935765
-0.00778918
0.000109255
-0.000775068
-0.000134863
0.000710377
-0.000885253
-0.00165954
-0.00107136
-0.0023609
-0.0032644
-0.00342675
-0.00468722
-0.00616856
-0.00709514
-0.00785609
-0.00871967
-0.00950104
-0.00998406
-0.00995819
-0.00919851
-0.00759157
0.000118568
-0.00078399
-0.00020604
0.000701822
-0.000829003
-0.00172816
-0.00117857
-0.00235959
-0.00336316
-0.00356041
-0.0046864
-0.00615006
-0.00710944
-0.00783988
-0.00865439
-0.00941214
-0.00987598
-0.0098297
-0.00905386
-0.00740994
0.000127673
-0.000789318
-0.000279667
0.000683999
-0.000791964
-0.00179442
-0.00129372
-0.00235942
-0.00344425
-0.00369473
-0.00469671
-0.00612559
-0.00711601
-0.00782361
-0.00858905
-0.00931465
-0.00975947
-0.00970981
-0.00892096
-0.00722238
0.000136211
-0.000790417
-0.000354801
0.000655168
-0.000752791
-0.00185594
-0.00141539
-0.00236319
-0.00350852
-0.00382725
-0.00471954
-0.00609692
-0.00711196
-0.00780328
-0.00852411
-0.00921631
-0.00964769
-0.00958945
-0.00876989
-0.00702671
0.000143733
-0.000786917
-0.000431108
0.000614893
-0.000714353
-0.00191051
-0.00154446
-0.00237494
-0.00355591
-0.00395242
-0.0047528
-0.00606484
-0.00709573
-0.00777756
-0.00846386
-0.00912776
-0.0095354
-0.00945047
-0.00860823
-0.00683884
0.000150347
-0.000778889
-0.000506087
0.000561119
-0.00067814
-0.00195796
-0.00166861
-0.00239465
-0.00358701
-0.00406702
-0.00479384
-0.00603037
-0.00707247
-0.00775163
-0.00840689
-0.00904077
-0.00941525
-0.00930376
-0.00844562
-0.00665106
0.000156428
-0.000766307
-0.000578038
0.00049269
-0.000642916
-0.00199979
-0.00182033
-0.0024192
-0.00359895
-0.00416779
-0.00484077
-0.00599656
-0.00704441
-0.00772263
-0.00834421
-0.00894986
-0.00929659
-0.0091599
-0.00828043
-0.00645953
0.000160405
-0.000748448
-0.000646396
0.000410865
-0.000614503
-0.00204091
-0.0019618
-0.00245055
-0.0035963
-0.00425317
-0.00489203
-0.00596564
-0.00700939
-0.00768836
-0.00827454
-0.00885628
-0.00918369
-0.00902006
-0.00811483
-0.00626577
0.000162693
-0.000725793
-0.000710561
0.000314632
-0.000598091
-0.0020651
-0.00209671
-0.00249699
-0.00358864
-0.00432145
-0.00494496
-0.00593872
-0.00696821
-0.00765068
-0.00820199
-0.00875944
-0.00907349
-0.0088864
-0.00795256
-0.00606978
0.000163014
-0.000699118
-0.000770517
0.000204384
-0.000590883
-0.00207417
-0.00222449
-0.00255629
-0.00357982
-0.00437345
-0.00499741
-0.0059161
-0.00692241
-0.0076136
-0.00813288
-0.00865714
-0.0089595
-0.00875361
-0.00779076
-0.00587614
0.00016102
-0.000668881
-0.000826855
8.51085e-05
-0.000592455
-0.0020732
-0.00234443
-0.00262718
-0.00357269
-0.00441127
-0.00504711
-0.00589708
-0.00687246
-0.00757593
-0.00806724
-0.00854822
-0.0088354
-0.00861751
-0.00763602
-0.00569234
0.000156541
-0.0006368
-0.000877304
-4.10515e-05
-0.000605908
-0.00206355
-0.00245385
-0.00270734
-0.00356966
-0.0044356
-0.00509071
-0.00588146
-0.00681898
-0.00753398
-0.00800504
-0.00843686
-0.00870231
-0.00848079
-0.00748887
-0.00551463
0.000149399
-0.000603781
-0.000920358
-0.000172138
-0.000633269
-0.00204924
-0.00255109
-0.00279334
-0.00357138
-0.00444794
-0.00512795
-0.00586966
-0.00676234
-0.00748539
-0.00794673
-0.00833018
-0.00856586
-0.00833823
-0.00733733
-0.00533956
0.000139797
-0.000571547
-0.000955555
-0.000304822
-0.000675504
-0.00203231
-0.00263444
-0.00288147
-0.00357848
-0.00445143
-0.0051591
-0.00586092
-0.00670349
-0.00743046
-0.007892
-0.00823166
-0.00842661
-0.00818427
-0.00717861
-0.00516757
0.000127833
-0.000541173
-0.000982751
-0.000436414
-0.000732442
-0.00201586
-0.00270303
-0.00296932
-0.003593
-0.00444817
-0.0051828
-0.00585509
-0.00664429
-0.00736842
-0.00783702
-0.00814078
-0.00828791
-0.00802353
-0.00701352
-0.00499499
0.0001137
-0.000513493
-0.00100242
-0.000564636
-0.000802663
-0.00200263
-0.00275781
-0.00305567
-0.00361504
-0.00443948
-0.00519809
-0.00585142
-0.006585
-0.00729757
-0.00777886
-0.00805874
-0.00815655
-0.00786053
-0.0068405
-0.00481952
9.76241e-05
-0.000489255
-0.00101564
-0.000687433
-0.000884153
-0.00199544
-0.0028009
-0.00313792
-0.00364334
-0.00442686
-0.00520311
-0.00584856
-0.00652799
-0.0072199
-0.0077157
-0.00798368
-0.00803561
-0.0077002
-0.00666378
-0.00464187
7.97817e-05
-0.000468722
-0.00102336
-0.000803358
-0.000974643
-0.00199656
-0.00283415
-0.00321338
-0.00367712
-0.00441235
-0.0051965
-0.00584592
-0.00647756
-0.00713859
-0.00764473
-0.00791186
-0.00792729
-0.0075494
-0.00648908
-0.00446247
6.03969e-05
-0.00045218
-0.00102687
-0.000911265
-0.0010719
-0.00200709
-0.00285893
-0.00328058
-0.0037153
-0.00439825
-0.0051792
-0.00584196
-0.0064365
-0.00705797
-0.0075656
-0.00783884
-0.0078294
-0.00741023
-0.00631997
-0.0042832
3.97251e-05
-0.000439705
-0.00102762
-0.00101062
-0.00117331
-0.00202701
-0.00287771
-0.00333909
-0.00375632
-0.00438733
-0.00515357
-0.00583329
-0.00640407
-0.0069815
-0.0074792
-0.00775994
-0.00773708
-0.00728312
-0.00616097
-0.00410907
1.80427e-05
-0.000431476
-0.0010267
-0.00110089
-0.00127635
-0.00205614
-0.00289318
-0.00338874
-0.00379829
-0.00438191
-0.00512202
-0.00581563
-0.00637623
-0.00691167
-0.00738962
-0.00767525
-0.00764869
-0.00716948
-0.00601667
-0.00394476
-4.61472e-06
-0.000427529
-0.00102528
-0.00118208
-0.00137868
-0.00209413
-0.00290768
-0.0034296
-0.00383934
-0.00438205
-0.00508696
-0.00578754
-0.00635005
-0.00685185
-0.00730324
-0.00758698
-0.00756164
-0.00706668
-0.00588762
-0.00379189
-2.76883e-05
-0.000427674
-0.00102423
-0.00125476
-0.00147843
-0.0021395
-0.0029232
-0.00346254
-0.0038775
-0.00438719
-0.00505213
-0.00575127
-0.00632325
-0.00680251
-0.00722413
-0.0074977
-0.00747248
-0.00696882
-0.00576944
-0.00364989
-5.12639e-05
-0.000431572
-0.00102454
-0.00131969
-0.00157408
-0.00219069
-0.00294112
-0.00348889
-0.00391139
-0.00439715
-0.00502103
-0.00570922
-0.00629265
-0.00676083
-0.00715443
-0.00741096
-0.00738146
-0.00687259
-0.0056587
-0.00351859
-7.52407e-05
-0.000438908
-0.00102664
-0.0013778
-0.00166468
-0.00224575
-0.00296209
-0.0035108
-0.00394063
-0.00441097
-0.00499519
-0.00566394
-0.00625645
-0.00672343
-0.00709468
-0.00733049
-0.00729212
-0.00677863
-0.00555474
-0.00339752
-9.95691e-05
-0.000449341
-0.00103084
-0.00142996
-0.00174977
-0.00230283
-0.00298637
-0.00353057
-0.00396456
-0.00442693
-0.00497567
-0.00561851
-0.00621528
-0.00668791
-0.00704455
-0.00725894
-0.00720761
-0.00668768
-0.0054566
-0.00328599
-0.000124243
-0.000462442
-0.00103732
-0.00147722
-0.0018288
-0.00236052
-0.00301405
-0.00355
-0.00398346
-0.00444349
-0.00496304
-0.00557573
-0.00617077
-0.00665248
-0.00700338
-0.00719827
-0.00713021
-0.00660051
-0.00536275
-0.00318281
-0.00014921
-0.000477843
-0.00104608
-0.00152035
-0.00190209
-0.00241776
-0.00304388
-0.00357015
-0.00399853
-0.00445951
-0.00495789
-0.00553835
-0.00612538
-0.00661564
-0.006969
-0.00714997
-0.00706423
-0.00652095
-0.00527424
-0.00308673
-0.000174478
-0.000495248
-0.00105705
-0.00156004
-0.00196975
-0.00247376
-0.00307479
-0.00359235
-0.00401153
-0.00447266
-0.0049602
-0.00550913
-0.00608191
-0.00657707
-0.00693822
-0.0071132
-0.00701287
-0.0064545
-0.00519621
-0.00299993
-0.000199999
-0.000514444
-0.00107006
-0.00159704
-0.0020321
-0.00252762
-0.0031058
-0.00361719
-0.00402574
-0.00448219
-0.00496768
-0.00548985
-0.00604392
-0.00653848
-0.00690873
-0.00708449
-0.00697502
-0.00640381
-0.00513334
-0.00292683
-0.000225781
-0.000534998
-0.00108489
-0.00163163
-0.00208955
-0.00258003
-0.00313624
-0.0036428
-0.00404349
-0.00448914
-0.0049776
-0.00548166
-0.00601613
-0.00650485
-0.00688103
-0.00706089
-0.00694671
-0.00636623
-0.0050852
-0.0028693
-0.000251897
-0.00055667
-0.00110104
-0.00166408
-0.00214233
-0.00263086
-0.00316693
-0.00366814
-0.00406612
-0.0044958
-0.00498671
-0.00548266
-0.00600005
-0.00648131
-0.0068605
-0.00704594
-0.00692912
-0.00634099
-0.00505015
-0.00282561
-0.000278514
-0.000579323
-0.00111806
-0.00169435
-0.00219046
-0.00267921
-0.00319815
-0.00369277
-0.00409398
-0.00450733
-0.00499489
-0.00548854
-0.00599333
-0.00646857
-0.00684987
-0.00704331
-0.0069277
-0.00633387
-0.00503266
-0.00279693
-0.00030545
-0.000602844
-0.001136
-0.00172326
-0.00223495
-0.00272517
-0.00323027
-0.00371477
-0.00412269
-0.00452591
-0.00500538
-0.00549896
-0.00599501
-0.00646526
-0.00684761
-0.00705059
-0.00694272
-0.00634896
-0.00503991
-0.00279177
-0.000332908
-0.000626314
-0.00115376
-0.00174974
-0.00227621
-0.00277031
-0.00326646
-0.00373841
-0.0041507
-0.00455026
-0.00501973
-0.00551413
-0.00600629
-0.00647302
-0.0068553
-0.00706547
-0.00696755
-0.00638078
-0.00507192
-0.00281592
-0.000361072
-0.000650599
-0.00117162
-0.0017721
-0.00231175
-0.00281085
-0.00330348
-0.00376609
-0.00418052
-0.00457972
-0.0050384
-0.00553342
-0.00602655
-0.00649484
-0.00687936
-0.00709485
-0.00700397
-0.00642388
-0.00512072
-0.00286745
-0.000389151
-0.000675889
-0.00119153
-0.00179158
-0.00234361
-0.00284844
-0.00333832
-0.00379403
-0.00420897
-0.00461107
-0.00505997
-0.00555369
-0.00604956
-0.00652229
-0.00691577
-0.00714185
-0.00706008
-0.00648496
-0.00518697
-0.00294208
-0.000422381
-0.000701813
-0.00121282
-0.00181526
-0.00237871
-0.00289291
-0.00337921
-0.00382876
-0.00424141
-0.00464715
-0.00509037
-0.0055803
-0.00608099
-0.00655853
-0.00696551
-0.00720791
-0.00714331
-0.0065812
-0.00528709
-0.00303761
-0.000441456
-0.000700901
-0.00119961
-0.00181939
-0.00241502
-0.00294047
-0.00342288
-0.00386475
-0.00427295
-0.00467945
-0.00512285
-0.00561217
-0.00612071
-0.00660819
-0.00703258
-0.00729682
-0.00726135
-0.00672914
-0.0054522
-0.0032
-0.000544941
-0.000771934
-0.00118673
-0.00179016
-0.00244441
-0.00299201
-0.00347408
-0.003905
-0.00429505
-0.00468853
-0.00512532
-0.00562153
-0.00614048
-0.00664657
-0.00709027
-0.00738566
-0.00739402
-0.00691725
-0.00570095
-0.00350094
-0.000466997
-0.000724986
-0.00123567
-0.00185809
-0.0024826
-0.00304267
-0.00354284
-0.0039765
-0.00435002
-0.00470237
-0.00511756
-0.0056026
-0.00611646
-0.00661829
-0.00705137
-0.00734457
-0.00738017
-0.00695851
-0.00583395
-0.00376842
-0.000596828
-0.000780576
-0.00126928
-0.00181051
-0.00240516
-0.00303286
-0.00360485
-0.00406118
-0.00446735
-0.0048114
-0.00523684
-0.00572782
-0.00626235
-0.0067564
-0.00714814
-0.00735576
-0.00728274
-0.00676306
-0.00557192
-0.00346277
-0.000475455
-0.00083247
-0.00129643
-0.00189547
-0.00255644
-0.00310461
-0.00354687
-0.00388386
-0.00421122
-0.00457376
-0.00501863
-0.00552454
-0.00608356
-0.00670155
-0.00737414
-0.00800448
-0.00841119
-0.00834034
-0.00750674
-0.00566417
-0.000290193
-0.000925053
-0.00148997
-0.00212857
-0.00266455
-0.00327575
-0.00382335
-0.00420067
-0.00451931
-0.0049516
-0.00543601
-0.00589715
-0.0061261
-0.00598641
-0.00542121
-0.004536
-0.00353033
-0.00271877
-0.00247182
-0.00311984
-0.000308191
-0.000926297
-0.0015303
-0.00208103
-0.00250107
-0.00283973
-0.00313816
-0.00348496
-0.00393427
-0.00448742
-0.00511934
-0.00585255
-0.00669055
-0.00761987
-0.00857608
-0.00945591
-0.0100956
-0.0102637
-0.00967434
-0.00807508
-0.000178106
-0.000973793
-0.00158448
-0.00216916
-0.00258708
-0.00309482
-0.0036735
-0.00429184
-0.00478212
-0.00507894
-0.00541375
-0.00587899
-0.00630415
-0.00651507
-0.00637786
-0.00588778
-0.00517657
-0.00454678
-0.00439707
-0.00509382
-0.000184553
-0.000998713
-0.0016365
-0.00215161
-0.00238686
-0.0025479
-0.00271585
-0.00297778
-0.00346594
-0.00426418
-0.00531148
-0.00659479
-0.00810116
-0.00970528
-0.0112029
-0.0124206
-0.0131939
-0.0133281
-0.0125904
-0.0107776
-0.0156413
-0.0168956
-0.0169381
-0.0142242
-0.0111575
-0.00820215
-0.00562549
-0.00371396
-0.00208276
-0.000262855
0.00149132
0.00270902
0.00371403
0.00517844
0.00696995
0.00865741
0.0102462
0.0118303
0.0134402
0.0150919
0.016777
0.0185167
0.0203381
0.0222208
0.0241683
0.0261818
0.0282775
0.0304485
0.0327233
0.0350631
0.0374463
0.0399114
0.0424852
0.0451862
0.0479667
0.0508398
0.0537746
0.0568536
0.0600022
0.0632992
0.0666725
0.0701826
0.0738093
0.0775113
0.0814413
0.0853525
0.0896039
0.0938162
0.0980151
0.102912
-0.0154146
-0.0168181
-0.0168953
-0.0142087
-0.0111496
-0.0081969
-0.00562121
-0.00371019
-0.00207958
-0.00026017
0.00149375
0.00271118
0.00371577
0.00517986
0.00697122
0.00865856
0.0102472
0.0118312
0.013441
0.0150926
0.0167775
0.0185172
0.0203385
0.0222212
0.0241687
0.0261821
0.0282779
0.0304488
0.0327235
0.0350634
0.0374466
0.0399117
0.0424854
0.0451864
0.0479668
0.0508399
0.0537747
0.0568537
0.0600023
0.0632993
0.0666727
0.0701827
0.0738094
0.0775114
0.0814414
0.0853526
0.0896039
0.0938162
0.0980151
0.102912
-0.0153041
-0.0167207
-0.0168245
-0.0141862
-0.01114
-0.00819099
-0.00561695
-0.00370674
-0.00207672
-0.000257666
0.00149608
0.00271317
0.00371726
0.00518108
0.0069724
0.00865963
0.0102482
0.011832
0.0134417
0.0150932
0.0167781
0.0185177
0.0203389
0.0222216
0.024169
0.0261825
0.0282782
0.0304491
0.0327238
0.0350636
0.0374468
0.0399119
0.0424856
0.0451866
0.047967
0.0508401
0.0537749
0.0568539
0.0600024
0.0632994
0.0666728
0.0701828
0.0738095
0.0775114
0.0814415
0.0853527
0.089604
0.0938163
0.0980152
0.102912
-0.0152256
-0.0165912
-0.0167153
-0.0141497
-0.0111253
-0.00818275
-0.00561196
-0.0037032
-0.00207378
-0.000255015
0.00149858
0.00271526
0.00371876
0.00518233
0.00697365
0.00866076
0.0102491
0.0118328
0.0134424
0.0150938
0.0167786
0.0185181
0.0203394
0.022222
0.0241694
0.0261828
0.0282785
0.0304493
0.032724
0.0350639
0.037447
0.0399121
0.0424858
0.0451867
0.0479671
0.0508402
0.053775
0.056854
0.0600025
0.0632995
0.0666729
0.0701829
0.0738096
0.0775115
0.0814416
0.0853528
0.0896041
0.0938164
0.0980153
0.102912
-0.0151324
-0.0164297
-0.0165731
-0.0140986
-0.0111043
-0.00817092
-0.00560556
-0.00369925
-0.00207054
-0.000252076
0.00150129
0.00271758
0.0037205
0.00518383
0.00697513
0.00866206
0.0102502
0.0118338
0.0134432
0.0150945
0.0167792
0.0185187
0.0203398
0.0222224
0.0241698
0.0261831
0.0282788
0.0304496
0.0327243
0.0350641
0.0374472
0.0399123
0.042486
0.0451869
0.0479673
0.0508404
0.0537751
0.0568541
0.0600027
0.0632996
0.066673
0.070183
0.0738097
0.0775116
0.0814417
0.0853528
0.0896042
0.0938165
0.0980154
0.102912
-0.0150233
-0.0162497
-0.0164122
-0.0140378
-0.0110782
-0.00815549
-0.00559744
-0.00369468
-0.00206689
-0.000248907
0.00150407
0.00272004
0.00372258
0.00518576
0.00697695
0.00866358
0.0102514
0.0118349
0.0134442
0.0150954
0.0167799
0.0185193
0.0203403
0.0222229
0.0241702
0.0261835
0.0282791
0.0304499
0.0327246
0.0350644
0.0374475
0.0399125
0.0424862
0.0451871
0.0479675
0.0508405
0.0537753
0.0568543
0.0600028
0.0632997
0.0666731
0.0701831
0.0738098
0.0775117
0.0814417
0.0853529
0.0896042
0.0938166
0.0980156
0.102912
-0.0149084
-0.0160612
-0.0162408
-0.0139712
-0.0110489
-0.00813725
-0.00558764
-0.00368932
-0.00206277
-0.000245588
0.00150668
0.00272243
0.00372499
0.00518825
0.00697928
0.00866543
0.0102529
0.0118361
0.0134454
0.0150964
0.0167808
0.01852
0.020341
0.0222234
0.0241706
0.0261839
0.0282795
0.0304503
0.0327249
0.0350647
0.0374477
0.0399127
0.0424864
0.0451873
0.0479677
0.0508407
0.0537754
0.0568544
0.0600029
0.0632999
0.0666732
0.0701832
0.0738099
0.0775118
0.0814418
0.085353
0.0896043
0.0938166
0.0980158
0.102913
-0.014792
-0.0158664
-0.0160614
-0.0139008
-0.0110179
-0.00811706
-0.00557637
-0.00368316
-0.00205812
-0.000242156
0.00150892
0.00272447
0.00372753
0.00519134
0.00698226
0.00866776
0.0102547
0.0118376
0.0134467
0.0150976
0.0167818
0.0185209
0.0203417
0.0222241
0.0241712
0.0261844
0.0282799
0.0304506
0.0327252
0.035065
0.037448
0.039913
0.0424866
0.0451875
0.0479679
0.0508409
0.0537756
0.0568546
0.0600031
0.0633
0.0666733
0.0701834
0.07381
0.0775119
0.0814419
0.0853531
0.0896044
0.0938168
0.0980161
0.102913
-0.0146737
-0.0156651
-0.0158746
-0.0138271
-0.0109858
-0.00809555
-0.00556391
-0.00367628
-0.00205304
-0.000238645
0.00151072
0.00272592
0.00372992
0.00519489
0.00698599
0.00867071
0.0102568
0.0118393
0.0134482
0.015099
0.016783
0.0185219
0.0203426
0.0222248
0.0241718
0.0261849
0.0282804
0.0304511
0.0327256
0.0350654
0.0374484
0.0399133
0.0424869
0.0451878
0.0479681
0.0508411
0.0537758
0.0568547
0.0600032
0.0633001
0.0666735
0.0701835
0.0738101
0.077512
0.081442
0.0853532
0.0896045
0.0938169
0.0980164
0.102913
-0.0145522
-0.0154576
-0.0156807
-0.0137502
-0.010953
-0.00807302
-0.0055504
-0.0036688
-0.00204765
-0.000235112
0.00151209
0.00272667
0.00373183
0.00519862
0.00699036
0.00867437
0.0102595
0.0118413
0.0134499
0.0151005
0.0167844
0.0185231
0.0203437
0.0222258
0.0241727
0.0261856
0.0282809
0.0304516
0.0327261
0.0350658
0.0374487
0.0399136
0.0424872
0.045188
0.0479684
0.0508413
0.053776
0.0568549
0.0600034
0.0633003
0.0666736
0.0701836
0.0738102
0.0775121
0.0814422
0.0853533
0.0896046
0.093817
0.0980168
0.102914
-0.0144277
-0.0152446
-0.0154796
-0.0136698
-0.0109195
-0.00804964
-0.00553593
-0.00366078
-0.00204207
-0.00023164
0.00151304
0.00272671
0.00373312
0.00520223