/*--------------------------------*- C++ -*----------------------------------*\
| =========                 |                                                 |
| \\      /  F ield         | OpenFOAM: The Open Source CFD Toolbox           |
|  \\    /   O peration     | Version:  v2012                                 |
|   \\  /    A nd           | Website:  www.openfoam.com                      |
|    \\/     M anipulation  |                                                 |
\*---------------------------------------------------------------------------*/
FoamFile
{
    version     2.0;
    format      ascii;
    class       surfaceScalarField;
    location    "4.7";
    object      phi;
}
// * * * * * * * * * * * * * * * * * * * * * * * * * * * * * * * * * * * * * //

dimensions      [0 3 -1 0 0 0 0];
oriented        oriented;


internalField   nonuniform List<scalar> 
13830
(
9.46979e-07
3.17765e-07
9.16554e-07
-1.08284e-06
9.25038e-07
2.44783e-07
9.41414e-07
1.08032e-06
9.09113e-07
-3.32581e-07
9.1578e-07
-3.63101e-07
9.44888e-07
4.90883e-08
9.0691e-07
-1.44353e-06
9.71445e-07
5.52117e-07
8.97616e-07
-8.75849e-07
9.59262e-07
3.11318e-07
9.24525e-07
-2.06724e-07
9.45899e-07
3.94725e-07
9.43779e-07
3.60098e-07
9.44761e-07
3.91334e-07
9.55568e-07
4.98326e-07
9.48254e-07
3.56484e-07
9.60772e-07
4.61404e-07
9.52218e-07
3.10004e-07
3.71635e-07
9.56232e-07
9.82322e-07
3.07974e-07
9.51914e-07
-1.05243e-06
9.59951e-07
2.36746e-07
9.77064e-07
1.06321e-06
9.45417e-07
-3.00934e-07
9.5061e-07
-3.68294e-07
9.77902e-07
2.17964e-08
9.40757e-07
-1.40638e-06
1.0048e-06
4.88077e-07
9.27963e-07
-7.99015e-07
9.94063e-07
2.45219e-07
9.52012e-07
-1.64674e-07
9.80065e-07
3.66673e-07
9.73837e-07
3.66325e-07
9.7818e-07
3.8699e-07
9.93479e-07
4.83028e-07
9.79573e-07
3.7039e-07
1.00415e-06
4.36831e-07
9.79631e-07
3.3452e-07
3.43258e-07
1.00801e-06
1.01851e-06
2.9892e-07
9.89466e-07
-1.02339e-06
9.96316e-07
2.29897e-07
1.01343e-06
1.04609e-06
9.83581e-07
-2.71083e-07
9.86692e-07
-3.71405e-07
1.01051e-06
-2.02261e-09
9.77464e-07
-1.37333e-06
1.03755e-06
4.27989e-07
9.66026e-07
-7.27488e-07
1.02648e-06
1.84761e-07
9.90738e-07
-1.28928e-07
1.00757e-06
3.49843e-07
1.01777e-06
3.56125e-07
1.00509e-06
3.99667e-07
1.03747e-06
4.50644e-07
1.01038e-06
3.97484e-07
1.03816e-06
4.09046e-07
1.01666e-06
3.56023e-07
3.29684e-07
1.03024e-06
1.05564e-06
2.91062e-07
1.02947e-06
-9.9722e-07
1.03454e-06
2.24822e-07
1.05025e-06
1.03038e-06
1.0236e-06
-2.44435e-07
1.02408e-06
-3.71878e-07
1.04316e-06
-2.1101e-08
1.01715e-06
-1.34732e-06
1.06995e-06
3.75185e-07
1.01209e-06
-6.69628e-07
1.06036e-06
1.36492e-07
1.03901e-06
-1.07575e-07
1.03771e-06
3.51143e-07
1.06283e-06
3.31002e-07
1.03737e-06
4.25131e-07
1.07069e-06
4.17317e-07
1.04723e-06
4.20944e-07
1.06352e-06
3.92755e-07
1.05454e-06
3.65011e-07
3.26303e-07
1.05792e-06
1.09384e-06
2.84779e-07
1.07161e-06
-9.74992e-07
1.075e-06
2.21433e-07
1.0881e-06
1.01728e-06
1.06556e-06
-2.21899e-07
1.06323e-06
-3.69549e-07
1.07687e-06
-3.4737e-08
1.05912e-06
-1.32958e-06
1.10268e-06
3.31632e-07
1.06451e-06
-6.31463e-07
1.09691e-06
1.0409e-07
1.09233e-06
-1.0299e-07
1.07602e-06
3.67451e-07
1.10535e-06
3.0167e-07
1.07972e-06
4.50766e-07
1.10219e-06
3.94845e-07
1.08991e-06
4.33227e-07
1.0954e-06
3.87265e-07
1.09396e-06
3.66447e-07
3.26398e-07
1.09386e-06
1.13329e-06
2.80336e-07
1.11539e-06
-9.57095e-07
1.11776e-06
2.19063e-07
1.12763e-06
1.00741e-06
1.10951e-06
-2.0378e-07
1.10478e-06
-3.64822e-07
1.11292e-06
-4.28822e-08
1.10214e-06
-1.3188e-06
1.13681e-06
2.96963e-07
1.11893e-06
-6.13582e-07
1.13664e-06
8.63824e-08
1.14501e-06
-1.11363e-07
1.12399e-06
3.88471e-07
1.14871e-06
2.76951e-07
1.13121e-06
4.68264e-07
1.14204e-06
3.84015e-07
1.1377e-06
4.37572e-07
1.13794e-06
3.8702e-07
1.13857e-06
3.65819e-07
3.27114e-07
1.13786e-06
1.17415e-06
2.77886e-07
1.16034e-06
-9.43287e-07
1.16263e-06
2.16771e-07
1.16936e-06
1.00069e-06
1.15546e-06
-1.89881e-07
1.1493e-06
-3.58666e-07
1.15241e-06
-4.59931e-08
1.1454e-06
-1.31179e-06
1.17324e-06
2.69123e-07
1.17165e-06
-6.11987e-07
1.17912e-06
7.89092e-08
1.19485e-06
-1.27089e-07
1.1779e-06
4.0542e-07
1.19559e-06
2.59259e-07
1.18664e-06
4.77214e-07
1.19061e-06
3.80047e-07
1.18928e-06
4.38898e-07
1.18808e-06
3.88217e-07
1.18855e-06
3.65346e-07
3.27788e-07
1.18788e-06
1.21656e-06
2.77506e-07
1.2062e-06
-9.32926e-07
1.20931e-06
2.13662e-07
1.21352e-06
9.96484e-07
1.2034e-06
-1.79759e-07
1.19707e-06
-3.52344e-07
1.19586e-06
-4.4783e-08
1.18907e-06
-1.30499e-06
1.21221e-06
2.45981e-07
1.22118e-06
-6.20957e-07
1.22331e-06
7.67743e-08
1.24228e-06
-1.46054e-07
1.23246e-06
4.1524e-07
1.24492e-06
2.46794e-07
1.24145e-06
4.80691e-07
1.24304e-06
3.78455e-07
1.24249e-06
4.39443e-07
1.24125e-06
3.89464e-07
1.24134e-06
3.65249e-07
3.28423e-07
1.24071e-06
1.26066e-06
2.79196e-07
1.25301e-06
-9.2527e-07
1.25758e-06
2.09094e-07
1.26006e-06
9.93995e-07
1.25326e-06
-1.7295e-07
1.24797e-06
-3.47055e-07
1.24322e-06
-4.00335e-08
1.23399e-06
-1.29577e-06
1.25353e-06
2.26445e-07
1.26783e-06
-6.35258e-07
1.2682e-06
7.64028e-08
1.2884e-06
-1.66258e-07
1.2848e-06
4.18838e-07
1.29463e-06
2.36968e-07
1.29399e-06
4.8133e-07
1.2954e-06
3.77045e-07
1.29538e-06
4.3946e-07
1.29435e-06
3.905e-07
1.29443e-06
3.65171e-07
3.2905e-07
1.2938e-06
1.30662e-06
2.82855e-07
1.30104e-06
-9.19694e-07
1.30738e-06
2.02757e-07
1.30881e-06
9.92569e-07
1.30487e-06
-1.69014e-07
1.30152e-06
-3.43706e-07
1.29401e-06
-3.25212e-08
1.28108e-06
-1.28284e-06
1.29705e-06
2.1048e-07
1.3127e-06
-6.50915e-07
1.31321e-06
7.58971e-08
1.33397e-06
-1.8702e-07
1.33488e-06
4.17924e-07
1.34379e-06
2.28058e-07
1.34476e-06
4.80363e-07
1.34649e-06
3.75316e-07
1.34729e-06
4.3866e-07
1.34646e-06
3.91334e-07
1.34685e-06
3.64782e-07
3.29579e-07
1.34632e-06
1.35465e-06
2.88224e-07
1.35071e-06
-9.15757e-07
1.35879e-06
1.94679e-07
1.35955e-06
9.91808e-07
1.35797e-06
-1.67429e-07
1.35707e-06
-3.4281e-07
1.34758e-06
-2.30299e-08
1.33094e-06
-1.2662e-06
1.34293e-06
1.98496e-07
1.35714e-06
-6.65133e-07
1.3583e-06
7.47429e-08
1.37929e-06
-2.08016e-07
1.38378e-06
4.1344e-07
1.39264e-06
2.19193e-07
1.39502e-06
4.77983e-07
1.39695e-06
3.73384e-07
1.39882e-06
4.36796e-07
1.39819e-06
3.91958e-07
1.39909e-06
3.63887e-07
3.29846e-07
1.39882e-06
1.40502e-06
2.94858e-07
1.40239e-06
-9.13129e-07
1.41187e-06
1.85201e-07
1.41224e-06
9.91437e-07
1.41229e-06
-1.67477e-07
1.41391e-06
-3.44431e-07
1.40327e-06
-1.23866e-08
1.38378e-06
-1.24672e-06
1.39155e-06
1.90732e-07
1.40247e-06
-6.76052e-07
1.40383e-06
7.33758e-08
1.42449e-06
-2.28679e-07
1.43239e-06
4.05549e-07
1.44167e-06
2.09905e-07
1.44586e-06
4.73791e-07
1.44791e-06
3.71336e-07
1.45103e-06
4.33681e-07
1.4507e-06
3.92284e-07
1.45219e-06
3.62396e-07
3.29695e-07
1.45234e-06
1.45796e-06
3.02148e-07
1.45628e-06
-9.11452e-07
1.46658e-06
1.74902e-07
1.46695e-06
9.91065e-07
1.46772e-06
-1.68244e-07
1.47144e-06
-3.48149e-07
1.4605e-06
-1.44712e-09
1.43952e-06
-1.22574e-06
1.44331e-06
1.86943e-07
1.4499e-06
-6.82649e-07
1.45055e-06
7.27272e-08
1.46985e-06
-2.47972e-07
1.48115e-06
3.94247e-07
1.49112e-06
1.99935e-07
1.4978e-06
4.6711e-07
1.50009e-06
3.69048e-07
1.50469e-06
4.2908e-07
1.50483e-06
3.92141e-07
1.50695e-06
3.60272e-07
3.2903e-07
1.50762e-06
1.51361e-06
3.09413e-07
1.51237e-06
-9.10217e-07
1.52282e-06
1.64458e-07
1.52386e-06
9.90021e-07
1.52437e-06
-1.68749e-07
1.52932e-06
-3.53107e-07
1.51889e-06
8.98497e-09
1.49781e-06
-1.20465e-06
1.49841e-06
1.86342e-07
1.50052e-06
-6.84759e-07
1.4995e-06
7.37504e-08
1.51601e-06
-2.64485e-07
1.53035e-06
3.79907e-07
1.54095e-06
1.89334e-07
1.55076e-06
4.57303e-07
1.55355e-06
3.6626e-07
1.5599e-06
4.22727e-07
1.56073e-06
3.91311e-07
1.56351e-06
3.57496e-07
3.27815e-07
1.56472e-06
1.57201e-06
3.16015e-07
1.57053e-06
-9.08732e-07
1.58053e-06
1.54453e-07
1.58318e-06
9.87374e-07
1.58254e-06
-1.68112e-07
1.58765e-06
-3.58214e-07
1.57837e-06
1.82678e-08
1.55817e-06
-1.18445e-06
1.55676e-06
1.8775e-07
1.555e-06
-6.83e-07
1.55177e-06
7.69736e-08
1.56404e-06
-2.76755e-07
1.58044e-06
3.63508e-07
1.59114e-06
1.78637e-07
1.60433e-06
4.44111e-07
1.60783e-06
3.6276e-07
1.61612e-06
4.14441e-07
1.61785e-06
3.89574e-07
1.6213e-06
3.54051e-07
3.26048e-07
1.62306e-06
1.63311e-06
3.2145e-07
1.63057e-06
-9.06196e-07
1.63981e-06
1.45217e-07
1.64505e-06
9.82133e-07
1.64262e-06
-1.65683e-07
1.64687e-06
-3.62467e-07
1.63914e-06
2.59982e-08
1.62008e-06
-1.16539e-06
1.61797e-06
1.89863e-07
1.61344e-06
-6.78472e-07
1.60821e-06
8.21999e-08
1.61517e-06
-2.83714e-07
1.63221e-06
3.4647e-07
1.64196e-06
1.68885e-07
1.65818e-06
4.27891e-07
1.66237e-06
3.58576e-07
1.67251e-06
4.04302e-07
1.67531e-06
3.86774e-07
1.67941e-06
3.49945e-07
3.23732e-07
1.68173e-06
1.69679e-06
3.25413e-07
1.69244e-06
-9.0185e-07
1.70086e-06
1.36795e-07
1.70949e-06
9.73502e-07
1.70491e-06
-1.61099e-07
1.7077e-06
-3.65254e-07
1.70166e-06
3.20307e-08
1.68324e-06
-1.14697e-06
1.68155e-06
1.91548e-07
1.67535e-06
-6.72273e-07
1.66907e-06
8.84879e-08
1.67041e-06
-2.85057e-07
1.68671e-06
3.30173e-07
1.69421e-06
1.61382e-07
1.71248e-06
4.09624e-07
1.717e-06
3.54052e-07
1.72857e-06
3.92734e-07
1.73243e-06
3.82908e-07
1.73715e-06
3.45227e-07
3.20866e-07
1.74002e-06
1.76294e-06
3.2779e-07
1.75623e-06
-8.95142e-07
1.76399e-06
1.29039e-07
1.77643e-06
9.61064e-07
1.76959e-06
-1.54264e-07
1.77082e-06
-3.66482e-07
1.7664e-06
3.64464e-08
1.74767e-06
-1.12823e-06
1.74715e-06
1.92068e-07
1.73991e-06
-6.65035e-07
1.73393e-06
9.44701e-08
1.73019e-06
-2.81324e-07
1.74495e-06
3.15417e-07
1.74911e-06
1.57225e-07
1.7681e-06
3.90628e-07
1.7724e-06
3.49756e-07
1.78465e-06
3.80481e-07
1.78942e-06
3.78137e-07
1.79463e-06
3.4002e-07
3.17464e-07
1.79803e-06
1.8315e-06
3.2863e-07
1.82218e-06
-8.85821e-07
1.82945e-06
1.21768e-07
1.84571e-06
9.44801e-07
1.83675e-06
-1.453e-07
1.83674e-06
-3.66475e-07
1.8337e-06
3.94874e-08
1.81375e-06
-1.10828e-06
1.81469e-06
1.91131e-07
1.8064e-06
-6.56753e-07
1.80203e-06
9.88468e-08
1.79429e-06
-2.73592e-07
1.80762e-06
3.02095e-07
1.80797e-06
1.56871e-07
1.82653e-06
3.72064e-07
1.83006e-06
3.46231e-07
1.84214e-06
3.68399e-07
1.84753e-06
3.72745e-07
1.85303e-06
3.34526e-07
3.13592e-07
1.8569e-06
1.90244e-06
3.2809e-07
1.89056e-06
-8.73945e-07
1.89744e-06
1.14897e-07
1.91724e-06
9.24998e-07
1.90643e-06
-1.34495e-07
1.90567e-06
-3.65709e-07
1.90369e-06
4.14663e-08
1.88205e-06
-1.08665e-06
1.88441e-06
1.88773e-07
1.87462e-06
-6.46964e-07
1.87269e-06
1.00781e-07
1.86206e-06
-2.62964e-07
1.87482e-06
2.89334e-07
1.87168e-06
1.60007e-07
1.88918e-06
3.54563e-07
1.89169e-06
3.43722e-07
1.9029e-06
3.5719e-07
1.90861e-06
3.67042e-07
1.91415e-06
3.28981e-07
3.09376e-07
1.91837e-06
1.97582e-06
3.26378e-07
1.96166e-06
-8.59795e-07
1.96809e-06
1.08468e-07
1.99099e-06
9.021e-07
1.97876e-06
-1.22262e-07
1.97761e-06
-3.64557e-07
1.9764e-06
4.26751e-08
1.95308e-06
-1.06333e-06
1.9567e-06
1.85154e-07
1.94484e-06
-6.35101e-07
1.94562e-06
9.99985e-08
1.93281e-06
-2.50153e-07
1.94612e-06
2.76016e-07
1.94033e-06
1.65797e-07
1.95671e-06
3.38186e-07
1.95837e-06
3.42069e-07
1.96833e-06
3.47224e-07
1.97412e-06
3.61255e-07
1.97952e-06
3.23575e-07
3.04977e-07
1.98392e-06
2.05172e-06
3.23711e-07
2.03568e-06
-8.43761e-07
2.04153e-06
1.02615e-07
2.06704e-06
8.76599e-07
2.05387e-06
-1.09094e-07
2.05247e-06
-3.63155e-07
2.05182e-06
4.33261e-08
2.0271e-06
-1.03862e-06
2.03188e-06
1.80374e-07
2.01754e-06
-6.20764e-07
2.02093e-06
9.66134e-08
2.00615e-06
-2.35378e-07
2.02081e-06
2.61359e-07
2.01333e-06
1.73278e-07
2.0288e-06
3.2272e-07
2.03004e-06
3.40826e-07
2.03872e-06
3.38548e-07
2.04449e-06
3.55477e-07
2.04967e-06
3.18394e-07
3.00517e-07
2.05413e-06
2.13027e-06
3.20282e-07
2.11276e-06
-8.26255e-07
2.11789e-06
9.74935e-08
2.1455e-06
8.48987e-07
2.13192e-06
-9.55174e-08
2.13021e-06
-3.61443e-07
2.12999e-06
4.35437e-08
2.10417e-06
-1.0128e-06
2.11017e-06
1.7438e-07
2.09317e-06
-6.03763e-07
2.09892e-06
9.08635e-08
2.08209e-06
-2.18549e-07
2.09825e-06
2.45201e-07
2.08985e-06
1.81672e-07
2.10453e-06
3.08038e-07
2.10587e-06
3.39487e-07
2.11339e-06
3.31033e-07
2.11916e-06
3.49702e-07
2.12417e-06
3.13387e-07
2.96047e-07
2.12864e-06
2.21162e-06
3.16247e-07
2.19303e-06
-8.07666e-07
2.19728e-06
9.32399e-08
2.22652e-06
8.19752e-07
2.21304e-06
-8.2035e-08
2.21088e-06
-3.59284e-07
2.21103e-06
4.33933e-08
2.18426e-06
-9.86033e-07
2.19166e-06
1.6698e-07
2.17193e-06
-5.84031e-07
2.17984e-06
8.29549e-08
2.16084e-06
-1.99549e-07
2.17814e-06
2.27899e-07
2.16935e-06
1.90462e-07
2.18313e-06
2.94254e-07
2.18496e-06
3.3766e-07
2.19145e-06
3.24543e-07
2.19726e-06
3.43895e-07
2.20222e-06
3.08423e-07
2.91546e-07
2.20672e-06
2.29591e-06
3.11728e-07
2.2766e-06
-7.88357e-07
2.27988e-06
8.99623e-08
2.31024e-06
7.89392e-07
2.29729e-06
-6.90805e-08
2.29458e-06
-3.56578e-07
2.29507e-06
4.29077e-08
2.26736e-06
-9.58328e-07
2.27642e-06
1.57919e-07
2.25393e-06
-5.61542e-07
2.26387e-06
7.30215e-08
2.24275e-06
-1.7843e-07
2.26059e-06
2.10062e-07
2.25176e-06
1.99283e-07
2.26435e-06
2.8167e-07
2.26686e-06
3.35152e-07
2.27246e-06
3.18935e-07
2.27824e-06
3.38122e-07
2.28336e-06
3.03299e-07
2.86967e-07
2.28794e-06
2.38329e-06
3.06823e-07
2.36361e-06
-7.68677e-07
2.36583e-06
8.77394e-08
2.3968e-06
7.58428e-07
2.38471e-06
-5.69962e-08
2.38144e-06
-3.5331e-07
2.38226e-06
4.20884e-08
2.35355e-06
-9.29617e-07
2.36452e-06
1.46955e-07
2.33928e-06
-5.36303e-07
2.35109e-06
6.12112e-08
2.32813e-06
-1.55477e-07
2.34587e-06
1.92327e-07
2.33739e-06
2.07764e-07
2.34844e-06
2.70621e-07
2.35167e-06
3.3192e-07
2.35643e-06
3.14173e-07
2.36198e-06
3.32579e-07
2.36759e-06
2.9768e-07
2.82249e-07
2.37231e-06
2.47387e-06
3.01627e-07
2.45417e-06
-7.4897e-07
2.4553e-06
8.66103e-08
2.48633e-06
7.27398e-07
2.47536e-06
-4.60291e-08
2.47157e-06
-3.49521e-07
2.47278e-06
4.08769e-08
2.44296e-06
-8.99799e-07
2.45599e-06
1.33929e-07
2.4281e-06
-5.08413e-07
2.44153e-06
4.77805e-08
2.41723e-06
-1.31176e-07
2.4343e-06
1.75255e-07
2.42658e-06
2.15492e-07
2.43583e-06
2.61363e-07
2.43978e-06
3.2797e-07
2.44325e-06
3.10707e-07
2.44859e-06
3.27243e-07
2.45523e-06
2.91038e-07
2.77375e-07
2.4601e-06
2.56779e-06
2.96237e-07
2.54838e-06
-7.29563e-07
2.54844e-06
8.65545e-08
2.579e-06
6.96836e-07
2.56931e-06
-3.63408e-08
2.56504e-06
-3.4525e-07
2.56679e-06
3.91313e-08
2.53575e-06
-8.6876e-07
2.55088e-06
1.18798e-07
2.52055e-06
-4.78086e-07
2.53524e-06
3.30921e-08
2.51017e-06
-1.0611e-07
2.52614e-06
1.59288e-07
2.51956e-06
2.22077e-07
2.52689e-06
2.54033e-07
2.53161e-06
3.23248e-07
2.53903e-06
3.03281e-07
2.54602e-06
3.20258e-07
2.54659e-06
2.90465e-07
2.72385e-07
2.55158e-06
2.66516e-06
2.90759e-07
2.64634e-06
-7.10747e-07
2.64542e-06
8.74719e-08
2.67503e-06
6.67231e-07
2.66671e-06
-2.80199e-08
2.66195e-06
-3.40492e-07
2.66443e-06
3.6652e-08
2.63206e-06
-8.36394e-07
2.6492e-06
1.01656e-07
2.61678e-06
-4.45663e-07
2.63228e-06
1.75968e-08
2.60709e-06
-8.09183e-08
2.62153e-06
1.44841e-07
2.61636e-06
2.2725e-07
2.62224e-06
2.48148e-07
2.62586e-06
3.19636e-07
2.6284e-06
3.00736e-07
2.63376e-06
3.14898e-07
2.64182e-06
2.82402e-07
2.67295e-07
2.64691e-06
2.76611e-06
2.85306e-07
2.74811e-06
-6.92748e-07
2.7464e-06
8.9177e-08
2.77464e-06
6.3899e-07
2.76771e-06
-2.1086e-08
2.7624e-06
-3.35185e-07
2.76582e-06
3.32343e-08
2.73208e-06
-8.02651e-07
2.75094e-06
8.2793e-08
2.71701e-06
-4.1173e-07
2.73263e-06
1.97081e-09
2.70817e-06
-5.64513e-08
2.72053e-06
1.32481e-07
2.71719e-06
2.30582e-07
2.72158e-06
2.43762e-07
2.72449e-06
3.16725e-07
2.72624e-06
2.98988e-07
2.73127e-06
3.09872e-07
2.74113e-06
2.7254e-07
2.62371e-07
2.74605e-06
2.87078e-06
2.79984e-07
2.85373e-06
-6.757e-07
2.85151e-06
9.14042e-08
2.87809e-06
6.12407e-07
2.87253e-06
-1.55242e-08
2.86653e-06
-3.29186e-07
2.87107e-06
2.86961e-08
2.83596e-06
-7.67545e-07
2.85615e-06
6.25991e-08
2.82135e-06
-3.76924e-07
2.83645e-06
-1.31309e-08
2.81361e-06
-3.36112e-08
2.82317e-06
1.22916e-07
2.82206e-06
2.317e-07
2.82597e-06
2.39845e-07
2.83601e-06
3.06691e-07
2.8432e-06
2.91796e-07
2.84951e-06
3.03564e-07
2.84445e-06
2.77597e-07
2.57847e-07
2.84898e-06
2.97934e-06
2.74883e-07
2.96329e-06
-6.59642e-07
2.96084e-06
9.38491e-08
2.9856e-06
5.87648e-07
2.98138e-06
-1.12985e-08
2.97448e-06
-3.22293e-07
2.98027e-06
2.2906e-08
2.94385e-06
-7.31126e-07
2.96498e-06
4.14716e-08
2.92987e-06
-3.41808e-07
2.94398e-06
-2.72425e-08
2.92335e-06
-1.29804e-08
2.92998e-06
1.16282e-07
2.93133e-06
2.30352e-07
2.93001e-06
2.41159e-07
2.93399e-06
3.02711e-07
2.93424e-06
2.91547e-07
2.93831e-06
2.99501e-07
2.95158e-06
2.64321e-07
2.53346e-07
2.95608e-06
3.09197e-06
2.7007e-07
3.07685e-06
-6.44524e-07
3.0745e-06
9.62041e-08
3.09738e-06
5.6477e-07
3.09448e-06
-8.39683e-09
3.08643e-06
-3.14251e-07
3.09355e-06
1.57857e-08
3.05595e-06
-6.93518e-07
3.07755e-06
1.98681e-08
3.04267e-06
-3.06928e-07
3.05546e-06
-4.00325e-08
3.03712e-06
5.36068e-09
3.04156e-06
1.11838e-07
3.04396e-06
2.27951e-07
3.04719e-06
2.37933e-07
3.05942e-06
2.90479e-07
3.06648e-06
2.84488e-07
3.07234e-06
2.93638e-07
3.06286e-06
2.73805e-07
2.49036e-07
3.06717e-06
3.20886e-06
2.65572e-07
3.19454e-06
-6.3021e-07
3.19258e-06
9.81698e-08
3.21357e-06
5.43781e-07
3.21203e-06
-6.85934e-09
3.20258e-06
-3.04802e-07
3.21104e-06
7.32456e-09
3.1724e-06
-6.54878e-07
3.19406e-06
-1.7878e-09
3.15983e-06
-2.727e-07
3.17133e-06
-5.15291e-08
3.15419e-06
2.25016e-08
3.15902e-06
1.07007e-07
3.16085e-06
2.26122e-07
3.16384e-06
2.34939e-07
3.15946e-06
2.94864e-07
3.16028e-06
2.83664e-07
3.16591e-06
2.88007e-07
3.178e-06
2.61718e-07
2.44005e-07
3.18303e-06
3.3302e-06
2.61385e-07
3.31652e-06
-6.16527e-07
3.31514e-06
9.95438e-08
3.33437e-06
5.24553e-07
3.33412e-06
-6.60406e-09
3.32332e-06
-2.94007e-07
3.33268e-06
-2.03529e-09
3.29365e-06
-6.15847e-07
3.31446e-06
-2.25941e-08
3.28188e-06
-2.40127e-07
3.2912e-06
-6.08492e-08
3.27678e-06
3.69292e-08
3.27966e-06
1.04127e-07
3.27584e-06
2.29935e-07
3.27361e-06
2.37168e-07
3.27823e-06
2.90245e-07
3.28003e-06
2.81866e-07
3.28511e-06
2.82933e-07
3.29841e-06
2.4841e-07
2.39025e-07
3.30339e-06
3.4562e-06
2.57464e-07
3.44294e-06
-6.0326e-07
3.44232e-06
1.00161e-07
3.45989e-06
5.06982e-07
3.46089e-06
-7.6084e-09
3.44886e-06
-2.81977e-07
3.45866e-06
-1.18359e-08
3.41989e-06
-5.77067e-07
3.43897e-06
-4.16791e-08
3.40937e-06
-2.10531e-07
3.41493e-06
-6.64051e-08
3.4048e-06
4.70577e-08
3.40129e-06
1.07643e-07
3.41364e-06
2.17579e-07
3.41633e-06
2.34476e-07
3.42713e-06
2.79451e-07
3.43527e-06
2.73724e-07
3.44003e-06
2.78168e-07
3.42439e-06
2.64056e-07
2.35207e-07
3.42821e-06
3.58707e-06
2.53742e-07
3.57397e-06
-5.90162e-07
3.57428e-06
9.98542e-08
3.59017e-06
4.91087e-07
3.59264e-06
-1.00725e-08
3.57917e-06
-2.68514e-07
3.58949e-06
-2.21567e-08
3.55069e-06
-5.3827e-07
3.56877e-06
-5.97509e-08
3.54017e-06
-1.81932e-07
3.54571e-06
-7.195e-08
3.53449e-06
5.82818e-08
3.53517e-06
1.06962e-07
3.53191e-06
2.20836e-07
3.52968e-06
2.36707e-07
3.53153e-06
2.77599e-07
3.53379e-06
2.71466e-07
3.53994e-06
2.72021e-07
3.554e-06
2.49993e-07
2.30386e-07
3.55882e-06
3.72297e-06
2.50159e-07
3.70989e-06
-5.77085e-07
3.71111e-06
9.86353e-08
3.72554e-06
4.76662e-07
3.72916e-06
-1.3694e-08
3.71485e-06
-2.54203e-07
3.72469e-06
-3.20017e-08
3.68725e-06
-5.00832e-07
3.70281e-06
-7.5312e-08
3.67706e-06
-1.56176e-07
3.68055e-06
-7.54449e-08
3.67085e-06
6.79838e-08
3.67261e-06
1.05208e-07
3.66664e-06
2.26803e-07
3.66479e-06
2.38557e-07
3.66642e-06
2.75965e-07
3.66831e-06
2.69576e-07
3.67389e-06
2.66447e-07
3.68978e-06
2.34096e-07
2.25909e-07
3.69426e-06
3.86411e-06
2.46633e-07
3.8509e-06
-5.63868e-07
3.85305e-06
9.64813e-08
3.8661e-06
4.63611e-07
3.87063e-06
-1.82165e-08
3.85605e-06
-2.39628e-07
3.86446e-06
-4.04142e-08
3.8298e-06
-4.6617e-07
3.84117e-06
-8.66855e-08
3.82084e-06
-1.3584e-07
3.81691e-06
-7.15206e-08
3.81397e-06
7.09269e-08
3.80442e-06
1.14763e-07
3.82588e-06
2.05336e-07
3.83093e-06
2.33505e-07
3.84107e-06
2.65832e-07
3.8495e-06
2.61145e-07
3.85225e-06
2.63696e-07
3.83206e-06
2.54288e-07
2.23604e-07
3.83436e-06
4.01071e-06
2.43075e-07
3.99715e-06
-5.50302e-07
4.00039e-06
9.3234e-08
4.01185e-06
4.52159e-07
4.01762e-06
-2.39887e-08
4.00226e-06
-2.24271e-07
4.01038e-06
-4.85292e-08
3.97606e-06
-4.31858e-07
3.98755e-06
-9.81738e-08
3.96508e-06
-1.13368e-07
3.96744e-06
-7.38838e-08
3.9638e-06
7.45721e-08
3.96332e-06
1.15242e-07
3.95239e-06
2.16265e-07
3.95101e-06
2.34883e-07
3.95186e-06
2.64981e-07
3.95428e-06
2.58732e-07
3.96079e-06
2.57183e-07
3.97665e-06
2.38423e-07
2.19208e-07
3.98105e-06
4.1629e-06
2.39459e-07
4.14899e-06
-5.36397e-07
4.1532e-06
8.90314e-08
4.16336e-06
4.41995e-07
4.16962e-06
-3.02493e-08
4.15471e-06
-2.09363e-07
4.16073e-06
-5.45532e-08
4.12918e-06
-4.003e-07
4.13816e-06
-1.07157e-07
4.11712e-06
-9.23299e-08
4.11915e-06
-7.59071e-08
4.10449e-06
8.92281e-08
4.09843e-06
1.21299e-07
4.10202e-06
2.12682e-07
4.10278e-06
2.34123e-07
4.10369e-06
2.64067e-07
4.10531e-06
2.57109e-07
4.11106e-06
2.51435e-07
4.12877e-06
2.20717e-07
2.15235e-07
4.13274e-06
4.32093e-06
2.35713e-07
4.3066e-06
-5.22065e-07
4.31175e-06
8.38829e-08
4.3208e-06
4.3294e-07
4.32694e-06
-3.63835e-08
4.31353e-06
-1.9595e-07
4.31562e-06
-5.66497e-08
4.28967e-06
-3.74346e-07
4.2919e-06
-1.09388e-07
4.2787e-06
-7.91301e-08
4.26763e-06
-6.48378e-08
4.27976e-06
7.70999e-08
4.27602e-06
1.25037e-07
4.28819e-06
2.00515e-07
4.29406e-06
2.28249e-07
4.30604e-06
2.52082e-07
4.31385e-06
2.49306e-07
4.31336e-06
2.51921e-07
4.28866e-06
2.45415e-07
2.14949e-07
4.28895e-06
4.48504e-06
2.31764e-07
4.4701e-06
-5.07128e-07
4.47643e-06
7.75484e-08
4.48403e-06
4.25342e-07
4.49054e-06
-4.28923e-08
4.47746e-06
-1.82873e-07
4.47889e-06
-5.80773e-08
4.45245e-06
-3.47901e-07
4.45634e-06
-1.13283e-07
4.43977e-06
-6.25551e-08
4.43106e-06
-5.61278e-08
4.4252e-06
8.29551e-08
4.41842e-06
1.3182e-07
4.42134e-06
1.97591e-07
4.42266e-06
2.26931e-07
4.42602e-06
2.48722e-07
4.42621e-06
2.49115e-07
4.43169e-06
2.46444e-07
4.44911e-06
2.27997e-07
2.1089e-07
4.45317e-06
4.65534e-06
2.2763e-07
4.63991e-06
-4.91693e-07
4.64719e-06
7.0263e-08
4.65389e-06
4.18642e-07
4.65975e-06
-4.87542e-08
4.64811e-06
-1.71228e-07
4.64787e-06
-5.78388e-08
4.62162e-06
-3.21651e-07
4.62679e-06
-1.18453e-07
4.60661e-06
-4.23777e-08
4.60093e-06
-5.04459e-08
4.5938e-06
9.00882e-08
4.58893e-06
1.36688e-07
4.58924e-06
1.97277e-07
4.59284e-06
2.23331e-07
4.59524e-06
2.46323e-07
4.59991e-06
2.44449e-07
4.6058e-06
2.4055e-07
4.6169e-06
2.16901e-07
2.04688e-07
4.6231e-06
4.83216e-06
2.2326e-07
4.81618e-06
-4.75714e-07
4.82441e-06
6.20279e-08
4.83044e-06
4.12621e-07
4.83496e-06
-5.32747e-08
4.82572e-06
-1.61988e-07
4.82244e-06
-5.45665e-08
4.79849e-06
-2.97693e-07
4.80091e-06
-1.20878e-07
4.78408e-06
-2.55436e-08
4.7721e-06
-3.84727e-08
4.76988e-06
9.23173e-08
4.76455e-06
1.42014e-07
4.76512e-06
1.96705e-07
4.7684e-06
2.20056e-07
4.77335e-06
2.41373e-07
4.78294e-06
2.34855e-07
4.79376e-06
2.29732e-07
4.79245e-06
2.18211e-07
1.9809e-07
4.79905e-06
5.01572e-06
2.18609e-07
4.9991e-06
-4.59096e-07
5.00836e-06
5.27679e-08
5.01378e-06
4.07202e-07
5.01688e-06
-5.63721e-08
5.00962e-06
-1.54728e-07
5.00457e-06
-4.9518e-08
4.98108e-06
-2.742e-07
4.98224e-06
-1.22044e-07
4.96682e-06
-1.01167e-08
4.95366e-06
-2.53135e-08
4.95213e-06
9.38458e-08
4.94731e-06
1.46829e-07
4.94812e-06
1.95896e-07
4.95137e-06
2.1681e-07
4.95661e-06
2.36129e-07
4.96006e-06
2.31411e-07
4.96298e-06
2.26807e-07
4.97461e-06
2.06581e-07
1.91157e-07
4.98154e-06
5.20624e-06
2.13681e-07
5.18905e-06
-4.41908e-07
5.1991e-06
4.27214e-08
5.20456e-06
4.01744e-07
5.20534e-06
-5.71515e-08
5.20055e-06
-1.49941e-07
5.19372e-06
-4.26842e-08
5.17069e-06
-2.51172e-07
5.1698e-06
-1.21154e-07
5.15664e-06
3.04155e-09
5.14227e-06
-1.09472e-08
5.14146e-06
9.46614e-08
5.13723e-06
1.51057e-07
5.13814e-06
1.94992e-07
5.14122e-06
2.13725e-07
5.14701e-06
2.30339e-07
5.15405e-06
2.24373e-07
5.16344e-06
2.17413e-07
5.16428e-06
2.0574e-07
1.84639e-07
5.1708e-06
5.40403e-06
2.08426e-07
5.38622e-06
-4.241e-07
5.39703e-06
3.1913e-08
5.40271e-06
3.96063e-07
5.40106e-06
-5.54957e-08
5.39827e-06
-1.47152e-07
5.39053e-06
-3.49425e-08
5.36689e-06
-2.27534e-07
5.36488e-06
-1.19141e-07
5.35335e-06
1.45683e-08
5.33875e-06
3.65145e-09
5.33762e-06
9.57944e-08
5.33467e-06
1.54003e-07
5.33559e-06
1.94073e-07
5.33865e-06
2.10662e-07
5.34416e-06
2.24828e-07
5.34792e-06
2.20612e-07
5.35221e-06
2.13124e-07
5.3614e-06
1.96552e-07
1.78682e-07
5.36736e-06
5.60934e-06
2.02827e-07
5.59091e-06
-4.05669e-07
5.60232e-06
2.04951e-08
5.60871e-06
3.89673e-07
5.60436e-06
-5.11458e-08
5.60298e-06
-1.45771e-07
5.59496e-06
-2.69166e-08
5.57052e-06
-2.03101e-07
5.56733e-06
-1.15949e-07
5.55765e-06
2.42525e-08
5.54305e-06
1.82511e-08
5.54157e-06
9.72717e-08
5.53969e-06
1.55884e-07
5.54055e-06
1.93213e-07
5.54336e-06
2.07852e-07
5.54896e-06
2.19231e-07
5.55339e-06
2.16176e-07
5.55995e-06
2.06564e-07
5.56597e-06
1.90532e-07
1.73353e-07
5.5713e-06
5.82244e-06
1.96869e-07
5.80344e-06
-3.86673e-07
5.81528e-06
8.65591e-09
5.82281e-06
3.82146e-07
5.81557e-06
-4.39041e-08
5.81522e-06
-1.45426e-07
5.80709e-06
-1.87859e-08
5.7823e-06
-1.78307e-07
5.77748e-06
-1.1113e-07
5.77e-06
3.17295e-08
5.75537e-06
3.28873e-08
5.75347e-06
9.91628e-08
5.75222e-06
1.57133e-07
5.75338e-06
1.92055e-07
5.75613e-06
2.05108e-07
5.76186e-06
2.13496e-07
5.76825e-06
2.09788e-07
5.77671e-06
1.98102e-07
5.77835e-06
1.88892e-07
1.68328e-07
5.78338e-06
6.04366e-06
1.90503e-07
6.02403e-06
-3.67039e-07
6.03626e-06
-3.57394e-09
6.0449e-06
3.73507e-07
6.03543e-06
-3.44323e-08
6.03468e-06
-1.4468e-07
6.02754e-06
-1.16403e-08
6.00206e-06
-1.52835e-07
5.99627e-06
-1.05338e-07
5.99015e-06
3.78542e-08
5.97615e-06
4.68853e-08
5.97335e-06
1.01959e-07
5.97304e-06
1.57442e-07
5.97457e-06
1.90528e-07
5.97717e-06
2.02507e-07
5.98249e-06
2.08174e-07
5.98658e-06
2.057e-07
5.99038e-06
1.94306e-07
5.9988e-06
1.80471e-07
1.63388e-07
6.00374e-06
6.27328e-06
1.83719e-07
6.25306e-06
-3.4681e-07
6.26548e-06
-1.5994e-08
6.27548e-06
3.63502e-07
6.26388e-06
-2.28324e-08
6.26251e-06
-1.43313e-07
6.25629e-06
-5.41402e-09
6.23076e-06
-1.27307e-07
6.22347e-06
-9.80522e-08
6.2186e-06
4.27241e-08
6.20553e-06
5.99562e-08
6.20212e-06
1.05368e-07
6.20233e-06
1.57234e-07
6.20396e-06
1.88896e-07
6.20642e-06
2.00052e-07
6.2118e-06
2.02796e-07
6.21804e-06
1.99461e-07
6.22527e-06
1.87074e-07
6.22774e-06
1.77996e-07
1.58724e-07
6.23241e-06
6.51162e-06
1.76502e-07
6.49083e-06
-3.26017e-07
6.50335e-06
-2.85152e-08
6.51467e-06
3.52183e-07
6.50136e-06
-9.52818e-09
6.49901e-06
-1.40956e-07
6.49386e-06
-2.65274e-10
6.46847e-06
-1.0192e-07
6.45947e-06
-8.90489e-08
6.45585e-06
4.63467e-08
6.44389e-06
7.19144e-08
6.43969e-06
1.09571e-07
6.44007e-06
1.56849e-07
6.4421e-06
1.86864e-07
6.44493e-06
1.97227e-07
6.44992e-06
1.97801e-07
6.45402e-06
1.95367e-07
6.45767e-06
1.83417e-07
6.46548e-06
1.70189e-07
1.54283e-07
6.46992e-06
6.75904e-06
1.68805e-07
6.73761e-06
-3.04592e-07
6.7501e-06
-4.10015e-08
6.76289e-06
3.39387e-07
6.74829e-06
5.07445e-09
6.74445e-06
-1.37111e-07
6.74037e-06
3.80776e-09
6.71553e-06
-7.70804e-08
6.70485e-06
-7.83659e-08
6.70201e-06
4.91824e-08
6.69128e-06
8.26463e-08
6.68663e-06
1.14224e-07
6.68718e-06
1.563e-07
6.68958e-06
1.84463e-07
6.69243e-06
1.94375e-07
6.69696e-06
1.9327e-07
6.7027e-06
1.89628e-07
6.70932e-06
1.76796e-07
6.71222e-06
1.67294e-07
1.50128e-07
6.71637e-06
7.0158e-06
1.60656e-07
6.99381e-06
-2.82609e-07
7.0062e-06
-5.33874e-08
7.0204e-06
3.25189e-07
7.00491e-06
2.0566e-08
6.99932e-06
-1.31522e-07
6.99627e-06
6.85493e-09
6.9723e-06
-5.31071e-08
6.95984e-06
-6.59126e-08
6.95752e-06
5.15081e-08
6.94819e-06
9.19781e-08
6.94324e-06
1.19166e-07
6.94371e-06
1.55835e-07
6.94622e-06
1.81952e-07
6.94931e-06
1.91289e-07
6.95356e-06
1.89014e-07
6.95776e-06
1.85424e-07
6.96146e-06
1.73101e-07
6.96842e-06
1.60335e-07
1.45851e-07
6.9727e-06
7.28233e-06
1.52014e-07
7.25972e-06
-2.59996e-07
7.27187e-06
-6.55348e-08
7.28763e-06
3.09425e-07
7.27211e-06
3.60835e-08
7.26398e-06
-1.23388e-07
7.26171e-06
9.12067e-09
7.23899e-06
-3.03847e-08
7.22495e-06
-5.18673e-08
7.22272e-06
5.37371e-08
7.21485e-06
9.98488e-08
7.20986e-06
1.24153e-07
7.21023e-06
1.55469e-07
7.21281e-06
1.79364e-07
7.21602e-06
1.88086e-07
7.22004e-06
1.84994e-07
7.22558e-06
1.79885e-07
7.23154e-06
1.67138e-07
7.23446e-06
1.57412e-07
1.41579e-07
7.23873e-06
7.55891e-06
1.42934e-07
7.5358e-06
-2.36884e-07
7.54757e-06
-7.73056e-08
7.565e-06
2.91998e-07
7.54903e-06
5.20489e-08
7.53842e-06
-1.1278e-07
7.53732e-06
1.02229e-08
7.51598e-06
-9.04415e-09
7.50055e-06
-3.64376e-08
7.49813e-06
5.6161e-08
7.49169e-06
1.06285e-07
7.48676e-06
1.29084e-07
7.48697e-06
1.55254e-07
7.48948e-06
1.7686e-07
7.49274e-06
1.84825e-07
7.49694e-06
1.80796e-07
7.50109e-06
1.75728e-07
7.50467e-06
1.63561e-07
7.51068e-06
1.51406e-07
1.37389e-07
7.51487e-06
7.84596e-06
1.33427e-07
7.82265e-06
-2.13568e-07
7.83338e-06
-8.80399e-08
7.8532e-06
2.72183e-07
7.83603e-06
6.9216e-08
7.82308e-06
-9.98351e-08
7.82358e-06
9.72681e-09
7.80342e-06
1.11133e-08
7.78701e-06
-2.00273e-08
7.78411e-06
5.90651e-08
7.77898e-06
1.11414e-07
7.77431e-06
1.33753e-07
7.77438e-06
1.55187e-07
7.77692e-06
1.74312e-07
7.78025e-06
1.81501e-07
7.78439e-06
1.7665e-07
7.78919e-06
1.70937e-07
7.79452e-06
1.58222e-07
7.79763e-06
1.483e-07
1.33381e-07
7.80164e-06
8.14381e-06
1.23577e-07
8.12052e-06
-1.90276e-07
8.12996e-06
-9.74769e-08
8.15195e-06
2.50193e-07
8.13682e-06
8.43451e-08
8.13065e-06
-9.36709e-08
8.12174e-06
1.86355e-08
8.10163e-06
3.1224e-08
8.08484e-06
-3.23615e-09
8.08126e-06
6.26484e-08
8.07718e-06
1.15492e-07
8.07293e-06
1.38007e-07
8.07286e-06
1.55258e-07
8.07545e-06
1.71722e-07
8.07858e-06
1.78364e-07
8.08261e-06
1.72626e-07
8.08667e-06
1.66876e-07
8.09029e-06
1.546e-07
8.09555e-06
1.43038e-07
1.29602e-07
8.09933e-06
8.45296e-06
1.13377e-07
8.42932e-06
-1.66633e-07
8.43806e-06
-1.06225e-07
8.46069e-06
2.27563e-07
8.44742e-06
9.76149e-08
8.42739e-06
-7.36381e-08
8.42655e-06
1.94801e-08
8.41121e-06
4.65584e-08
8.39434e-06
1.36346e-08
8.38988e-06
6.7111e-08
8.38667e-06
1.187e-07
8.38299e-06
1.41686e-07
8.38276e-06
1.55495e-07
8.38543e-06
1.6905e-07
8.38843e-06
1.75358e-07
8.39234e-06
1.68716e-07
8.3967e-06
1.62519e-07
8.40115e-06
1.50148e-07
8.40495e-06
1.39243e-07
1.26039e-07
8.40851e-06
8.7737e-06
1.02964e-07
8.75028e-06
-1.43213e-07
8.75718e-06
-1.13128e-07
8.77813e-06
2.06615e-07
8.76135e-06
1.14389e-07
8.74378e-06
-5.60646e-08
8.74424e-06
1.90201e-08