/*--------------------------------*- C++ -*----------------------------------*\
| =========                 |                                                 |
| \\      /  F ield         | OpenFOAM: The Open Source CFD Toolbox           |
|  \\    /   O peration     | Version:  v2012                                 |
|   \\  /    A nd           | Website:  www.openfoam.com                      |
|    \\/     M anipulation  |                                                 |
\*---------------------------------------------------------------------------*/
FoamFile
{
    version     2.0;
    format      ascii;
    class       volVectorField;
    location    "4.7";
    object      U;
}
// * * * * * * * * * * * * * * * * * * * * * * * * * * * * * * * * * * * * * //

dimensions      [0 1 -1 0 0 0 0];


internalField   nonuniform List<vector> 
7000
(
(1.00581 0.00259233 0)
(1.01517 -0.00994709 0)
(0.945825 0.00251237 0)
(1.02402 0.0125282 0)
(0.98665 -0.00459921 0)
(0.956355 -0.00526887 0)
(0.996199 0.00117953 0)
(1.01835 -0.0274496 0)
(0.923939 0.0125068 0)
(1.14017 -0.0221064 0)
(0.78741 0.00930157 0)
(1.24635 -0.0070067 0)
(0.740977 0.0134274 0)
(1.26248 0.0139932 0)
(0.765871 0.0166567 0)
(1.23694 0.0250852 0)
(0.814113 0.019169 0)
(1.19674 0.0297645 0)
(0.860045 0.0212263 0)
(1.15811 0.0303583 0)
(1.00649 0.00250432 0)
(1.01333 -0.00964048 0)
(0.948259 0.00246941 0)
(1.02163 0.0123281 0)
(0.989084 -0.00413019 0)
(0.957308 -0.00532307 0)
(0.995673 0.000555135 0)
(1.01312 -0.0265471 0)
(0.927859 0.0111286 0)
(1.12885 -0.019855 0)
(0.793611 0.0077964 0)
(1.23227 -0.00564857 0)
(0.746481 0.0131793 0)
(1.24473 0.0141072 0)
(0.781984 0.0168281 0)
(1.20658 0.0244109 0)
(0.856193 0.0199544 0)
(1.14162 0.0284319 0)
(0.935696 0.0228226 0)
(1.07089 0.0284556 0)
(1.00778 0.0024194 0)
(1.01011 -0.0093454 0)
(0.953767 0.00238076 0)
(1.0166 0.0121084 0)
(0.992116 -0.00368986 0)
(0.958934 -0.00541989 0)
(0.994204 0.00013318 0)
(1.00589 -0.0258762 0)
(0.936284 0.0096113 0)
(1.11123 -0.0180292 0)
(0.814488 0.00576953 0)
(1.20398 -0.00434495 0)
(0.776196 0.0123421 0)
(1.20038 0.0140339 0)
(0.834177 0.0171583 0)
(1.14129 0.0229945 0)
(0.925715 0.0214522 0)
(1.06811 0.0263163 0)
(0.993172 0.0246429 0)
(1.01964 0.026635 0)
(1.00948 0.00235158 0)
(1.00584 -0.0090939 0)
(0.961963 0.00230612 0)
(1.01006 0.0119181 0)
(0.994865 -0.0033257 0)
(0.96141 -0.00545634 0)
(0.991856 -0.000218636 0)
(0.997581 -0.0253336 0)
(0.94845 0.00836117 0)
(1.08775 -0.0164772 0)
(0.852201 0.00413041 0)
(1.16149 -0.00342753 0)
(0.832935 0.0118288 0)
(1.13552 0.0133271 0)
(0.903198 0.0179642 0)
(1.0695 0.021197 0)
(0.978236 0.0228779 0)
(1.01881 0.0247973 0)
(1.01164 0.0256393 0)
(1.00193 0.0259748 0)
(1.0113 0.00229534 0)
(1.00098 -0.00887839 0)
(0.971605 0.00226313 0)
(1.00356 0.0117514 0)
(0.997025 -0.00301056 0)
(0.964955 -0.005438 0)
(0.989156 -0.000489011 0)
(0.989663 -0.0249437 0)
(0.961477 0.00735454 0)
(1.06235 -0.0153747 0)
(0.899023 0.00304504 0)
(1.11361 -0.0030806 0)
(0.899398 0.0121265 0)
(1.07471 0.0121558 0)
(0.960899 0.0191019 0)
(1.02342 0.0197608 0)
(1.00325 0.0237979 0)
(1.00161 0.024275 0)
(1.01226 0.0259233 0)
(1.00025 0.0259999 0)
(1.01298 0.0022521 0)
(0.99602 -0.0086997 0)
(0.981208 0.00223817 0)
(0.998305 0.0116178 0)
(0.998625 -0.00274765 0)
(0.969479 -0.00538167 0)
(0.987079 -0.000670542 0)
(0.983356 -0.0246946 0)
(0.971959 0.0065472 0)
(1.03996 -0.0147489 0)
(0.942388 0.00243893 0)
(1.07193 -0.00321366 0)
(0.955138 0.012907 0)
(1.0371 0.0110398 0)
(0.996668 0.0201168 0)
(1.00912 0.0190175 0)
(1.01269 0.0242585 0)
(1.00382 0.0242539 0)
(1.01205 0.0259202 0)
(1.0055 0.0261262 0)
(1.01436 0.00222438 0)
(0.99132 -0.00855858 0)
(0.989605 0.0022173 0)
(0.994776 0.011523 0)
(0.999923 -0.00254105 0)
(0.974609 -0.00529782 0)
(0.986625 -0.000762045 0)
(0.979229 -0.0245432 0)
(0.978102 0.00590775 0)
(1.02344 -0.0145419 0)
(0.973695 0.00215414 0)
(1.04295 -0.00362322 0)
(0.991238 0.0136508 0)
(1.02296 0.0102515 0)
(1.01464 0.0207218 0)
(1.01304 0.0187543 0)
(1.01777 0.0244211 0)
(1.01262 0.0243108 0)
(1.01561 0.0258629 0)
(1.01319 0.0261805 0)
(1.0154 0.00221314 0)
(0.987044 -0.0084513 0)
(0.996246 0.00219152 0)
(0.992815 0.0114627 0)
(1.0012 -0.00238648 0)
(0.979919 -0.00520197 0)
(0.988264 -0.000773787 0)
(0.977242 -0.0244235 0)
(0.980357 0.00539035 0)
(1.01252 -0.0146455 0)
(0.991476 0.00205609 0)
(1.02606 -0.00415947 0)
(1.00971 0.014117 0)
(1.02153 0.00972751 0)
(1.02231 0.0209518 0)
(1.02104 0.0186555 0)
(1.02215 0.0244357 0)
(1.02097 0.0243562 0)
(1.02097 0.0258209 0)
(1.02033 0.0262072 0)
(1.01617 0.00221853 0)
(0.983251 -0.00837148 0)
(1.00117 0.00215391 0)
(0.991947 0.0114274 0)
(1.00259 -0.00227743 0)
(0.985072 -0.00511316 0)
(0.991749 -0.000719816 0)
(0.977019 -0.0242759 0)
(0.980441 0.00495403 0)
(1.0051 -0.0149358 0)
(0.998805 0.00204142 0)
(1.01689 -0.00475057 0)
(1.01669 0.014321 0)
(1.02322 0.00932198 0)
(1.02483 0.020993 0)
(1.02646 0.0185722 0)
(1.02539 0.0244133 0)
(1.02632 0.0244176 0)
(1.02544 0.0258048 0)
(1.02528 0.0262521 0)
(1.0167 0.00224019 0)
(0.980036 -0.00831293 0)
(1.00474 0.00209952 0)
(0.991717 0.0114081 0)
(1.00399 -0.00220853 0)
(0.989791 -0.00504758 0)
(0.996351 -0.000613533 0)
(0.978071 -0.0240648 0)
(0.980075 0.00458435 0)
(0.99922 -0.015305 0)
(0.999721 0.0020386 0)
(1.01113 -0.00536515 0)
(1.01748 0.0143462 0)
(1.02385 0.00895972 0)
(1.02477 0.0209719 0)
(1.02836 0.0184806 0)
(1.02687 0.0243837 0)
(1.0286 0.0244942 0)
(1.02796 0.0257919 0)
(1.02782 0.0263059 0)
(1.01699 0.00227684 0)
(0.977606 -0.00827108 0)
(1.00734 0.00202647 0)
(0.991844 0.0113982 0)
(1.00524 -0.00217447 0)
(0.993779 -0.00501574 0)
(1.00121 -0.000467604 0)
(0.979904 -0.0237807 0)
(0.980353 0.00428816 0)
(0.993941 -0.0156725 0)
(0.997372 0.0020199 0)
(1.00607 -0.00599733 0)
(1.01521 0.0142422 0)
(1.02274 0.00861547 0)
(1.02332 0.0209083 0)
(1.02793 0.018388 0)
(1.02682 0.024317 0)
(1.02885 0.0245613 0)
(1.02881 0.0257498 0)
(1.02867 0.0263423 0)
(1.01692 0.00232575 0)
(0.976252 -0.00824265 0)
(1.00914 0.00193643 0)
(0.992202 0.0113937 0)
(1.00625 -0.00216748 0)
(0.996745 -0.00502207 0)
(1.00556 -0.00029512 0)
(0.982093 -0.0234338 0)
(0.981701 0.00407685 0)
(0.989201 -0.0159798 0)
(0.993805 0.00198951 0)
(1.00053 -0.00663649 0)
(1.01127 0.0140282 0)
(1.0202 0.00826708 0)
(1.02112 0.0207748 0)
(1.02638 0.0182999 0)
(1.02593 0.0241802 0)
(1.02816 0.0246026 0)
(1.02881 0.0256626 0)
(1.02875 0.0263469 0)
(1.01638 0.00238267 0)
(0.976216 -0.00822453 0)
(1.01007 0.0018342 0)
(0.992751 0.011391 0)
(1.00706 -0.00217647 0)
(0.998525 -0.0050641 0)
(1.0088 -0.000110312 0)
(0.984325 -0.023047 0)
(0.984024 0.00395384 0)
(0.98536 -0.0161895 0)
(0.990321 0.00196811 0)
(0.99441 -0.00725421 0)
(1.00632 0.0137039 0)
(1.01646 0.00789457 0)
(1.01841 0.0205403 0)
(1.02428 0.0182098 0)
(1.02468 0.0239586 0)
(1.0272 0.0246168 0)
(1.02852 0.025532 0)
(1.02865 0.026312 0)
(1.01529 0.00244227 0)
(0.977562 -0.00821266 0)
(1.00995 0.00172662 0)
(0.993493 0.0113845 0)
(1.00781 -0.00218834 0)
(0.999183 -0.0051316 0)
(1.01058 7.2061e-05 0)
(0.986423 -0.0226482 0)
(0.98685 0.00390909 0)
(0.98282 -0.0162847 0)
(0.987729 0.00197652 0)
(0.988254 -0.00780537 0)
(1.00081 0.0132709 0)
(1.01161 0.00749446 0)
(1.01515 0.0201777 0)
(1.02164 0.0181006 0)
(1.02313 0.0236417 0)
(1.02607 0.0245958 0)
(1.02799 0.0253631 0)
(1.02842 0.0262349 0)
(1.0137 0.00249904 0)
(0.980103 -0.00820146 0)
(1.00865 0.00162086 0)
(0.99446 0.011365 0)
(1.0086 -0.00219012 0)
(0.999014 -0.0052088 0)
(1.0109 0.000238703 0)
(0.988337 -0.0222621 0)
(0.989486 0.00392207 0)
(0.981799 -0.0162738 0)
(0.986368 0.00203769 0)
(0.982935 -0.00825017 0)
(0.995263 0.0127457 0)
(1.00588 0.00707767 0)
(1.01117 0.0196675 0)
(1.01818 0.0179556 0)
(1.02094 0.0232195 0)
(1.0244 0.0245168 0)
(1.02686 0.0251507 0)
(1.02767 0.0261159 0)
(1.01178 0.00254815 0)
(0.983447 -0.00818412 0)
(1.00624 0.00152215 0)
(0.995679 0.0113211 0)
(1.00946 -0.00217137 0)
(0.99842 -0.00527932 0)
(1.01007 0.000380342 0)
(0.990094 -0.0219001 0)
(0.991257 0.00396569 0)
(0.982218 -0.016183 0)
(0.986076 0.00215776 0)
(0.979281 -0.00854598 0)
(0.990225 0.0121688 0)
(0.999743 0.00667505 0)
(1.00644 0.0190119 0)
(1.0137 0.017771 0)
(1.01768 0.0226936 0)
(1.02166 0.0243641 0)
(1.0246 0.0248862 0)
(1.02583 0.0259518 0)
(1.00977 0.00258625 0)
(0.987109 -0.00815344 0)
(1.00302 0.00143239 0)
(0.997114 0.0112421 0)
(1.01031 -0.00212551 0)
(0.997751 -0.00533102 0)
(1.00864 0.000493052 0)
(0.991729 -0.021558 0)
(0.99179 0.00401307 0)
(0.983686 -0.0160437 0)
(0.986306 0.00231453 0)
(0.977706 -0.00866085 0)
(0.986152 0.0115931 0)
(0.993944 0.00634017 0)
(1.00119 0.0182417 0)
(1.00829 0.0175566 0)
(1.0132 0.0220808 0)
(1.01757 0.0241388 0)
(1.02089 0.0245726 0)
(1.02254 0.0257416 0)
(1.0079 0.0026117 0)
(0.990639 -0.00810342 0)
(0.999454 0.00135065 0)
(0.99863 0.0111209 0)
(1.01106 -0.00205007 0)
(0.997194 -0.00535902 0)
(1.00717 0.000576684 0)
(0.993209 -0.0212198 0)
(0.991193 0.0040444 0)
(0.985615 -0.0158832 0)
(0.986443 0.00248138 0)
(0.977995 -0.00861076 0)
(0.983295 0.0110539 0)
(0.989217 0.00612349 0)
(0.996023 0.0174082 0)
(1.00251 0.0173356 0)
(1.00787 0.0214125 0)
(1.01237 0.0238519 0)
(1.01595 0.0242203 0)
(1.01794 0.0254885 0)
(1.00635 0.00262432 0)
(0.993716 -0.00803052 0)
(0.996027 0.00127472 0)
(1.00001 0.010955 0)
(1.01166 -0.00194588 0)
(0.996775 -0.00536611 0)
(1.00607 0.000634927 0)
(0.994446 -0.0208653 0)
(0.989991 0.0040471 0)
(0.987425 -0.0157091 0)
(0.98615 0.00262346 0)
(0.979397 -0.00842498 0)
(0.981661 0.0105609 0)
(0.986016 0.00605223 0)
(0.991673 0.0165726 0)
(0.99723 0.0171408 0)
(1.00253 0.0207308 0)
(1.00688 0.0235198 0)
(1.01057 0.0238446 0)
(1.01275 0.0251961 0)
(1.00519 0.00262502 0)
(0.996179 -0.00793405 0)
(0.993102 0.00120296 0)
(1.00104 0.0107463 0)
(1.01213 -0.00181585 0)
(0.996444 -0.00535932 0)
(1.00547 0.000673377 0)
(0.995359 -0.0204799 0)
(0.988826 0.00401758 0)
(0.988748 -0.0155106 0)
(0.985504 0.00271069 0)
(0.981013 -0.00813299 0)
(0.981038 0.0100984 0)
(0.984342 0.00612489 0)
(0.988678 0.0157776 0)
(0.993208 0.0169938 0)
(0.998105 0.0200771 0)
(1.00208 0.0231582 0)
(1.00572 0.0234649 0)
(1.00794 0.024874 0)
(1.0044 0.00261541 0)
(0.998012 -0.0078157 0)
(0.990865 0.00113514 0)
(1.00159 0.0104995 0)
(1.01251 -0.0016648 0)
(0.996166 -0.00534523 0)
(1.00524 0.000698585 0)
(0.995954 -0.0200604 0)
(0.988122 0.00395755 0)
(0.989513 -0.0152663 0)
(0.984822 0.00272608 0)
(0.982219 -0.0077667 0)
(0.981071 0.00964049 0)
(0.983796 0.00631305 0)
(0.987087 0.0150296 0)
(0.990725 0.0168986 0)
(0.995106 0.0194891 0)
(0.998639 0.0227709 0)
(1.0021 0.0230816 0)
(1.00421 0.0245359 0)
(1.00393 0.00259731 0)
(0.999295 -0.00767861 0)
(0.989328 0.00107228 0)
(1.00166 0.0102202 0)
(1.01283 -0.00149858 0)
(0.995962 -0.00532787 0)
(1.00517 0.000715388 0)
(0.996319 -0.0196116 0)
(0.987952 0.00387002 0)
(0.989876 -0.0149601 0)
(0.984384 0.00266677 0)
(0.982851 -0.0073456 0)
(0.981377 0.009157 0)
(0.983816 0.00658104 0)
(0.986482 0.014318 0)
(0.989492 0.0168341 0)
(0.993408 0.018999 0)
(0.996549 0.0223804 0)
(0.999781 0.0226788 0)
(1.00171 0.0241783 0)
(1.00367 0.0025724 0)
(1.00016 -0.00752645 0)
(0.988393 0.00101611 0)
(1.00135 0.00991369 0)
(1.01308 -0.00132321 0)
(0.995883 -0.00530717 0)
(1.00506 0.000724122 0)
(0.996565 -0.0191411 0)
(0.98815 0.0037591 0)
(0.990064 -0.0145889 0)
(0.984271 0.00254234 0)
(0.983088 -0.00686854 0)
(0.981664 0.00862137 0)
(0.98395 0.00690604 0)
(0.986274 0.0136488 0)
(0.98892 0.0167415 0)
(0.992476 0.0185801 0)
(0.995339 0.0220399 0)
(0.998345 0.0223035 0)
(1.00007 0.0238083 0)
(1.00353 0.00254212 0)
(1.00074 -0.00736298 0)
(0.987927 0.00096854 0)
(1.00078 0.00958497 0)
(1.0132 -0.00114584 0)
(0.995963 -0.00528058 0)
(1.00484 0.000726091 0)
(0.996767 -0.0186547 0)
(0.988508 0.00362193 0)
(0.990244 -0.0141437 0)
(0.984399 0.00234801 0)
(0.983209 -0.00632037 0)
(0.981803 0.00803119 0)
(0.983984 0.00725165 0)
(0.986039 0.0130567 0)
(0.9885 0.0166221 0)
(0.991785 0.0181641 0)
(0.994467 0.0216943 0)
(0.997282 0.0219766 0)
(0.998839 0.0234648 0)
(1.00344 0.00250768 0)
(1.00115 -0.00719172 0)
(0.987809 0.000930677 0)
(1.00008 0.00924073 0)
(1.01316 -0.00097319 0)
(0.996196 -0.00524737 0)
(1.0045 0.0007233 0)
(0.996943 -0.0181481 0)
(0.988904 0.00344577 0)
(0.990478 -0.0136234 0)
(0.984643 0.00208989 0)
(0.983403 -0.00571247 0)
(0.981811 0.0074182 0)
(0.983917 0.00757301 0)
(0.985657 0.0125141 0)
(0.988009 0.0165276 0)
(0.991065 0.0178166 0)
(0.993637 0.0213168 0)
(0.996304 0.0216152 0)
(0.997709 0.0231031 0)
(1.00332 0.00246978 0)
(1.00147 -0.00701488 0)
(0.987952 0.000901965 0)
(0.999351 0.00888762 0)
(1.01292 -0.000809316 0)
(0.996544 -0.0052042 0)
(1.00411 0.000710623 0)
(0.99709 -0.0176164 0)
(0.989307 0.00322929 0)
(0.990759 -0.0130546 0)
(0.984923 0.00179637 0)
(0.983725 -0.00505004 0)
(0.98178 0.00680565 0)
(0.983839 0.0079074 0)
(0.985223 0.0119967 0)
(0.987494 0.0163878 0)
(0.990321 0.01754 0)
(0.992808 0.0209728 0)
(0.995358 0.0212787 0)
(0.996638 0.022736 0)
(1.00315 0.0024289 0)
(1.00176 -0.00683588 0)
(0.988294 0.00088433 0)
(0.998645 0.00852845 0)
(1.01247 -0.000659004 0)
(0.996954 -0.00514848 0)
(1.0037 0.000690585 0)
(0.997209 -0.0170784 0)
(0.989717 0.00298356 0)
(0.991058 -0.0124201 0)
(0.985213 0.00143372 0)
(0.98414 -0.00429932 0)
(0.9818 0.00618601 0)
(0.983831 0.0082216 0)
(0.984861 0.0115727 0)
(0.987076 0.0162175 0)
(0.989678 0.0172843 0)
(0.992097 0.0205717 0)
(0.994531 0.0208887 0)
(0.995694 0.0223763 0)
(1.00291 0.0023869 0)
(1.00203 -0.00666091 0)
(0.988791 0.000882033 0)
(0.998016 0.00816907 0)
(1.01184 -0.000522701 0)
(0.997385 -0.00509777 0)
(1.00328 0.000679368 0)
(0.99732 -0.0165227 0)
(0.990127 0.00267604 0)
(0.991349 -0.0117006 0)
(0.985518 0.00103822 0)
(0.984589 -0.00356663 0)
(0.98191 0.00565909 0)
(0.983919 0.0084584 0)
(0.984655 0.0112188 0)
(0.986826 0.0160046 0)
(0.989204 0.017113 0)
(0.991552 0.0202471 0)
(0.993883 0.020447 0)
(0.994948 0.0219186 0)
(1.00261 0.00234311 0)
(1.00228 -0.00648715 0)
(0.989396 0.000885026 0)
(0.9975 0.00782571 0)
(1.01106 -0.000404313 0)
(0.997808 -0.00503851 0)
(1.00286 0.00064438 0)
(0.997442 -0.0159147 0)
(0.99051 0.00234349 0)
(0.99162 -0.011 0)
(0.985841 0.000697137 0)
(0.985024 -0.00284663 0)
(0.98212 0.00515843 0)
(0.984072 0.00865846 0)
(0.984594 0.0109492 0)
(0.986748 0.0157541 0)
(0.988928 0.0168456 0)
(0.991194 0.0199966 0)
(0.993404 0.0201721 0)
(0.994398 0.0215372 0)
(1.00226 0.00229777 0)
(1.00248 -0.00631886 0)
(0.990065 0.000893545 0)
(0.997128 0.00749498 0)
(1.01019 -0.000307731 0)
(0.998207 -0.00494751 0)
(1.00242 0.000570239 0)
(0.997592 -0.0152719 0)
(0.99083 0.00192281 0)
(0.991854 -0.0101304 0)
(0.986196 0.000164514 0)
(0.985402 -0.00200241 0)
(0.982414 0.004654 0)
(0.984269 0.00881619 0)
(0.984646 0.0106721 0)
(0.986763 0.0155863 0)
(0.98878 0.0165787 0)
(0.99099 0.0196407 0)
(0.993053 0.0197843 0)
(0.993972 0.0211558 0)
(1.00189 0.00225939 0)
(1.00264 -0.00617109 0)
(0.990748 0.000930628 0)
(0.996911 0.0071611 0)
(1.0093 -0.000215429 0)
(0.998578 -0.00488019 0)
(1.00197 0.000532024 0)
(0.997764 -0.0146469 0)
(0.991084 0.00151408 0)
(0.992035 -0.00933126 0)
(0.986573 -0.000175777 0)
(0.985731 -0.00135574 0)
(0.982775 0.00430551 0)
(0.98446 0.00895365 0)
(0.984781 0.010481 0)
(0.986851 0.0152962 0)
(0.988703 0.0163986 0)
(0.990802 0.0193059 0)
(0.992721 0.0194377 0)
(0.993598 0.0207342 0)
(1.00153 0.00221054 0)
(1.00274 -0.00600361 0)
(0.991404 0.000934404 0)
(0.996839 0.00689486 0)
(1.00844 -0.000188189 0)
(0.998921 -0.00475598 0)
(1.00152 0.00040883 0)
(0.997948 -0.0139388 0)
(0.991257 0.00107193 0)
(0.992165 -0.00850744 0)
(0.986972 -0.000543476 0)
(0.985982 -0.000692608 0)
(0.983212 0.00403844 0)
(0.984658 0.0089359 0)
(0.984954 0.0104512 0)
(0.986965 0.0149896 0)
(0.988712 0.0161658 0)
(0.990726 0.0189449 0)
(0.992508 0.0192323 0)
(0.993316 0.0204135 0)
(1.00121 0.00217438 0)
(1.00277 -0.00587676 0)
(0.992007 0.00096625 0)
(0.996881 0.0066107 0)
(1.00766 -0.000112193 0)
(0.999232 -0.0046809 0)
(1.00109 0.000314963 0)
(0.99813 -0.013286 0)
(0.991379 0.000619655 0)
(0.992218 -0.00766394 0)
(0.987383 -0.000978691 0)
(0.986205 -4.47529e-05 0)
(0.983672 0.00393893 0)
(0.984871 0.00871122 0)
(0.985201 0.0104627 0)
(0.987099 0.0146741 0)
(0.988746 0.0160265 0)
(0.990633 0.0184194 0)
(0.992281 0.0189197 0)
(0.993015 0.0200591 0)
(1.00093 0.00214694 0)
(1.00276 -0.00576296 0)
(0.992533 0.0010187 0)
(0.997006 0.00632842 0)
(1.00699 -5.28598e-05 0)
(0.999514 -0.00457801 0)
(1.00068 0.000241343 0)
(0.998299 -0.0126218 0)
(0.991459 0.000231533 0)
(0.992217 -0.00697763 0)
(0.987798 -0.0011148 0)
(0.986396 0.000258729 0)
(0.984166 0.00391237 0)
(0.985109 0.0087286 0)
(0.985514 0.0104054 0)
(0.987288 0.0142962 0)
(0.988869 0.0158421 0)
(0.990652 0.0181849 0)
(0.992237 0.0187042 0)
(0.992846 0.0197092 0)
(1.0007 0.00208946 0)
(1.00272 -0.00558213 0)
(0.992975 0.000968685 0)
(0.997173 0.0061729 0)
(1.00642 -0.000151433 0)
(0.999767 -0.00429716 0)
(1.0003 -4.13289e-05 0)
(0.998442 -0.0117399 0)
(0.99154 -0.000307532 0)
(0.992155 -0.0059092 0)
(0.9882 -0.00161656 0)
(0.986577 0.00101912 0)
(0.984721 0.00351651 0)
(0.985384 0.00889766 0)
(0.98587 0.0101816 0)
(0.98756 0.01425 0)
(0.989134 0.0155347 0)
(0.990765 0.0180352 0)
(0.992237 0.0183408 0)
(0.992759 0.0192658 0)
(1.00053 0.00207609 0)
(1.00266 -0.00551265 0)
(0.993328 0.00102588 0)
(0.997356 0.00590769 0)
(1.00594 -7.05102e-05 0)
(0.999992 -0.00424444 0)
(0.999976 -0.000113406 0)
(0.998561 -0.0111044 0)
(0.99164 -0.000710781 0)
(0.992061 -0.00529286 0)
(0.988609 -0.0017645 0)
(0.986757 0.00142525 0)
(0.985253 0.00349013 0)
(0.985742 0.00865429 0)
(0.986321 0.0102583 0)
(0.987889 0.013995 0)
(0.989419 0.0153665 0)
(0.990894 0.0175259 0)
(0.992249 0.01807 0)
(0.992699 0.0189218 0)
(1.00041 0.00204951 0)
(1.0026 -0.00540339 0)
(0.993613 0.0010641 0)
(0.997518 0.00568046 0)
(1.00554 -5.30106e-05 0)
(1.00018 -0.00410015 0)
(0.99968 -0.000185888 0)
(0.998656 -0.0105066 0)
(0.991757 -0.000991005 0)
(0.991982 -0.0048718 0)
(0.988982 -0.00169121 0)
(0.986976 0.00129924 0)
(0.985802 0.00387599 0)
(0.986146 0.00842237 0)
(0.986821 0.0104222 0)
(0.988304 0.0136445 0)
(0.989851 0.015254 0)
(0.991223 0.0172482 0)
(0.992525 0.0179222 0)
(0.992823 0.0186522 0)
(1.00032 0.00199463 0)
(1.00253 -0.00520758 0)
(0.993851 0.000948009 0)
(0.997642 0.00561731 0)
(1.00521 -0.000245496 0)
(1.00033 -0.00370043 0)
(0.999421 -0.000592665 0)
(0.998732 -0.00952249 0)
(0.991923 -0.00152404 0)
(0.991888 -0.00382642 0)
(0.989349 -0.0021302 0)
(0.987241 0.00209727 0)
(0.986368 0.00351812 0)
(0.986583 0.008569 0)
(0.98735 0.0101842 0)
(0.988747 0.0136962 0)
(0.990318 0.0149402 0)
(0.991562 0.0170934 0)
(0.992781 0.0174253 0)
(0.992985 0.0181618 0)
(1.00026 0.00198884 0)
(1.00249 -0.00516605 0)
(0.994045 0.0010124 0)
(0.997741 0.00538024 0)
(1.00492 -0.000188268 0)
(1.00045 -0.00362296 0)
(0.999204 -0.000600999 0)
(0.998785 -0.0090011 0)
(0.992134 -0.001757 0)
(0.991828 -0.00337712 0)
(0.98973 -0.0020442 0)
(0.987518 0.00225409 0)
(0.986875 0.00366372 0)
(0.987094 0.00839906 0)
(0.987911 0.010282 0)
(0.989226 0.0133285 0)
(0.990758 0.014733 0)
(0.991859 0.0165165 0)
(0.992956 0.0171947 0)
(0.993119 0.0179138 0)
(1.00021 0.0019708 0)
(1.00246 -0.00505983 0)
(0.994225 0.00102005 0)
(0.997797 0.00520804 0)
(1.00465 -0.000192484 0)
(1.00054 -0.003507 0)
(0.998993 -0.000604406 0)
(0.998834 -0.00851911 0)
(0.992355 -0.00180934 0)
(0.991824 -0.00325077 0)
(0.990067 -0.00169821 0)
(0.987866 0.00191032 0)
(0.987409 0.00419526 0)
(0.9876 0.00799936 0)
(0.98844 0.0104146 0)
(0.989711 0.0129795 0)
(0.991258 0.0146301 0)
(0.992316 0.0161611 0)
(0.993385 0.0170432 0)
(0.993365 0.0177486 0)
(1.00018 0.00189585 0)
(1.00242 -0.0048165 0)
(0.994413 0.00083877 0)
(0.997814 0.00521454 0)
(1.00442 -0.000481799 0)
(1.00059 -0.0029953 0)
(0.998823 -0.00105539 0)
(0.998859 -0.00756238 0)
(0.99261 -0.00230384 0)
(0.991838 -0.00223573 0)
(0.990428 -0.00221469 0)
(0.988244 0.00263961 0)
(0.987919 0.00390723 0)
(0.988124 0.0082314 0)
(0.989014 0.0100863 0)
(0.990213 0.0131788 0)
(0.991737 0.0141994 0)
(0.992699 0.0162455 0)
(0.993712 0.0165343 0)
(0.993605 0.017234 0)
(1.00013 0.00191687 0)
(1.00242 -0.00482566 0)
(0.994584 0.000925379 0)
(0.997824 0.00498002 0)
(1.00419 -0.000394948 0)
(1.00062 -0.00299549 0)
(0.998667 -0.000895421 0)
(0.998875 -0.00722539 0)
(0.992911 -0.00231757 0)
(0.991867 -0.0019565 0)
(0.990791 -0.00198522 0)
(0.988672 0.00260885 0)
(0.98841 0.00405221 0)
(0.988664 0.00806288 0)
(0.989539 0.0100211 0)
(0.990641 0.012701 0)
(0.992142 0.0139243 0)
(0.993007 0.0157653 0)
(0.993817 0.01649 0)
(0.993701 0.0171806 0)
(1.00009 0.00187378 0)
(1.00242 -0.00465475 0)
(0.994764 0.000850257 0)
(0.997819 0.00490437 0)
(1.00397 -0.000459392 0)
(1.00064 -0.00285915 0)
(0.998519 -0.000839335 0)
(0.998894 -0.00686323 0)
(0.993178 -0.00221187 0)
(0.991974 -0.00190473 0)
(0.991126 -0.0014046 0)
(0.989105 0.00223273 0)
(0.98891 0.00462251 0)
(0.989214 0.00753943 0)
(0.990074 0.0100199 0)
(0.991165 0.012207 0)
(0.99266 0.0139656 0)
(0.99352 0.0152884 0)
(0.994298 0.0164231 0)
(0.993937 0.0171437 0)
(1.00006 0.00180101 0)
(1.0024 -0.00442696 0)
(0.994975 0.000680971 0)
(0.99778 0.00490902 0)
(1.00377 -0.00071302 0)
(1.00064 -0.00243533 0)
(0.998384 -0.00110936 0)
(0.998903 -0.00614436 0)
(0.993485 -0.00250857 0)
(0.992073 -0.00112715 0)
(0.991457 -0.00157338 0)
(0.989605 0.0026903 0)
(0.989388 0.00465219 0)
(0.989717 0.00753708 0)
(0.99062 0.00978556 0)
(0.991666 0.0121691 0)
(0.993105 0.0135583 0)
(0.993895 0.0150221 0)
(0.994625 0.0158395 0)
(0.994124 0.0165581 0)
(1.00002 0.00184556 0)
(1.0024 -0.00445782 0)
(0.995197 0.000733233 0)
(0.997745 0.00473954 0)
(1.00357 -0.0006213 0)
(1.00065 -0.0025017 0)
(0.998277 -0.000873022 0)
(0.998898 -0.00579375 0)
(0.993802 -0.00253738 0)
(0.992201 -0.000804435 0)
(0.991802 -0.00118634 0)
(0.990103 0.00281179 0)
(0.98985 0.00462277 0)
(0.990249 0.00767124 0)
(0.991156 0.00964686 0)
(0.992128 0.0119293 0)
(0.993531 0.0131718 0)
(0.994292 0.0147447 0)
(0.994933 0.0154912 0)
(0.994305 0.0161157 0)
(0.999981 0.00173715 0)
(1.00239 -0.00416431 0)
(0.995425 0.000568929 0)
(0.997714 0.0047121 0)
(1.00336 -0.000723109 0)
(1.00067 -0.00228697 0)
(0.998174 -0.00085245 0)
(0.998887 -0.00535881 0)
(0.994125 -0.00253248 0)
(0.992376 -0.000422541 0)
(0.992121 -0.000842767 0)
(0.990585 0.00273431 0)
(0.99036 0.00501076 0)
(0.990766 0.00765901 0)
(0.991656 0.00940631 0)
(0.992603 0.0116718 0)
(0.993992 0.0130174 0)
(0.994692 0.0144872 0)
(0.995207 0.0150807 0)
(0.994476 0.015543 0)
(0.999942 0.00172674 0)
(1.00237 -0.00405789 0)
(0.995657 0.000468933 0)
(0.997682 0.00467642 0)
(1.00317 -0.000788307 0)
(1.00069 -0.00220721 0)
(0.998087 -0.000792158 0)
(0.998881 -0.00485254 0)
(0.994466 -0.00260096 0)
(0.992551 -5.08872e-05 0)
(0.992419 -0.000536031 0)
(0.99114 0.00288952 0)
(0.990858 0.00518794 0)
(0.991221 0.00747046 0)
(0.99218 0.00930736 0)
(0.993121 0.0115759 0)
(0.994438 0.0127882 0)
(0.99503 0.0139988 0)
(0.995419 0.014592 0)
(0.994639 0.0149791 0)
(0.9999 0.00171202 0)
(1.00236 -0.00395853 0)
(0.995909 0.000413843 0)
(0.997652 0.00457115 0)
(1.00295 -0.00072499 0)
(1.00073 -0.00220643 0)
(0.998027 -0.0005635 0)
(0.998859 -0.00451479 0)
(0.994802 -0.00253987 0)
(0.99278 0.000189881 0)
(0.992728 -3.00299e-05 0)
(0.991635 0.00283928 0)
(0.991337 0.00516154 0)
(0.991724 0.00750568 0)
(0.992732 0.00933942 0)
(0.993594 0.0112457 0)
(0.994817 0.0123405 0)
(0.99538 0.0135176 0)
(0.995684 0.014202 0)
(0.994831 0.0144717 0)
(0.999867 0.00159987 0)
(1.00233 -0.00366583 0)
(0.996157 0.000223718 0)
(0.997628 0.00452877 0)
(1.00276 -0.000715234 0)
(1.00077 -0.00210182 0)
(0.99797 -0.000547667 0)
(0.99884 -0.00400683 0)
(0.995161 -0.00247162 0)
(0.993021 0.000507086 0)
(0.992996 0.000224715 0)
(0.992145 0.00285601 0)
(0.991885 0.00536068 0)
(0.992222 0.00757246 0)
(0.993199 0.00910683 0)
(0.994027 0.0108295 0)
(0.995251 0.0121098 0)
(0.995768 0.0131941 0)
(0.995898 0.0137969 0)
(0.994997 0.0140096 0)
(0.999831 0.00163715 0)
(1.0023 -0.00363788 0)
(0.996418 0.000157548 0)
(0.997613 0.00445464 0)
(1.00254 -0.000622703 0)
(1.00083 -0.00219383 0)
(0.997955 -0.00035208 0)
(0.998823 -0.00352563 0)
(0.995508 -0.00240451 0)
(0.993284 0.000640505 0)
(0.993281 0.000707978 0)
(0.992664 0.00302362 0)
(0.9924 0.00535683 0)
(0.992662 0.00738078 0)
(0.993672 0.00892396 0)
(0.99454 0.0106813 0)
(0.995678 0.0119294 0)
(0.996081 0.0126875 0)
(0.996125 0.0133861 0)
(0.9952 0.013649 0)
(0.999799 0.00152151 0)
(1.00227 -0.0033698 0)
(0.996685 3.39424e-05 0)
(0.997604 0.0043278 0)
(1.00233 -0.000508177 0)
(1.0009 -0.0021058 0)
(0.997955 -0.000221623 0)
(0.99879 -0.00311969 0)
(0.995855 -0.00231357 0)
(0.9936 0.000861886 0)
(0.993565 0.00113772 0)
(0.993119 0.00298334 0)
(0.992912 0.005319 0)
(0.993156 0.00740306 0)
(0.994183 0.00897424 0)
(0.995003 0.010447 0)
(0.99602 0.0115003 0)
(0.996424 0.012251 0)
(0.996417 0.0130985 0)
(0.995392 0.0132637 0)
(0.999772 0.00150454 0)
(1.00224 -0.00322133 0)
(0.996948 -0.000124496 0)
(0.997608 0.00425995 0)
(1.00212 -0.000360444 0)
(1.00097 -0.00213086 0)
(0.997974 -0.000170883 0)
(0.998764 -0.00259285 0)
(0.996211 -0.00213141 0)
(0.993927 0.000976835 0)
(0.99382 0.0014216 0)
(0.993593 0.00309888 0)
(0.993479 0.00540852 0)
(0.99365 0.00738776 0)
(0.994617 0.00877131 0)
(0.995413 0.0100273 0)
(0.996414 0.0111935 0)
(0.996818 0.0119918 0)
(0.996676 0.0127357 0)
(0.995554 0.0128603 0)
(0.999745 0.001442 0)
(1.00219 -0.00305045 0)
(0.997228 -0.000215079 0)
(0.997624 0.00411724 0)
(1.0019 -0.000214916 0)
(1.00105 -0.00210454 0)
(0.998037 -1.66057e-05 0)
(0.99874 -0.00211471 0)
(0.996532 -0.00199041 0)
(0.994281 0.0010258 0)
(0.994122 0.00180306 0)
(0.994043 0.00327916 0)
(0.993998 0.00535869 0)
(0.994108 0.00723229 0)
(0.995053 0.00863248 0)
(0.995885 0.00986785 0)
(0.996838 0.0110262 0)
(0.997163 0.0116753 0)
(0.996928 0.0123396 0)
(0.99575 0.0124967 0)
(0.999723 0.00136949 0)
(1.00216 -0.00282875 0)
(0.997492 -0.000364697 0)
(0.997647 0.00397539 0)
(1.0017 -2.28092e-05 0)
(1.00113 -0.00203557 0)
(0.998105 2.94897e-05 0)
(0.998704 -0.00167186 0)
(0.996856 -0.00178557 0)
(0.994671 0.00113794 0)
(0.994413 0.00210739 0)
(0.994465 0.00338241 0)
(0.994533 0.00531631 0)
(0.99462 0.00717704 0)
(0.995521 0.00859102 0)
(0.996321 0.00968192 0)
(0.997204 0.0107104 0)
(0.997496 0.0112841 0)
(0.997189 0.011909 0)
(0.995927 0.0121124 0)
(0.999701 0.00133104 0)
(1.00211 -0.0026719 0)
(0.997773 -0.000482709 0)
(0.997693 0.00383411 0)
(1.00148 0.000173827 0)
(1.0012 -0.00200237 0)
(0.998217 8.88232e-05 0)
(0.998693 -0.00118433 0)
(0.997155 -0.00151229 0)
(0.995068 0.00117545 0)
(0.994732 0.00234877 0)
(0.994877 0.00352404 0)
(0.995055 0.0053077 0)
(0.995115 0.00707077 0)
(0.995949 0.00843334 0)
(0.99674 0.00943036 0)
(0.997585 0.0103964 0)
(0.997823 0.0109173 0)
(0.997468 0.0115485 0)
(0.996168 0.0118236 0)
(0.999682 0.00123613 0)
(1.00206 -0.00243302 0)
(0.998038 -0.000609274 0)
(0.997743 0.0036373 0)
(1.00129 0.000368194 0)
(1.00128 -0.00186785 0)
(0.998344 0.00014005 0)
(0.998674 -0.000764259 0)
(0.997433 -0.00125673 0)
(0.995484 0.00122089 0)
(0.995059 0.00257685 0)
(0.995277 0.00368702 0)
(0.995572 0.00531798 0)
(0.995629 0.00698471 0)
(0.996411 0.00831549 0)
(0.99716 0.00924928 0)
(0.997937 0.010127 0)
(0.998166 0.0106393 0)
(0.997794 0.0112767 0)
(0.996384 0.0114974 0)
(0.999665 0.00119532 0)
(1.00201 -0.00225744 0)
(0.998312 -0.000730715 0)
(0.997819 0.00346075 0)
(1.00109 0.00059077 0)
(1.00133 -0.00175342 0)
(0.998499 0.00016579 0)
(0.998681 -0.000349424 0)
(0.997693 -0.000926471 0)
(0.995907 0.0012727 0)
(0.995421 0.00277114 0)
(0.995669 0.00386053 0)
(0.996071 0.00533166 0)
(0.996127 0.00686821 0)
(0.996842 0.00812702 0)
(0.997557 0.00900994 0)
(0.998314 0.00987881 0)
(0.998521 0.0103891 0)
(0.998071 0.0109154 0)
(0.996593 0.0111112 0)
(0.999651 0.00108384 0)
(1.00196 -0.00199619 0)
(0.998572 -0.000856004 0)
(0.997902 0.00327111 0)
(1.00091 0.000758781 0)
(1.00139 -0.00152594 0)
(0.998673 0.000148044 0)
(0.998692 2.47329e-05 0)
(0.997926 -0.000604453 0)
(0.996329 0.00133724 0)
(0.995791 0.00290611 0)
(0.996054 0.0039839 0)
(0.99655 0.00530248 0)
(0.996622 0.0067403 0)
(0.9973 0.00796776 0)
(0.997993 0.00883401 0)
(0.998693 0.00967955 0)
(0.998838 0.0101091 0)
(0.998356 0.0105796 0)
(0.996833 0.0108056 0)
(0.999639 0.00104287 0)
(1.00189 -0.00183867 0)
(0.998834 -0.000944715 0)
(0.998014 0.00298704 0)
(1.00073 0.00102359 0)
(1.00143 -0.00142402 0)
(0.998861 0.000213452 0)
(0.998741 0.000394597 0)
(0.998148 -0.000245595 0)
(0.996751 0.00141837 0)
(0.996191 0.00303738 0)
(0.996433 0.00411524 0)
(0.997017 0.00530447 0)
(0.997119 0.00667063 0)
(0.997746 0.00783821 0)
(0.998402 0.00862938 0)
(0.999048 0.00942182 0)
(0.999152 0.00982595 0)
(0.99864 0.0102868 0)
(0.997064 0.0104866 0)
(0.999628 0.000939891 0)
(1.00183 -0.00160073 0)
(0.999079 -0.0010338 0)
(0.998136 0.00272668 0)
(1.00057 0.00119324 0)
(1.00147 -0.00126312 0)
(0.999084 0.000342381 0)
(0.998787 0.00077316 0)
(0.998338 0.000126061 0)
(0.997157 0.00154292 0)
(0.996593 0.00314941 0)
(0.996809 0.00424407 0)
(0.997472 0.00532954 0)
(0.997607 0.00659078 0)
(0.998188 0.00770784 0)
(0.998819 0.00841631 0)
(0.999421 0.00918518 0)
(0.999477 0.00958585 0)
(0.998927 0.0100155 0)
(0.997303 0.0101992 0)
(0.999622 0.000865293 0)
(1.00176 -0.00138071 0)
(0.999314 -0.00113358 0)
(0.998279 0.00250202 0)
(1.00042 0.00135857 0)
(1.0015 -0.00095519 0)
(0.999311 0.000320714 0)
(0.99886 0.00101223 0)
(0.99851 0.000492673 0)
(0.997545 0.00167307 0)
(0.997012 0.00323247 0)
(0.997185 0.00436096 0)
(0.99791 0.00534953 0)
(0.998093 0.00649843 0)
(0.998623 0.00757288 0)
(0.999226 0.00819899 0)
(0.999803 0.00893797 0)
(0.999808 0.00932988 0)
(0.99922 0.00974812 0)
(0.997551 0.00993025 0)
(0.999615 0.000779392 0)
(1.00168 -0.00117801 0)
(0.999535 -0.0011599 0)
(0.998444 0.00223033 0)
(1.0003 0.00157905 0)
(1.00151 -0.000674627 0)
(0.999537 0.000320341 0)
(0.99896 0.00119787 0)
(0.998676 0.000826698 0)
(0.997914 0.00179896 0)
(0.997435 0.00327265 0)
(0.997568 0.0044186 0)
(0.998335 0.00534401 0)
(0.998568 0.00637882 0)
(0.999053 0.00743613 0)
(0.999632 0.00801534 0)
(1.00019 0.00869954 0)