/*--------------------------------*- C++ -*----------------------------------*\
| =========                 |                                                 |
| \\      /  F ield         | OpenFOAM: The Open Source CFD Toolbox           |
|  \\    /   O peration     | Version:  v2012                                 |
|   \\  /    A nd           | Website:  www.openfoam.com                      |
|    \\/     M anipulation  |                                                 |
\*---------------------------------------------------------------------------*/
FoamFile
{
    version     2.0;
    format      ascii;
    class       volScalarField;
    location    "9.8";
    object      p;
}
// * * * * * * * * * * * * * * * * * * * * * * * * * * * * * * * * * * * * * //

dimensions      [0 2 -2 0 0 0 0];


internalField   nonuniform List<scalar> 
7000
(
2.17339e-10
0.00233069
0.00300081
0.00573411
0.00487319
0.00763391
0.0100644
0.0116466
0.0121692
0.0132316
0.0118567
0.0132298
0.0110445
0.0134818
0.012515
0.0148032
0.0150038
0.0166807
0.0175805
0.0199617
5.3761e-06
0.002325
0.00300765
0.00574431
0.00487153
0.00763614
0.0100537
0.0116376
0.0121742
0.0132177
0.0118752
0.0132196
0.01106
0.0134736
0.0125197
0.0147853
0.0150048
0.0166606
0.0175811
0.0198454
1.2076e-05
0.00232418
0.00302038
0.0057502
0.00487077
0.00763552
0.010034
0.0116306
0.0121763
0.0132037
0.0118927
0.0132018
0.0110878
0.013449
0.0125415
0.0147471
0.0150171
0.0166203
0.0175807
0.0196683
2.02032e-05
0.002342
0.00303648
0.00575178
0.00487609
0.00762958
0.0100125
0.0116304
0.0121746
0.0131896
0.0119071
0.0131779
0.0111269
0.01341
0.0125742
0.0146978
0.0150338
0.0165707
0.0175713
0.0194754
3.18025e-05
0.00237798
0.00305297
0.00574941
0.00489024
0.00761911
0.00999076
0.0116344
0.0121705
0.013175
0.0119208
0.013149
0.0111767
0.0133598
0.0126145
0.014641
0.0150498
0.0165159
0.0175497
0.0192887
4.78834e-05
0.00242705
0.00306729
0.00574446
0.00491436
0.00760567
0.00996827
0.0116403
0.012166
0.0131596
0.0119349
0.0131161
0.0112351
0.0133033
0.0126613
0.0145792
0.0150645
0.0164571
0.0175155
0.0191145
6.8477e-05
0.00248527
0.00307795
0.00573856
0.00494816
0.0075914
0.00994553
0.0116466
0.0121623
0.013143
0.0119501
0.0130798
0.0113002
0.0132447
0.012714
0.0145151
0.0150784
0.0163948
0.0174698
0.0189505
9.30462e-05
0.00255007
0.00308485
0.00573304
0.0049906
0.00757894
0.00992302
0.0116522
0.0121597
0.0131243
0.0119672
0.01304
0.0113708
0.0131868
0.0127722
0.0144512
0.0150912
0.01633
0.0174135
0.0187928
0.000120746
0.00261974
0.0030891
0.00572855
0.0050406
0.00757048
0.00990087
0.0116562
0.012158
0.0131031
0.0119865
0.0129966
0.0114461
0.0131304
0.0128353
0.014389
0.0151018
0.0162649
0.017347
0.0186394
0.000150694
0.00269324
0.00309238
0.00572517
0.00509736
0.00756727
0.00987912
0.0116581
0.0121564
0.0130787
0.0120084
0.0129494
0.0115255
0.0130757
0.0129027
0.0143297
0.0151093
0.0162011
0.0172708
0.0184897
0.000182213
0.00277004
0.00309624
0.00572264
0.00516022
0.00756957
0.00985788
0.0116576
0.0121546
0.0130507
0.0120329
0.0128983
0.0116086
0.013023
0.0129731
0.0142744
0.0151124
0.0161397
0.017186
0.0183431
0.000214943
0.00284977
0.00310171
0.00572059
0.00522858
0.00757705
0.00983729
0.0116542
0.0121523
0.0130187
0.0120602
0.0128434
0.0116945
0.0129726
0.0130449
0.0142243
0.0151099
0.0160809
0.0170939
0.0181986
0.000248814
0.00293197
0.00310918
0.00571869
0.00530179
0.00758905
0.00981742
0.0116479
0.0121494
0.0129823
0.0120902
0.0127848
0.0117826
0.0129255
0.0131163
0.0141809
0.0151007
0.0160247
0.0169957
0.0180554
0.000283929
0.00301606
0.00311862
0.00571673
0.0053792
0.00760491
0.00979828
0.0116384
0.0121461
0.0129414
0.012123
0.0127228
0.0118718
0.0128827
0.013185
0.0141454
0.015084
0.0159703
0.0168933
0.017913
0.000320465
0.00310148
0.00312982
0.00571459
0.00546019
0.00762402
0.00977988
0.0116258
0.0121428
0.012896
0.0121583
0.0126578
0.0119611
0.0128454
0.0132485
0.0141184
0.0150598
0.0159172
0.0167884
0.0177711
0.000358599
0.00318769
0.00314259
0.00571216
0.00554421
0.00764585
0.00976224
0.0116099
0.0121398
0.0128463
0.0121962
0.0125907
0.0120492
0.0128153
0.0133047
0.0141
0.0150283
0.0158641
0.0166824
0.0176298
0.000398486
0.0032743
0.00315683
0.00570938
0.00563072
0.00766985
0.00974538
0.011591
0.0121375
0.0127924
0.0122363
0.0125224
0.0121343
0.0127935
0.0133521
0.0140901
0.0149903
0.0158099
0.0165767
0.0174894
0.000440258
0.003361
0.00317255
0.00570618
0.00571923
0.00769545
0.00972934
0.011569
0.0121364
0.0127349
0.0122783
0.0124543
0.0122144
0.0127812
0.0133899
0.0140874
0.0149468
0.0157527
0.0164719
0.0173504
0.000484037
0.00344764
0.00318986
0.00570252
0.0058093
0.00772205
0.00971416
0.011544
0.0121369
0.0126742
0.0123213
0.012388
0.0122875
0.0127788
0.0134174
0.0140901
0.0148994
0.0156911
0.016368
0.017213
0.000529939
0.00353411
0.00320893
0.00569837
0.00590055
0.00774911
0.00969992
0.0115162
0.0121392
0.012611
0.0123644
0.0123253
0.0123521
0.0127861
0.0134343
0.0140957
0.0148493
0.0156244
0.0162648
0.0170776
0.000578069
0.00362041
0.00322999
0.00569372
0.00599269
0.00777615
0.0096867
0.0114857
0.0121435
0.0125461
0.0124059
0.0122679
0.0124072
0.0128032
0.0134406
0.0141008
0.0147978
0.0155518
0.0161618
0.0169449
0.000628529
0.00370653
0.00325332
0.00568859
0.00608558
0.00780289
0.0096746
0.0114526
0.0121498
0.0124805
0.0124446
0.0122173
0.0124514
0.012829
0.0134374
0.0141026
0.0147461
0.0154732
0.0160575
0.0168149
0.000681411
0.00379248
0.00327918
0.005683
0.00617914
0.00782915
0.00966375
0.0114171
0.0121578
0.0124156
0.0124787
0.0121749
0.0124842
0.0128618
0.0134274
0.0140983
0.0146944
0.0153907
0.015952
0.0166867
0.000736809
0.00387823
0.00330787
0.00567701
0.00627343
0.00785489
0.00965433
0.0113795
0.0121668
0.0123528
0.0125066
0.0121411
0.0125059
0.0129
0.013413
0.0140861
0.014641
0.0153044
0.0158474
0.0165611
0.000794819
0.00396371
0.00333966
0.00567068
0.0063685
0.0078802
0.00964643
0.0113401
0.0121757
0.0122931
0.0125277
0.0121161
0.0125164
0.0129419
0.0133954
0.0140657
0.0145854
0.0152127
0.0157424
0.0164405
0.000855537
0.0040488
0.00337479
0.00566409
0.00646441
0.00790525
0.00964002
0.0112995
0.0121839
0.0122378
0.0125405
0.0121006
0.0125167
0.0129845
0.0133758
0.014037
0.0145295
0.0151167
0.0156348
0.0163236
0.000919059
0.00413337
0.00341354
0.00565734
0.00656121
0.00793018
0.0096349
0.0112585
0.0121897
0.0121882
0.0125442
0.012093
0.012509
0.0130255
0.0133473
0.0139981
0.0144734
0.0150211
0.0155256
0.0162081
0.000985499
0.00421723
0.00345613
0.00565053
0.00665885
0.00795524
0.00963071
0.0112181
0.0121925
0.0121438
0.0125403
0.0120921
0.0124938
0.0130625
0.0133344
0.0139485
0.0144133
0.0149294
0.0154174
0.0160924
0.00105497
0.00430021
0.00350274
0.0056438
0.00675726
0.0079806
0.00962731
0.0111785
0.0121925
0.012105
0.0125275
0.0120988
0.0124732
0.0130928
0.0133244
0.0138906
0.0143491
0.0148433
0.0153075
0.015977
0.00112756
0.00438216
0.00355363
0.00563729
0.00685621
0.00800697
0.00962361
0.0111415
0.0121868
0.0120734
0.0125065
0.0121096
0.0124498
0.0131163
0.013312
0.0138242
0.014275
0.0147609
0.0152128
0.0158634
0.00120343
0.00446285
0.00360888
0.00563125
0.00695531
0.00803487
0.00961906
0.0111073
0.012176
0.0120466
0.0124789
0.012123
0.0124237
0.0131323
0.0132916
0.0137478
0.0141909
0.0146778
0.0151327
0.0157531
0.00128264
0.00454221
0.00366851
0.00562609
0.00705414
0.00806485
0.00961331
0.0110757
0.0121627
0.0120236
0.012446
0.012137
0.0123969
0.0131385
0.013282
0.0136757
0.0141013
0.0145897
0.0150327
0.0156496
0.00136523
0.0046201
0.00373287
0.00562183
0.00715249
0.00809756
0.00960539
0.011048
0.012135
0.0120039
0.012413
0.0121451
0.0123734
0.0131329
0.0132287
0.0135987
0.0140031
0.0144945
0.0149445
0.0155571
0.00145158
0.00469625
0.00380181
0.00561886
0.0072499
0.00813267
0.0095959
0.0110225
0.0121402
0.0119845
0.012379
0.0121513
0.0123513
0.0131232
0.0132939
0.0135284
0.0138992
0.0143935
0.0148148
0.0154773
0.00154161
0.00477075
0.00387485
0.0056181
0.00734508
0.00817262
0.0095832
0.0110009
0.0121113
0.0119673
0.012342
0.0121603
0.0123222
0.0131079
0.0133248
0.0134392
0.0137808
0.0142886
0.0147396
0.0154079
0.00163519
0.00484366
0.00395241
0.00561947
0.00743803
0.00821794
0.00956735
0.0109828
0.0120704
0.0119512
0.0123029
0.0121687
0.0122929
0.0130695
0.0132278
0.0133545
0.0136527
0.0141829
0.014727
0.0153441
0.0017331
0.00491443
0.00403431
0.00562324
0.00752877
0.00826396
0.00955097
0.0109619
0.012059
0.0119287
0.0122669
0.0121703
0.0122671
0.0130304
0.0132556
0.0132748
0.0135329
0.0140732
0.0145935
0.0152897
0.00183486
0.00498351
0.00411959
0.00563108
0.00761498
0.00831816
0.00953187
0.0109438
0.0120345
0.0119076
0.0122246
0.0121759
0.012232
0.0129716
0.0132182
0.0132024
0.0134124
0.013967
0.0145367
0.0152436
0.00194014
0.00505126
0.00420865
0.00564295
0.007697
0.00838451
0.00951076
0.0109266
0.0120024
0.0118876
0.0121728
0.0121842
0.0121986
0.0128787
0.0131361
0.0131369
0.0132976
0.0138556
0.0145573
0.0151975
0.00205018
0.00511679
0.00430122
0.00565878
0.00777605
0.0084379
0.00949368
0.0108984
0.0120078
0.0118612
0.0121199
0.0121786
0.0121796
0.0128215
0.0131108
0.0130722
0.0131975
0.0137126
0.0143469
0.0151526
0.00216409
0.0051813
0.00439568
0.00568054
0.00784943
0.00850611
0.00947641
0.010871
0.0119935
0.0118443
0.0120602
0.0121688
0.0121517
0.012717
0.0130397
0.0130129
0.013098
0.0135906
0.0142629
0.0151132
0.00228142
0.00524526
0.00449246
0.00570781
0.00791794
0.00863712
0.0094593
0.0108448
0.0119646
0.0118377
0.0119945
0.0121443
0.0121121
0.0126185
0.0129435
0.0129504
0.0129954
0.0134828
0.0143107
0.0150711
0.00240378
0.00530747
0.00459159
0.00573998
0.0079836
0.0086285
0.00945327
0.0108015
0.0119718
0.0118257
0.0119278
0.012123
0.0121023
0.0125176
0.0128578
0.0128713
0.0129104
0.0133214
0.0140274
0.0150241
0.00252932
0.00537019
0.00469104
0.00577899
0.00804458
0.00870558
0.00944759
0.0107651
0.0119487
0.0118238
0.0118604
0.0120719
0.012088
0.0124284
0.0127482
0.0127859
0.012814
0.0132026
0.0139259
0.0149752
0.0026582
0.00543363
0.00479147
0.00582387
0.00810305
0.00879111
0.00944203
0.0107369
0.0119036
0.0118308
0.0117926
0.0119957
0.0120635
0.012353
0.0126068
0.0126868
0.0126848
0.0131113
0.0140196
0.0149303
0.00279205
0.00549628
0.00489348
0.00587308
0.00816194
0.00885581
0.00945215
0.0106908
0.0118835
0.0118318
0.0117361
0.0119399
0.0120495
0.012276
0.0124892
0.0125613
0.0125448
0.0128956
0.013686
0.0149012
0.0029281
0.00556123
0.00499538
0.00592802
0.00821934
0.00892762
0.00946637
0.010649
0.011847
0.0118321
0.0116883
0.0118732
0.0120242
0.0121984
0.0123666
0.0124219
0.0123864
0.012674
0.0135004
0.0149019
0.00306782
0.00562817
0.00509787
0.00598747
0.00827624
0.00900088
0.00948099
0.0106132
0.0117991
0.0118311
0.0116406
0.0118012
0.0119881
0.0121362
0.0122382
0.0122786
0.0122274
0.012499
0.0133794
0.0148949
0.00321142
0.0056961
0.00520167
0.0060498
0.00833444
0.00907221
0.00949577
0.0105629
0.0117489
0.0118254
0.0116002
0.0117268
0.0119387
0.0120799
0.0121149
0.012128
0.0120818
0.0123651
0.0132776
0.0148845
0.00335737
0.00576701
0.00530689
0.00611346
0.00839378
0.00914471
0.00951006
0.0105269
0.0116942
0.0118184
0.0115688
0.0116443
0.0118777
0.0120292
0.0120013
0.0119795
0.011952
0.0122495
0.0131998
0.0148675
0.00350674
0.00584056
0.00541461
0.00617735
0.0084539
0.00921856
0.00952512
0.0104863
0.0116364
0.0118097
0.0115424
0.0115608
0.0118079
0.0119732
0.0118994
0.011844
0.0118383
0.0121544
0.0131227
0.0148434
0.00365901
0.00591606
0.00552602
0.00624132
0.00851256
0.00929488
0.00954213
0.0104437
0.0115758
0.0117963
0.0115231
0.0114812
0.0117245
0.0119121
0.0118148
0.0117265
0.0117282
0.0120613
0.0130553
0.0148179
0.00381428
0.00599423
0.00564131
0.00630439
0.00856817
0.00937492
0.0095632
0.0103984
0.0115107
0.0117777
0.011511
0.0114068
0.0116297
0.0118492
0.0117448
0.011622
0.0116237
0.0119787
0.0129851
0.0147899
0.00397257
0.00607472
0.00576074
0.00636732
0.00861919
0.0094582
0.0095897
0.0103515
0.011441
0.011754
0.0115046
0.0113396
0.0115268
0.0117793
0.0116816
0.0115319
0.0115307
0.0118967
0.01292
0.0147647
0.00413379
0.00615763
0.00588498
0.0064302
0.00866351
0.00954428
0.00962368
0.0103039
0.0113665
0.011724
0.0115017
0.0112832
0.0114193
0.0116985
0.0116229
0.0114587
0.0114483
0.0118167
0.0128557
0.0147462
0.00429818
0.00624276
0.00601366
0.00649445
0.00869955
0.00963102
0.00966617
0.0102573
0.0112873
0.0116879
0.0115015
0.0112409
0.011311
0.0116057
0.0115659
0.0113975
0.0113758
0.0117419
0.012803
0.0147312
0.0044655
0.00633096
0.00614579
0.0065624
0.00872609
0.00971399
0.00971879
0.0102144
0.0112047
0.0116451
0.0114999
0.011212
0.0112049
0.0115018
0.0115077
0.0113439
0.011317
0.0116824
0.0127557
0.0147174
0.00463508
0.00642287
0.0062817
0.00663478
0.00874066
0.00979067
0.00978413
0.0101778
0.0111204
0.0115955
0.0114938
0.0111957
0.0111066
0.0113872
0.0114445
0.0112961
0.0112728
0.0116365
0.012716
0.0147051
0.00480769
0.00651677
0.00642378
0.00671034
0.00874503
0.00985908
0.00986775
0.0101517
0.0110398
0.0115426
0.0114827
0.0111897
0.0110218
0.0112641
0.0113733
0.0112528
0.0112403
0.0116042
0.0126836
0.0146943
0.00498383
0.00661207
0.00657069
0.00679067
0.00874748
0.00991428
0.00991848
0.0101401
0.0109674
0.0114883
0.0114647
0.0111895
0.010954
0.0111351
0.0112926
0.0112122
0.011216
0.0115851
0.0126652
0.0146906
0.00516215
0.00671087
0.00672081
0.00688042
0.00874081
0.00994777
0.00998718
0.0101457
0.0109038
0.0114338
0.0114403
0.0111917
0.0108787
0.0110058
0.0111982
0.0111705
0.0111996
0.0115793
0.0126596
0.0146924
0.00534331
0.00681181
0.006874
0.00697984
0.00872329
0.00996743
0.0100629
0.0101627
0.0108446
0.0113774
0.0114083
0.0111937
0.0108509
0.0108851
0.0110914
0.0111241
0.0111869
0.011581
0.0126632
0.0146994
0.00552745
0.00691342
0.00702915
0.00708792
0.00870312
0.00997507
0.0101377
0.0101908
0.0107892
0.0113189
0.0113704
0.0111938
0.0108415
0.0107797
0.0109763
0.0110674
0.0111739
0.0115905
0.0126774
0.0147175
0.00571396
0.00701766
0.00718303
0.0072053
0.00868528
0.00996878
0.0102075
0.0102292
0.0107413
0.0112613
0.0113296
0.0111854
0.0108437
0.0106968
0.0108588
0.0109977
0.0111586
0.0116077
0.0127051
0.0147461
0.00590311
0.00712377
0.00733376
0.00733188
0.00867346
0.00995041
0.0102681
0.0102763
0.0107025
0.0112044
0.0112882
0.011167
0.0108518
0.0106386
0.0107463
0.0109161
0.0111373
0.0116299
0.0127424
0.0147808
0.00609461
0.00723192
0.00748079
0.00746613
0.00867023
0.00992292
0.0103172
0.0103298
0.0106731
0.0111489
0.0112481
0.0111405
0.0108587
0.0106008
0.0106457
0.0108288
0.0111068
0.0116492
0.0127837
0.0148212
0.0062881
0.00734246
0.0076236
0.00760614
0.00867783
0.00988985
0.0103531
0.0103859
0.0106541
0.0110953
0.0112084
0.0111091
0.01086
0.0105782
0.0105646
0.0107429
0.0110639
0.0116598
0.0128264
0.014868
0.00648329
0.00745569
0.00776194
0.00774984
0.00869711
0.00985508
0.0103758
0.0104412
0.0106452
0.0110437
0.0111704
0.0110767
0.0108551
0.0105671
0.0105031
0.0106608
0.0110106
0.01166
0.0128645
0.0149162
0.00667977
0.00757183
0.00789583
0.00789544
0.00872822
0.00982178
0.0103862
0.0104919
0.0106455
0.010996
0.0111344
0.0110457
0.010844
0.0105599
0.0104555
0.0105873
0.0109539
0.0116469
0.0128912
0.0149629
0.00687708
0.0076911
0.00802565
0.00804126
0.0087705
0.00979243
0.0103863
0.0105359
0.0106535
0.0109534
0.0110987
0.0110158
0.0108291
0.0105537
0.0104203
0.0105262
0.0108958
0.0116214
0.0129077
0.0150071
0.00707477
0.00781369
0.00815181
0.00818574
0.00882291
0.00976912
0.0103787
0.0105719
0.0106669
0.0109159
0.0110624
0.0109875
0.0108131
0.010549
0.0103947
0.0104749
0.0108395
0.0115901
0.0129134
0.0150431
0.00727235
0.00793962
0.00827494
0.00832784
0.00888409
0.00975302
0.0103659
0.0105994
0.0106836
0.0108838
0.0110267
0.0109607
0.0107966
0.0105447
0.010375
0.0104326
0.0107889
0.011554
0.0129062
0.0150692
0.00746933
0.00806891
0.00839553
0.00846658
0.00895267
0.00974505
0.0103503
0.0106184
0.0107013
0.0108571
0.0109916
0.0109349
0.0107794
0.0105404
0.0103599
0.0103979
0.010742
0.0115139
0.0128915
0.0150888
0.00766519
0.00820142
0.00851431
0.00860136
0.00902706
0.00974527
0.010334
0.0106296
0.0107186
0.0108354
0.0109573
0.0109094
0.0107609
0.010536
0.0103489
0.0103684
0.0106993
0.0114754
0.0128737
0.0151015
0.00785955
0.00833684
0.00863173
0.00873187
0.00910582
0.00975354
0.0103189
0.0106341
0.0107342
0.0108182
0.0109234
0.0108838
0.0107414
0.0105305
0.0103406
0.0103439
0.0106624
0.0114386
0.0128521
0.0151074
0.00805194
0.00847492
0.00874831
0.00885783
0.00918746
0.00976942
0.0103064
0.0106333
0.0107471
0.0108048
0.0108899
0.0108575
0.0107206
0.0105226
0.0103341
0.010324
0.0106292
0.0114022
0.0128285
0.0151094
0.00824197
0.00861511
0.00886449
0.00897944
0.00927082
0.00979212
0.0102975
0.0106286
0.0107563
0.0108015
0.0108577
0.0108294
0.0106983
0.0105118
0.0103286
0.0103071
0.0105988
0.0113674
0.0128042
0.015108
0.00842926
0.00875698
0.00898048
0.00909673
0.00935481
0.00982097
0.0102925
0.0106214
0.0107607
0.0107946
0.0108269
0.0107985
0.0106737
0.0104974
0.0103222
0.0102929
0.0105722
0.0113348
0.0127786
0.0151021
0.00861345
0.00889987
0.00909655
0.00921024
0.00943844
0.00985474
0.0102916
0.0106131
0.0107604
0.0107885
0.0107985
0.0107648
0.0106457
0.0104785
0.0103134
0.0102808
0.0105493
0.0113037
0.012751
0.0150911
0.00879424
0.00904326
0.00921249
0.00932017
0.00952125
0.00989268
0.0102946
0.0106047
0.010756
0.0107813
0.0107731
0.0107294
0.0106138
0.0104541
0.0103001
0.0102686
0.010528
0.0112733
0.012721
0.0150746
0.00897122
0.0091865
0.00932834
0.00942692
0.00960263
0.00993377
0.0103012
0.0105964
0.0107486
0.0107713
0.0107495
0.0106938
0.0105781
0.0104238
0.0102803
0.0102536
0.0105074
0.0112444
0.0126899
0.0150532
0.00914415
0.00932895
0.00944364
0.00953091
0.00968249
0.00997719
0.0103111
0.0105882
0.0107395
0.0107575
0.0107243
0.0106581
0.0105394
0.0103876
0.0102523
0.0102332
0.0104861
0.0112169
0.0126587
0.0150271
0.00931258
0.00947009
0.00955807
0.0096323
0.00976068
0.010022
0.0103242
0.0105796
0.0107292
0.0107412
0.0106951
0.0106208
0.0104979
0.0103464
0.0102155
0.010204
0.0104594
0.011187
0.0126253
0.0149959
0.00947619
0.00960936
0.00967102
0.00973129
0.00983756
0.0100674
0.0103403
0.01057
0.0107157
0.0107246
0.0106617
0.0105798
0.0104536
0.0103014
0.0101709
0.0101641
0.0104232
0.0111505
0.0125867
0.0149578
0.0096343
0.0097463
0.00978258
0.00982737
0.00991269
0.0101128
0.0103599
0.0105608
0.0106991
0.0107084
0.0106259
0.0105331
0.0104044
0.0102524
0.0101209
0.0101147
0.010376
0.011104
0.0125396
0.0149103
0.00978644
0.00987995
0.00989264
0.00992188
0.00998623
0.0101557
0.0103808
0.0105541
0.0106839
0.0106904
0.01059
0.0104812
0.0103484
0.010197
0.0100655
0.0100567
0.0103174
0.0110453
0.0124808
0.0148514
0.00993213
0.0100097
0.00999942
0.0100134
0.0100622
0.0101997
0.0103993
0.0105462
0.0106576
0.0106657
0.0105544
0.0104258
0.0102844
0.0101322
0.0100014
0.00998909
0.0102466
0.0109722
0.012407
0.0147783
0.0100705
0.0101358
0.0101042
0.0101003
0.0101334
0.0102454
0.0104222
0.0105425
0.0106048
0.0106266
0.0105167
0.0103689
0.0102142
0.0100571
0.00992654
0.0099104
0.0101613
0.0108806
0.0123124
0.0146837
0.010201
0.0102563
0.0102084
0.0101885
0.0102032
0.0102823
0.0104318
0.0105378
0.0105831
0.0105816
0.0104779
0.0103161
0.0101455
0.00997812
0.00984472
0.00982428
0.0100671
0.0107758
0.0121977
0.0145616
0.0103209
0.0103719
0.0103092
0.0102816
0.0102932
0.0103349
0.0104289
0.0105115
0.0105175
0.0105155
0.0104246
0.010256
0.0100697
0.00988811
0.00974739
0.00972076
0.00995438
0.0106507
0.012058
0.0144091
0.0104279
0.0104679
0.010396
0.0103526
0.0103559
0.0104002
0.0104699
0.0105056
0.0104747
0.0104483
0.0103685
0.0101999
0.00999687
0.00979439
0.00963758
0.00960007
0.00982218
0.0105058
0.0119005
0.0142421
0.0105391
0.0105943
0.0105235
0.010461
0.0104183
0.010376
0.0103874
0.0104309
0.0104477
0.0104113
0.010333
0.0101637
0.00993891
0.00970719
0.00952412
0.00946999
0.00967871
0.0103496
0.011732
0.0140633
0.0105584
0.0106208
0.010614
0.0105889
0.0106113
0.0105679
0.0103986
0.0102788
0.0102552
0.010262
0.0102185
0.010063
0.00982551
0.00956412
0.00934539
0.00925869
0.00944269
0.0100888
0.0114444
0.0137493
0.0107739
0.0107952
0.0107001
0.0105706
0.0104442
0.0103891
0.0104104
0.0104785
0.0104662
0.0104081
0.0103083
0.0101399
0.00989826
0.00962153
0.0093609
0.00920355
0.00928157
0.00980676
0.0110376
0.0132163
0.0107185
0.0108602
0.0107091
0.0106587
0.0106132
0.0104328
0.0102238
0.0101739
0.0101878
0.0101563
0.010047
0.0098936
0.00968898
0.00951468
0.00940776
0.0094381
0.00968372
0.010309
0.0115554
0.0136942
0.0110027
0.010932
0.0107536
0.0105678
0.0104543
0.0104387
0.0105045
0.0105756
0.010567
0.0104941
0.010312
0.0100512
0.00967319
0.00918318
0.00865304
0.00820317
0.00801238
0.0083017
0.00932452
0.0113197
0.0112357
0.0108712
0.0106431
0.0104539
0.0103896
0.0102603
0.0101176
0.010155
0.0101768
0.0100582
0.00990092
0.0098052
0.00994058
0.0103597
0.0111086
0.0121131
0.0131966
0.0140729
0.0143919
0.0138191
0.0112842
0.0109633
0.0107002
0.0105655
0.0105681
0.0106157
0.0107011
0.0107638
0.0107165
0.010521
0.0101688
0.00964702
0.00895184
0.00816841
0.00740005
0.00673285
0.00630512
0.00633375
0.00709359
0.00882918
0.0114663
0.0109531
0.0106545
0.0105088
0.0105384
0.0104769
0.0103218
0.0100801
0.00989605
0.00988334
0.00984801
0.00966745
0.00952864
0.00957628
0.00990217
0.0105129
0.0113274
0.0120592
0.012313
0.011724
0.0114793
0.0109544
0.0106768
0.010623
0.0107852
0.0109598
0.0111203
0.0111859
0.0110899
0.0106928
0.0099759
0.00891238
0.00755983
0.00607575
0.00470205
0.00364626
0.00306019
0.00311103
0.00401492
0.00596839
0.0223446
0.0120822
0.00891339
0.011058
0.0135588
0.0153818
0.0167347
0.0178915
0.0191612
0.0206534
0.0223086
0.0239996
0.0256051
0.0272218
0.0289322
0.0305995
0.0322331
0.0339935
0.0358578
0.0377521
0.0397685
0.0415502
0.0430804
0.0451433
0.0475558
0.0498571
0.0521737
0.054608
0.0570318
0.0594314
0.0619475
0.0647504
0.0676037
0.0704699
0.0734956
0.0766717
0.0799714
0.083329
0.0868764
0.0904984
0.0942971
0.0982059
0.102222
0.106422
0.110647
0.115138
0.119599
0.124251
0.128751
0.133097
0.0221462
0.012139
0.00895294
0.0110745
0.0135689
0.0153887
0.0167396
0.017895
0.0191638
0.0206553
0.0223101
0.0240009
0.0256062
0.0272227
0.0289331
0.0306004
0.0322339
0.0339943
0.0358586
0.0377528
0.0397691
0.0415508
0.0430809
0.0451438
0.0475562
0.0498575
0.0521741
0.0546084
0.0570321
0.0594317
0.0619478
0.0647506
0.0676039
0.0704701
0.0734958
0.0766718
0.0799715
0.0833292
0.0868766
0.0904985
0.0942973
0.098206
0.102222
0.106422
0.110647
0.115138
0.119599
0.124251
0.128751
0.133097
0.0218949
0.0122323
0.00901839
0.0110949
0.0135792
0.0153958
0.0167447
0.0178986
0.0191663
0.0206571
0.0223116
0.0240021
0.0256073
0.0272236
0.0289339
0.0306011
0.0322346
0.033995
0.0358593
0.0377534
0.0397698
0.0415514
0.0430814
0.0451442
0.0475567
0.0498579
0.0521745
0.0546087
0.0570324
0.059432
0.061948
0.0647508
0.0676041
0.0704702
0.0734959
0.076672
0.0799717
0.0833293
0.0868767
0.0904986
0.0942974
0.0982061
0.102222
0.106422
0.110647
0.115138
0.119599
0.124252
0.128751
0.133097
0.0216653
0.012364
0.00911757
0.0111243
0.013592
0.0154046
0.0167511
0.0179033
0.0191696
0.0206595
0.0223133
0.0240035
0.0256084
0.0272245
0.0289347
0.0306018
0.0322353
0.0339956
0.0358599
0.037754
0.0397704
0.0415521
0.0430818
0.0451445
0.0475571
0.0498583
0.0521748
0.054609
0.0570327
0.0594322
0.0619482
0.064751
0.0676043
0.0704704
0.0734961
0.0766721
0.0799718
0.0833294
0.0868768
0.0904987
0.0942975
0.0982062
0.102223
0.106422
0.110647
0.115138
0.119599
0.124252
0.128751
0.133097
0.0214561
0.0125211
0.00924379
0.0111628
0.013608
0.0154158
0.0167596
0.0179099
0.0191747
0.0206631
0.0223158
0.0240053
0.0256099
0.0272257
0.0289356
0.0306026
0.0322359
0.0339962
0.0358606
0.0377546
0.0397711
0.0415528
0.0430822
0.0451448
0.0475576
0.0498587
0.0521752
0.0546094
0.0570331
0.0594325
0.0619485
0.0647512
0.0676045
0.0704706
0.0734963
0.0766723
0.079972
0.0833296
0.0868769
0.0904989
0.0942976
0.0982063
0.102223
0.106422
0.110647
0.115138
0.119599
0.124252
0.128752
0.133097
0.0212489
0.0126892
0.00938511
0.0112067
0.0136262
0.0154292
0.0167703
0.0179188
0.019182
0.0206684
0.0223193
0.0240077
0.0256117
0.0272272
0.0289368
0.0306034
0.0322365
0.0339967
0.0358611
0.0377552
0.0397719
0.0415537
0.0430826
0.0451451
0.0475581
0.0498592
0.0521756
0.0546098
0.0570334
0.0594328
0.0619487
0.0647515
0.0676047
0.0704708
0.0734964
0.0766725
0.0799721
0.0833297
0.0868771
0.090499
0.0942977
0.0982064
0.102223
0.106422
0.110647
0.115138
0.1196
0.124252
0.128752
0.133097
0.0210359
0.0128616
0.0095353
0.0112536
0.0136457
0.0154443
0.0167829
0.0179298
0.0191915
0.0206758
0.0223242
0.0240109
0.0256141
0.0272292
0.0289383
0.0306044
0.0322371
0.0339971
0.0358615
0.0377557
0.0397728
0.0415546
0.043083
0.0451455
0.0475586
0.0498596
0.052176
0.0546102
0.0570338
0.0594332
0.061949
0.0647517
0.067605
0.070471
0.0734966
0.0766726
0.0799723
0.0833298
0.0868772
0.0904991
0.0942978
0.0982066
0.102223
0.106422
0.110647
0.115138
0.1196
0.124252
0.128752
0.133098
0.0208182
0.0130369
0.00969247
0.0113024
0.0136659
0.0154606
0.0167967
0.0179422
0.0192027
0.020685
0.0223306
0.024015
0.0256171
0.0272316
0.0289402
0.0306057
0.0322379
0.0339974
0.0358616
0.037756
0.0397736
0.0415558
0.0430836
0.0451459
0.0475592
0.0498601
0.0521764
0.0546106
0.0570343
0.0594336
0.0619493
0.064752
0.0676053
0.0704712
0.0734968
0.0766728
0.0799725
0.08333
0.0868774
0.0904993
0.0942979
0.0982067
0.102223
0.106423
0.110648
0.115138
0.1196
0.124252
0.128752
0.133098
0.0205989
0.0132145
0.00985622
0.0113532
0.0136865
0.0154777
0.0168116
0.0179556
0.0192151
0.0206956
0.0223383
0.0240201
0.0256206
0.0272344
0.0289424
0.0306073
0.0322389
0.0339978
0.0358614
0.0377559
0.0397743
0.041557
0.0430844
0.0451464
0.0475598
0.0498605
0.0521768
0.0546111
0.0570348
0.059434
0.0619497
0.0647524
0.0676057
0.0704715
0.0734971
0.0766731
0.0799727
0.0833302
0.0868775
0.0904994
0.0942981
0.0982068
0.102223
0.106423
0.110648
0.115138
0.1196
0.124252
0.128753
0.133098
0.0203798
0.0133936
0.0100265
0.0114061
0.0137074
0.0154955
0.0168271
0.0179696
0.0192282
0.0207071
0.0223471
0.024026
0.0256247
0.0272375
0.0289449
0.0306094
0.0322404
0.0339984
0.0358612
0.0377554
0.0397747
0.0415583
0.0430853
0.0451472
0.0475605
0.0498609
0.0521772
0.0546115
0.0570353
0.0594345
0.0619501
0.0647528
0.0676061
0.0704718
0.0734973
0.0766733
0.0799729
0.0833304
0.0868777
0.0904996
0.0942983
0.098207
0.102223
0.106423
0.110648
0.115139
0.1196
0.124252
0.128753
0.133099
0.0201618
0.0135733
0.0102036
0.0114614
0.0137286
0.015514
0.0168434
0.0179841
0.0192418
0.0207192
0.0223565
0.0240327
0.0256292
0.0272408
0.0289476
0.0306117
0.0322423
0.0339994
0.0358609
0.0377545
0.0397745
0.0415593
0.0430864
0.0451484
0.0475615
0.0498613
0.0521774
0.0546119
0.0570358
0.0594351
0.0619506
0.0647533
0.0676065
0.0704723
0.0734977
0.0766736
0.0799731
0.0833306
0.0868779
0.0904998
0.0942984
0.0982072
0.102223
0.106423
0.110648
0.115139
0.1196
0.124253
0.128754
0.133099
0.0199454
0.0137528
0.0103873
0.0115193
0.0137501
0.015533
0.0168604
0.0179992
0.0192559
0.0207317
0.0223665
0.02404
0.0256343
0.0272443
0.0289502
0.0306141
0.0322446
0.0340007
0.0358609
0.0377532
0.0397737
0.0415598
0.0430875
0.0451499
0.0475629
0.0498618
0.0521776
0.0546121
0.0570362
0.0594356
0.0619512
0.0647539
0.0676071
0.0704727
0.0734981
0.076674
0.0799734
0.0833308
0.0868781
0.0905
0.0942986
0.0982073
0.102224
0.106423
0.110648
0.115139
0.1196
0.124253
0.128755
0.1331
0.0197309
0.0139314
0.0105778
0.0115802
0.0137716
0.0155526
0.0168781
0.0180147
0.0192703
0.0207446
0.0223769
0.0240476
0.0256397
0.0272478
0.028953
0.0306166
0.0322471
0.0340024
0.0358611
0.0377516
0.0397721
0.0415597
0.0430882
0.0451517
0.0475647
0.0498625
0.0521777
0.0546122
0.0570364
0.0594362
0.0619518
0.0647545
0.0676077
0.0704733
0.0734986
0.0766744
0.0799738
0.0833311
0.0868784
0.0905002
0.0942988
0.0982075
0.102224
0.106423
0.110648
0.115139
0.119601
0.124254
0.128756
0.133101
0.0195193
0.0141081
0.0107746
0.0116443
0.0137932
0.0155726
0.0168966
0.0180309
0.0192853
0.020758
0.0223876
0.0240556
0.0256454
0.0272515
0.0289557
0.0306191
0.0322497
0.0340043
0.0358614
0.0377499
0.0397696
0.0415588
0.0430885
0.0451536
0.047567
0.0498634
0.0521778
0.0546121
0.0570365
0.0594366
0.0619524
0.0647551
0.0676084
0.070474
0.0734993
0.076675
0.0799742
0.0833314
0.0868787
0.0905005
0.094299
0.0982078
0.102224
0.106424
0.110648
0.115139
0.119601
0.124254
0.128757
0.133102
0.019311
0.0142822
0.0109776
0.011712
0.0138149
0.015593
0.0169158
0.0180475
0.0193008
0.0207717
0.0223987
0.0240639
0.0256513
0.0272554
0.0289586
0.0306217
0.0322524
0.0340064
0.0358619
0.037748
0.0397659
0.0415568
0.043088
0.0451552
0.0475696
0.0498645
0.0521779
0.0546117
0.0570363
0.0594369
0.0619529
0.0647558
0.067609
0.0704747
0.0735
0.0766757
0.0799748
0.0833319
0.086879
0.0905007
0.0942993
0.098208
0.102224
0.106424
0.110649
0.11514
0.119601
0.124255
0.128758
0.133103
0.0191066
0.0144528
0.0111868
0.0117839
0.0138365
0.0156136
0.0169359
0.0180648
0.0193169
0.0207859
0.0224102
0.0240725
0.0256575
0.0272594
0.0289615
0.0306243
0.0322553
0.0340087
0.0358625
0.037746
0.0397616
0.0415538
0.0430869
0.0451564
0.0475725
0.0498659
0.0521779
0.0546112
0.0570359
0.059437
0.0619534
0.0647565
0.0676097
0.0704755
0.0735009
0.0766765
0.0799754
0.0833323
0.0868794
0.090501
0.0942995
0.0982082
0.102224
0.106424
0.110649
0.11514
0.119602
0.124255
0.12876
0.133105
0.0189066
0.0146195
0.0114021
0.0118606
0.0138582
0.0156343
0.0169567
0.0180829
0.0193336
0.0208006
0.022422
0.0240813
0.0256637
0.0272635
0.0289647
0.030627
0.0322582
0.0340111
0.0358632
0.0377439
0.0397565
0.0415493
0.0430853
0.0451569
0.0475752
0.0498674
0.0521779
0.0546106
0.0570353
0.0594369
0.0619539
0.0647571
0.0676103
0.0704762
0.0735018
0.0766775
0.0799762
0.0833329
0.0868798
0.0905014
0.0942998
0.0982084
0.102225
0.106424
0.110649
0.11514
0.119602
0.124256
0.128762
0.133106
0.0187112
0.0147816
0.0116236
0.0119428
0.01388
0.0156551
0.0169783
0.0181017
0.0193511
0.0208156
0.0224341
0.0240905
0.02567
0.0272678
0.028968
0.0306298
0.0322613
0.0340136
0.0358639
0.0377416
0.0397508
0.041544
0.0430833
0.0451569
0.0475777
0.049869
0.0521778
0.0546098
0.0570345
0.0594367
0.0619543
0.0647578
0.0676109
0.0704768
0.0735027
0.0766786
0.0799771
0.0833336
0.0868804
0.0905018