/*--------------------------------*- C++ -*----------------------------------*\
| =========                 |                                                 |
| \\      /  F ield         | OpenFOAM: The Open Source CFD Toolbox           |
|  \\    /   O peration     | Version:  v2012                                 |
|   \\  /    A nd           | Website:  www.openfoam.com                      |
|    \\/     M anipulation  |                                                 |
\*---------------------------------------------------------------------------*/
FoamFile
{
    version     2.0;
    format      ascii;
    class       volScalarField;
    location    "2.6";
    object      p;
}
// * * * * * * * * * * * * * * * * * * * * * * * * * * * * * * * * * * * * * //

dimensions      [0 2 -2 0 0 0 0];


internalField   nonuniform List<scalar> 
7000
(
-2.81232e-10
0.00952457
0.0128804
0.00926573
0.00572836
0.00514857
0.00488893
0.00861635
0.00676116
0.011282
0.0140314
0.016533
0.0189719
0.0225959
0.0235689
0.0251545
0.0262611
0.0288975
0.0311904
0.0369818
1.11017e-06
0.00953337
0.012868
0.00926049
0.00573493
0.00515864
0.00489776
0.00859552
0.00677968
0.0112736
0.014027
0.0165474
0.0189611
0.0225889
0.0235655
0.0251382
0.0262819
0.0288625
0.0312336
0.0367188
2.81546e-06
0.00954992
0.0128513
0.00925719
0.00574134
0.00516868
0.00491124
0.00856491
0.00680827
0.0112629
0.0140271
0.0165681
0.0189459
0.0225866
0.0235549
0.0251186
0.0263021
0.0288075
0.0312726
0.0362466
6.25511e-06
0.00956913
0.012831
0.00925497
0.00575183
0.00517867
0.00493394
0.00852866
0.00683145
0.0112623
0.0140267
0.0166035
0.0189294
0.0225793
0.0235345
0.0250894
0.0263177
0.0287431
0.0312789
0.0357536
1.28168e-05
0.00958706
0.0128036
0.00925333
0.00576702
0.00518909
0.00496883
0.00848518
0.0068512
0.0112693
0.014026
0.0166323
0.0189114
0.0225611
0.0235086
0.0250495
0.0263311
0.0286684
0.0312606
0.0352917
2.38082e-05
0.00960074
0.0127682
0.00925167
0.00578744
0.00520098
0.00501496
0.00843472
0.00687077
0.0112798
0.0140265
0.0166566
0.0188922
0.0225314
0.023481
0.024999
0.0263423
0.0285851
0.0312216
0.0348665
4.03684e-05
0.00960877
0.0127254
0.00924988
0.00581262
0.0052145
0.00506901
0.00837857
0.00689025
0.0112902
0.0140283
0.0166771
0.0188725
0.022488
0.0234525
0.0249382
0.0263495
0.0284943
0.0311621
0.0344723
6.33837e-05
0.00961151
0.0126762
0.00924831
0.00584233
0.00522895
0.00512735
0.0083175
0.00690882
0.0112981
0.0140306
0.0166925
0.0188519
0.0224361
0.0234226
0.0248681
0.0263502
0.0283972
0.0310813
0.0341021
9.33566e-05
0.00961029
0.0126217
0.00924766
0.00587668
0.00524333
0.00518707
0.00825201
0.00692642
0.0113021
0.0140319
0.0167011
0.0188303
0.0223736
0.0233898
0.0247894
0.0263417
0.0282946
0.0309784
0.0337499
0.000130273
0.00960663
0.0125633
0.00924873
0.00591584
0.00525723
0.00524672
0.00818177
0.0069441
0.0113011
0.0140311
0.0167014
0.0188078
0.0223005
0.0233527
0.0247035
0.0263215
0.028187
0.0308534
0.0334105
0.000173578
0.00960174
0.0125018
0.00925217
0.00595983
0.0052709
0.00530619
0.00811053
0.00696403
0.0112954
0.0140274
0.0166923
0.0187847
0.0222168
0.0233097
0.0246117
0.0262876
0.0280745
0.0307067
0.0330787
0.000222317
0.00959639
0.0124381
0.00925828
0.00600834
0.00528519
0.00536625
0.0080395
0.0069892
0.0112855
0.0140208
0.0166727
0.0187611
0.0221229
0.0232591
0.0245155
0.0262387
0.0279569
0.0305389
0.03275
0.000275377
0.00959094
0.0123727
0.00926687
0.00606073
0.00530134
0.00542794
0.00797136
0.00702301
0.0112731
0.0140121
0.016642
0.0187371
0.0220196
0.0231993
0.0244162
0.0261747
0.0278334
0.0303508
0.0324207
0.000331736
0.00958544
0.0123059
0.00927736
0.00611618
0.00532058
0.00549219
0.00790896
0.00706863
0.01126
0.0140024
0.0166
0.0187122
0.0219079
0.0231286
0.0243143
0.0260955
0.0277031
0.0301434
0.0320878
0.000390627
0.00957978
0.0122378
0.00928897
0.00617388
0.00534379
0.00555957
0.00785483
0.0071284
0.0112483
0.0139931
0.0165468
0.0186864
0.0217895
0.0230453
0.0242096
0.0260009
0.0275645
0.0299178
0.0317493
0.000451584
0.00957379
0.0121684
0.00930092
0.00623319
0.00537144
0.00563024
0.00781068
0.0072034
0.0112395
0.0139852
0.0164829
0.0186582
0.0216661
0.0229483
0.024102
0.0258912
0.0274151
0.029675
0.0314038
0.000514376
0.00956734
0.0120978
0.00931247
0.00629367
0.00540355
0.00570406
0.00777715
0.00729331
0.0112343
0.0139796
0.0164094
0.0186259
0.0215396
0.0228376
0.0239906
0.0257673
0.027253
0.0294155
0.0310495
0.000578918
0.00956039
0.0120262
0.00932301
0.00635512
0.00543973
0.00578075
0.00775378
0.00739665
0.0112324
0.0139765
0.0163281
0.0185875
0.021412
0.0227131
0.0238738
0.0256305
0.0270769
0.029139
0.0306854
0.000645188
0.0095529
0.0119535
0.00933211
0.00641749
0.00547941
0.00585995
0.00773923
0.00751118
0.011233
0.0139759
0.0162408
0.0185409
0.0212849
0.0225758
0.0237502
0.025482
0.0268862
0.0288461
0.0303108
0.000713182
0.00954485
0.0118799
0.00933941
0.00648078
0.0055219
0.00594133
0.00773166
0.00763452
0.0112349
0.0139766
0.0161497
0.0184847
0.0211596
0.0224272
0.0236179
0.0253224
0.0266808
0.0285371
0.0299257
0.000782898
0.00953621
0.0118058
0.00934468
0.006545
0.00556648
0.00602462
0.00772913
0.00776442
0.0112373
0.0139774
0.0160575
0.0184179
0.0210364
0.0222689
0.0234744
0.0251517
0.0264618
0.0282133
0.0295299
0.000854334
0.00952694
0.0117312
0.00934771
0.00661019
0.0056125
0.00610958
0.00772998
0.00789888
0.0112396
0.0139765
0.0159662
0.0183397
0.0209153
0.0221028
0.0233178
0.0249698
0.0262296
0.0278755
0.0291236
0.000927496
0.009517
0.0116565
0.00934838
0.00667639
0.00565942
0.00619599
0.00773294
0.00803605
0.0112415
0.0139723
0.0158776
0.0182497
0.0207954
0.0219312
0.0231469
0.0247766
0.0259842
0.027524
0.0287078
0.0010024
0.00950633
0.0115819
0.00934662
0.00674369
0.00570683
0.00628364
0.0077372
0.0081742
0.0112436
0.0139633
0.0157932
0.018147
0.020675
0.0217572
0.0229607
0.0245715
0.0257269
0.0271589
0.028283
0.00107905
0.00949484
0.0115077
0.00934244
0.00681222
0.00575444
0.00637232
0.00774237
0.00831187
0.0112466
0.0139477
0.0157139
0.0180322
0.0205519
0.0215832
0.0227585
0.0243522
0.0254599
0.0267833
0.0278491
0.0011575
0.00948243
0.0114342
0.00933582
0.00688204
0.00580219
0.00646185
0.00774847
0.0084474
0.0112519
0.0139241
0.0156392
0.0179068
0.0204234
0.021411
0.0225422
0.0241151
0.0251815
0.0264011
0.0274086
0.00123777
0.00946895
0.0113616
0.00932681
0.00695309
0.00585016
0.00655198
0.0077562
0.00857908
0.0112602
0.013892
0.0155685
0.0177722
0.0202864
0.0212395
0.0223151
0.023862
0.0248892
0.0260105
0.0269641
0.00131993
0.00945424
0.0112903
0.00931547
0.00702529
0.00589835
0.00664248
0.00776622
0.00870628
0.0112723
0.0138505
0.0155022
0.0176304
0.0201381
0.0210674
0.0220763
0.0235947
0.02459
0.0256118
0.0265119
0.00140404
0.00943814
0.0112205
0.00930177
0.00709865
0.00594679
0.00673293
0.00777962
0.00882767
0.0112897
0.0137987
0.0154381
0.0174834
0.0199777
0.0208916
0.021828
0.0233109
0.0242843
0.025213
0.0260511
0.0014902
0.00942043
0.0111524
0.00928578
0.0071729
0.00599607
0.00682222
0.00779836
0.00894188
0.0113122
0.0137381
0.0153746
0.0173305
0.0198074
0.0207074
0.0215681
0.0230128
0.0239703
0.0248205
0.0255838
0.00157855
0.00940091
0.0110863
0.00926763
0.00724776
0.00604664
0.00690989
0.00782281
0.00904884
0.0113394
0.0136686
0.0153099
0.0171761
0.0196212
0.0205226
0.021293
0.0226856
0.0236528
0.0244463
0.0251133
0.00166912
0.00937942
0.0110223
0.00924739
0.00732285
0.00609933
0.00699515
0.00785364
0.00914797
0.0113715
0.0135922
0.0152384
0.0170253
0.0194189
0.0203336
0.0210226
0.0223369
0.0233121
0.024044
0.024658
0.00176205
0.00935568
0.0109607
0.00922502
0.00739787
0.00615469
0.00707675
0.00789159
0.009239
0.0114046
0.0135146
0.0151579
0.0168748
0.0192088
0.0201306
0.0207497
0.0219797
0.0229024
0.0236427
0.0242323
0.00185769
0.00932936
0.0109018
0.00920072
0.00747213
0.00621311
0.00715487
0.00793533
0.0093241
0.0114386
0.0134348
0.0150693
0.016729
0.0189808
0.0199361
0.0204667
0.0216004
0.0224971
0.0231511
0.0238106
0.00195583
0.00930038
0.0108454
0.00917534
0.00754418
0.00627671
0.00722739
0.00798662
0.00940222
0.0114737
0.0133508
0.0149744
0.0165801
0.0187464
0.0197117
0.0201551
0.0211818
0.0220975
0.0227648
0.023386
0.00205661
0.0092685
0.0107917
0.00914853
0.00761446
0.00634471
0.00729423
0.00804542
0.00946839
0.0115075
0.0132694
0.0148704
0.0164186
0.0185057
0.0194255
0.019844
0.0207653
0.021677
0.0224677
0.0229725
0.00216072
0.00923312
0.0107415
0.00912054
0.00768176
0.00641739
0.00735733
0.00810581
0.00953885
0.0115363
0.0131908
0.0147558
0.016258
0.0182462
0.0192093
0.0195144
0.0203947
0.021248
0.0218745
0.0225554
0.00226761
0.00919429
0.0106936
0.00909348
0.00774363
0.00649702
0.00741391
0.008172
0.00960114
0.0115618
0.0131113
0.0146363
0.0160846
0.0179691
0.0189212
0.0191908
0.0199789
0.02084
0.0214717
0.0221235
0.00237732
0.00915192
0.0106482
0.00906682
0.00780153
0.00658134
0.00746547
0.0082428
0.00963508
0.0115855
0.0130328
0.0145078
0.0158974
0.0176658
0.0185468
0.0188746
0.0195356
0.0204298
0.0212888
0.0217113
0.00249101
0.00910517
0.0106062
0.00904075
0.00785441
0.00666984
0.00751584
0.00830909
0.00975345
0.0115972
0.0129557
0.0143691
0.0157126
0.0173778
0.0182985
0.0185187
0.0191799
0.0199185
0.0205416
0.021321
0.00260754
0.00905469
0.0105653
0.00901856
0.00789943
0.00676407
0.00756238
0.0083765
0.00980856
0.0116089
0.0128748
0.014222
0.0155179
0.0170638
0.0179538
0.0181578
0.0187744
0.019496
0.0201026
0.020896
0.00272725
0.00900014
0.0105261
0.00899958
0.00793915
0.00686018
0.00760742
0.0084427
0.0098467
0.0116241
0.0127847
0.0140631
0.0153132
0.0167498
0.017329
0.0177461
0.0183215
0.0191787
0.0200699
0.020487
0.00285121
0.00894081
0.010489
0.00898396
0.00797401
0.00695499
0.00765767
0.00849986
0.00990031
0.0116209
0.0126928
0.0138939
0.0151084
0.0164603
0.0171886
0.0173827
0.0179044
0.0184704
0.0190579
0.0201328
0.00297795
0.00887782
0.0104512
0.00897478
0.00800206
0.00705019
0.00770921
0.00855468
0.00994303
0.0116048
0.012602
0.0137179
0.0148913
0.0161814
0.0168632
0.0169877
0.0173546
0.0178937
0.0188843
0.0198766
0.00310853
0.00881104
0.0104127
0.00897131
0.00802605
0.00714309
0.00776106
0.00860865
0.00997284
0.0115849
0.012507
0.0135344
0.0146637
0.0158943
0.0164842
0.0165654
0.0168381
0.0174482
0.0184348
0.0194558
0.0032433
0.00874025
0.0103728
0.0089733
0.00804751
0.0072317
0.00781473
0.00866006
0.0099944
0.0115554
0.0124075
0.0133494
0.0144255
0.0155962
0.016122
0.0161346
0.0164203
0.0169789
0.0177032
0.0190365
0.00338128
0.00866665
0.0103303
0.00898089
0.00806737
0.00731574
0.00786822
0.00870977
0.010008
0.0115124
0.0123075
0.0131643
0.0141713
0.0152915
0.0157583
0.0157417
0.0159574
0.0164692
0.0174483
0.0186536
0.0035233
0.0085908
0.0102842
0.00899261
0.0080886
0.00739397
0.00792101
0.00875613
0.0100132
0.0114604
0.0122053
0.0129724
0.0139102
0.0149772
0.0154401
0.0153369
0.0155079
0.0160087
0.0169206
0.0182607
0.00366906
0.00851275
0.010234
0.00900828
0.00811177
0.00746695
0.00797117
0.00879773
0.0100132
0.0113991
0.0120967
0.0127791
0.0136445
0.0146557
0.0151117
0.0149497
0.0150439
0.0155362
0.0164785
0.0178716
0.00381838
0.00843345
0.0101793
0.00902593
0.00813739
0.00753584
0.00801782
0.00883428
0.0100071
0.0113281
0.0119843
0.012586
0.0133728
0.014321
0.014778
0.014583
0.0145718
0.0150626
0.0160409
0.0174774
0.00397146
0.00835362
0.0101193
0.00904429
0.00816649
0.00760194
0.0080601
0.008863
0.00999422
0.0112506
0.0118684
0.0123905
0.0130962
0.0139758
0.0144462
0.0142029
0.0141555
0.0145983
0.0155609
0.0170832
0.004128
0.00827369
0.010054
0.00906288
0.00819786
0.00766604
0.00809765
0.00888409
0.00997538
0.0111661
0.0117482
0.0121936
0.012815
0.0136275
0.0140982
0.0138726
0.0136949
0.0141205
0.0151263
0.0166981
0.00428794
0.00819453
0.00998331
0.00907996
0.00823032
0.00772931
0.00813238
0.00889681
0.00994843
0.0110747
0.0116234
0.0119962
0.0125324
0.0132708
0.0137407
0.0135359
0.0133414
0.0136636
0.0146524
0.0163061
0.00445108
0.00811671
0.00990678
0.00909529
0.0082632
0.00779168
0.00816432
0.00890029
0.00991331
0.0109771
0.0114934
0.0118016
0.0122471
0.0129101
0.0133718
0.0131997
0.0129127
0.0132029
0.0142082
0.0159205
0.00461705
0.00804127
0.00982469
0.00910829
0.00829485
0.00785196
0.0081948
0.00889687
0.00986974
0.0108724
0.0113574
0.0116094
0.0119591
0.0125442
0.0129951
0.0128627
0.012563
0.0127783
0.0137527
0.015525
0.00478561
0.00796898
0.00973688
0.00911822
0.0083246
0.00790954
0.00822457
0.00888723
0.00981668
0.0107605
0.011214
0.0114197
0.011674
0.0121742
0.0126104
0.0125219
0.0122203
0.012369
0.0133177
0.0151351
0.00495617
0.00790082
0.00964294
0.00912481
0.00835168
0.00796191
0.00825342
0.00887347
0.00975491
0.0106418
0.0110654
0.0112322
0.0113935
0.0118018
0.0122165
0.0121733
0.0118892
0.0119939
0.0129034
0.0147465
0.00512821
0.00783797
0.00954221
0.00912759
0.00837525
0.00800635
0.00828091
0.00885817
0.00968562
0.0105162
0.010903
0.0110441
0.0111185
0.0114276
0.0118146
0.0118166
0.0115679
0.0116459
0.0125103
0.0143653
0.00530114
0.00778144
0.00943756
0.00912639
0.00839535
0.00804036
0.00830507
0.00884355
0.00961062
0.0103845
0.0107298
0.0108523
0.0108596
0.011049
0.011402
0.0114527
0.0112511
0.0113169
0.0121441
0.013999
0.00547385
0.00773222
0.00932942
0.00912056
0.00841205
0.00806215
0.00832387
0.00883092
0.00953167
0.0102477
0.0105468
0.0106577
0.0106159
0.0106864
0.010983
0.0110779
0.0109339
0.0110095
0.0118073
0.0136484
0.00564538
0.00769114
0.00921962
0.00910888
0.00842501
0.00807189
0.00833569
0.00881981
0.00944986
0.0101061
0.010356
0.0104453
0.0103828
0.0103432
0.0105619
0.0106903
0.0106138
0.0107182
0.0114985
0.0133168
0.00581524
0.007658
0.00910957
0.00909008
0.00843347
0.00807215
0.00833927
0.00880944
0.009366
0.00995953
0.0101605
0.0102165
0.0101535
0.0100235
0.0101473
0.0102902
0.0102859
0.010437
0.0112147
0.0130062
0.00598246
0.00763278
0.00899946
0.00906311
0.00843894
0.00806521
0.00833264
0.00879738
0.00928094
0.00980749
0.00996252
0.00997433
0.00991945
0.0097263
0.00974082
0.00987895
0.00994589
0.0101587
0.0109501
0.012716
0.00614584
0.007616
0.00889027
0.00902703
0.00844292
0.00805302
0.00831356
0.00878023
0.00919554
0.00965009
0.00976483
0.00972313
0.00967148
0.00944673
0.00936135
0.00946519
0.00959166
0.00987489
0.0106969
0.0124433
0.0063048
0.00760751
0.00878225
0.0089821
0.00844638
0.00803732
0.00828035
0.00875417
0.00911055
0.00948827
0.0095682
0.009467
0.00940755
0.00917899
0.00901031
0.00905898
0.0092233
0.00957811
0.0104447
0.0121832
0.00645879
0.00760644
0.00867612
0.00892924
0.00844902
0.00801888
0.00823265
0.00871606
0.00902645
0.00932342
0.0093715
0.00921147
0.00912999
0.0089123
0.00868383
0.00866763
0.00884542
0.00926405
0.0101842
0.0119306
0.00660711
0.00761227
0.00857344
0.00886881
0.00844891
0.00799927
0.00817231
0.00866314
0.00894236
0.00915701
0.00917348
0.00896019
0.0088422
0.0086381
0.00837742
0.00829718
0.00846604
0.00893276
0.0099083
0.0116779
0.00674922
0.0076245
0.00847537
0.00880076
0.00844432
0.00798043
0.00810172
0.00859257
0.00885586
0.00899058
0.00897294
0.00871506
0.00854864
0.00835322
0.00808299
0.00794965
0.00809243
0.00858814
0.00961329
0.0114176
0.00688471
0.00764242
0.0083828
0.00872571
0.00843398
0.00796286
0.00802323
0.0085029
0.00876354
0.00882563
0.0087697
0.00847662
0.00825497
0.00805723
0.00779193
0.00762237
0.00773064
0.00823679
0.0093011
0.0111474
0.00701323
0.00766524
0.00829657
0.00864454
0.00841622
0.00794595
0.00794028
0.00839486
0.00866162
0.00866293
0.00856424
0.00824355
0.00796529
0.007753
0.00749702
0.00730969
0.00738415
0.0078862
0.00897899
0.0108685
0.00713442
0.00769221
0.00821739
0.00855822
0.00838957
0.00792852
0.00785623
0.00827025
0.00854624
0.00850192
0.00835695
0.00801409
0.00768259
0.00744485
0.00719521
0.00700486
0.00705333
0.00754369
0.0086548
0.0105828
0.00724812
0.00772245
0.0081456
0.00846785
0.00835305
0.00790907
0.00777346
0.00813171
0.00841458
0.00834068
0.00814844
0.0077869
0.0074084
0.00713719
0.0068874
0.00670195
0.00673617
0.00721333
0.00833392
0.0102933
0.00735418
0.00775501
0.00808157
0.0083747
0.00830585
0.00788552
0.00769335
0.00798311
0.00826565
0.00817667
0.0079394
0.00756081
0.00714252
0.00683354
0.00657598
0.00639727
0.00642822
0.00689534
0.00802065
0.0100048
0.00745247
0.0077889
0.00802538
0.00828005
0.00824796
0.00785589
0.00761598
0.0078287
0.00809979
0.00800704
0.00772999
0.00733474
0.00688438
0.00653615
0.00626378
0.00608953
0.0061249
0.00658822
0.00771717
0.00971978
0.00754307
0.00782329
0.00797668
0.0081849
0.00817984
0.00781845
0.00754064
0.00767238
0.00791845
0.00782919
0.00752
0.00710751
0.00663276
0.00624634
0.00595386
0.00577941
0.00582265
0.00628855
0.00742191
0.00943882
0.00762608
0.00785724
0.00793509
0.00809037
0.0081021
0.00777167
0.0074658
0.00751719
0.00772402
0.00764109
0.00730911
0.00687839
0.00638558
0.00596467
0.00564894
0.00546911
0.0055196
0.00599205
0.00713219
0.00916193
0.00770171
0.00788992
0.00789985
0.00799745
0.00801571
0.00771467
0.00738956
0.00736533
0.00752026
0.00744141
0.00709615
0.00664681
0.0061407
0.00569078
0.00535048
0.00516101
0.00521564
0.00569604
0.00684534
0.00888754
0.00777008
0.00792067
0.00787024
0.00790703
0.0079217
0.00764702
0.00730992
0.00721729
0.00731135
0.00722998
0.00687996
0.0064131
0.00589611
0.00542338
0.00505904
0.00485655
0.00491156
0.00539907
0.00655811
0.00861329
0.00783147
0.00794876
0.00784524
0.00781992
0.00782128
0.00756878
0.0072253
0.00707272
0.00710097
0.00700737
0.00665896
0.00617824
0.00565033
0.00515981
0.00477403
0.00455679
0.00460864
0.00510079
0.00626904
0.00833775
0.00788609
0.00797379
0.00782387
0.00773657
0.00771563
0.0074801
0.00713437
0.00693061
0.00689232
0.00677575
0.00643131
0.00594215
0.00540304
0.0048979
0.00449391
0.00426191
0.00430788
0.00480203
0.00597796
0.0080598
0.00793433
0.00799522
0.00780501
0.00765737
0.00760613
0.00738156
0.00703628
0.00678929
0.00668754
0.00653859
0.00619537
0.00570351
0.0051542
0.00463668
0.00421724
0.00397098
0.00400953
0.00450362
0.00568557
0.00777941
0.00797657
0.00801292
0.00778754
0.00758221
0.00749422
0.00727409
0.00693047
0.00664689
0.00648724
0.00630006
0.00595147
0.00546095
0.00490368
0.00437489
0.00394232
0.00368277
0.00371334
0.00420595
0.0053922
0.00749633
0.00801301
0.00802654
0.00777054
0.0075111
0.00738137
0.00715872
0.0068171
0.00650197
0.00628961
0.00606334
0.00570143
0.00521284
0.0046517
0.00411223
0.0036675
0.00339613
0.00341858
0.00390843
0.00509736
0.00721001
0.00804413
0.00803621
0.00775312
0.00744348
0.0072684
0.0070365
0.0066969
0.00635482
0.00609311
0.00582971
0.00544849
0.00495795
0.00439633
0.00384837
0.0033927
0.00310987
0.00312398
0.00361017
0.00480064
0.00692029
0.00806982
0.00804196
0.00773504
0.00737928
0.00715634
0.00690843
0.00656932
0.0062055
0.00589712
0.00559888
0.00519636
0.00469781
0.00413601
0.00358187
0.00311666
0.00282307
0.00282866
0.00331021
0.00450086
0.00662591
0.00809072
0.0080438
0.00771505
0.00731787
0.00704681
0.00677638
0.00643477
0.00605426
0.00570128
0.00536911
0.00494638
0.00443483
0.00387094
0.00331139
0.00283789
0.00253475
0.00253184
0.00300769
0.00419682
0.00632544
0.00810685
0.00804269
0.0076934
0.00725812
0.00694022
0.00664188
0.00629291
0.00590124
0.00550753
0.00513925
0.00469815
0.00417196
0.00360299
0.00303662
0.00255452
0.00224238
0.00223084
0.00270042
0.00388646
0.00601642
0.00811824
0.00803858
0.00767056
0.00719971
0.0068369
0.00650841
0.00614469
0.00574418
0.00531644
0.00490933
0.0044507
0.00390917
0.00333303
0.00276009
0.0022678
0.00194543
0.00192438
0.00238688
0.0035688
0.00569753
0.00812533
0.00803173
0.00764683
0.00714304
0.00673488
0.00637577
0.00599454
0.00558567
0.00512842
0.00467872
0.00420458
0.00365117
0.00305926
0.00247725
0.00197393
0.00163949
0.00160807
0.00206233
0.00323662
0.00536174
0.00812789
0.00802222
0.00762172
0.00708976
0.0066373
0.00624259
0.00583722
0.00542485
0.00495097
0.00445279
0.0039532
0.00340438
0.00280809
0.00220492
0.00168325
0.00133225
0.00128435
0.00172581
0.00289192
0.00501152
0.00812558
0.00801159
0.00759508
0.00703729
0.00654397
0.00611625
0.00567376
0.00524378
0.00477595
0.00424979
0.00369734
0.00310978
0.00251505
0.0019202
0.00138946
0.00102192
0.000953036
0.00137087
0.00251551
0.00462015
0.00813342
0.00800943
0.00757758
0.0069884
0.00645293
0.00599552
0.0055249
0.00505351
0.00457428
0.00406873
0.00354842
0.00296372
0.00230635
0.00167183
0.00112163
0.000738347
0.000649019
0.00103874
0.00215565
0.00423847
0.00807923
0.00798957
0.00756208
0.00694448
0.00636386
0.00587208
0.00538718
0.00489328
0.00435658
0.00375308
0.0031583
0.00258051
0.00198586
0.00136814
0.000809782
0.000408144
0.000305612
0.000696559
0.00181425
0.00388824
0.00810686
0.00798149
0.00753605
0.00690106
0.00626589
0.00571043
0.00520776
0.00476184
0.00434196
0.00384101
0.00322924
0.00253883
0.00183431
0.00112336
0.000453712
-6.37073e-05
-0.000283423
-3.55714e-06
0.001016
0.00300176
0.00803323
0.00797259
0.0074943
0.00694224
0.00630727
0.00559282
0.00493554
0.00436468
0.00383839
0.00331006
0.00275436
0.00222131
0.0016951
0.00121238
0.000773958
0.000448299
0.000343107
0.000639854
0.00158305
0.00343844
0.00814408
0.00792367
0.00746416
0.0067923
0.00609843
0.00555164
0.00504731
0.00461867
0.00413537
0.00359863
0.0028967
0.00208661
0.00120373
0.000305323
-0.000564688
-0.00130511
-0.00176082
-0.00171582
-0.000904188
0.000907637
0.00835615
0.00781641
0.00725689
0.00658295
0.0059524
0.00524537
0.00459588
0.00404429
0.00355163
0.0029771
0.00240252
0.00191737
0.00169664
0.00174325
0.00208789
0.0026804
0.00340307
0.00397807
0.00403785
0.00324521
0.00831787
0.00783365
0.00723928
0.00662984
0.00610276
0.0056017
0.00514048
0.00464874
0.00410824
0.00344138
0.00260571
0.00157641
0.000389004
-0.0008382
-0.00196921
-0.00297192
-0.00365792
-0.00386036
-0.00331486
-0.00177556
0.00847576
0.00778976
0.00714478
0.00651367
0.00599612
0.00537197
0.00468794
0.00389156
0.00316941
0.00263271
0.00210674
0.00148781
0.000961497
0.000660539
0.00064508
0.000937053
0.00138836
0.00178181
0.00175771
0.000955237
0.00846729
0.00776381
0.00712788
0.00658312
0.0062169
0.0058418
0.00546962
0.0049861
0.00437156
0.0034878
0.00229332
0.000738926
-0.00109718
-0.00302902
-0.00480593
-0.00621551
-0.0071087
-0.00731292
-0.00662409
-0.0048601
0.0469896
0.0222263
0.011703
0.00941651
0.00920813
0.00942696
0.00926789
0.00852594
0.00767481
0.00704844
0.0065784
0.00618222
0.00582321
0.00544468
0.00511283
0.0048248
0.00448367
0.00411724
0.00380695
0.00352345
0.00322154
0.00299336
0.00267873
0.00213643
0.00168619
0.00147538
0.00122242
0.000902584
0.000536893
0.000125048
-0.000343661
-0.000773908
-0.00115538
-0.00161347
-0.00210738
-0.00261502
-0.00307506
-0.00360331
-0.00410621
-0.00466684
-0.00523819
-0.00579528
-0.00644706
-0.00700067
-0.0077785
-0.00845267
-0.00929758
-0.0102751
-0.0113713
-0.0128652
0.0459239
0.0222702
0.0117524
0.00943542
0.00921832
0.00943418
0.00927336
0.00853007
0.00767794
0.00705087
0.00658036
0.00618384
0.00582458
0.00544583
0.0051138
0.00482565
0.00448447
0.00411799
0.00380764
0.00352411
0.00322213
0.00299391
0.00267927
0.00213692
0.00168661
0.00147577
0.00122279
0.000902918
0.000537201
0.00012533
-0.000343406
-0.000773682
-0.00115517
-0.00161328
-0.0021072
-0.00261485
-0.00307491
-0.00360316
-0.00410607
-0.00466671
-0.00523807
-0.00579517
-0.00644695
-0.00700057
-0.00777841
-0.00845259
-0.00929751
-0.010275
-0.0113712
-0.0128652
0.044999
0.0223563
0.0118325
0.00946034
0.00922892
0.00944155
0.00927892
0.00853407
0.00768087
0.00705313
0.00658218
0.00618532
0.00582582
0.00544687
0.00511467
0.00482642
0.00448518
0.00411864
0.00380824
0.00352468
0.00322265
0.00299439
0.00267976
0.00213734
0.00168696
0.00147611
0.00122312
0.000903217
0.000537477
0.000125581
-0.000343182
-0.000773485
-0.00115499
-0.00161311
-0.00210704
-0.00261471
-0.00307477
-0.00360304
-0.00410595
-0.0046666
-0.00523796
-0.00579507
-0.00644686
-0.00700049
-0.00777833
-0.00845252
-0.00929745
-0.010275
-0.0113712
-0.0128653
0.0441678
0.0224653
0.0119512
0.00949944
0.00924299
0.00945055
0.00928565
0.00853883
0.00768431
0.00705578
0.00658425
0.00618697
0.00582719
0.00544802
0.00511561
0.00482722
0.00448587
0.00411926
0.00380883
0.00352524
0.00322316
0.00299489
0.00268027
0.00213776
0.00168728
0.00147645
0.00122345
0.000903518
0.000537755
0.000125833
-0.000342961
-0.000773292
-0.0011548
-0.00161293
-0.00210689
-0.00261457
-0.00307464
-0.00360291
-0.00410583
-0.00466648
-0.00523786
-0.00579497
-0.00644677
-0.0070004
-0.00777825
-0.00845245
-0.00929737
-0.0102749
-0.0113712
-0.0128654
0.0433636
0.0225839
0.0121023
0.00955365
0.00926187
0.00946209
0.0092943
0.00854508
0.00768896
0.00705935
0.00658698
0.00618906
0.00582889
0.00544945
0.00511678
0.00482814
0.00448662
0.00411991
0.00380942
0.00352582
0.0032237
0.00299541
0.00268083
0.00213819
0.0016876
0.00147681
0.00122381
0.000903841
0.000538056
0.000126104
-0.000342726
-0.000773087
-0.0011546
-0.00161275
-0.00210672
-0.00261442
-0.0030745
-0.00360278
-0.00410571
-0.00466637
-0.00523775
-0.00579487
-0.00644668
-0.00700031
-0.00777816
-0.00845237
-0.00929729
-0.0102749
-0.0113711
-0.0128656
0.0425666
0.022706
0.0122719
0.00961754
0.00928422
0.00947589
0.00930497
0.00855313
0.00769525
0.00706422
0.00659063
0.00619179
0.00583109
0.00545134
0.0051183
0.00482927
0.00448747
0.00412061
0.00381003
0.00352639
0.00322424
0.00299599
0.00268145
0.00213865
0.00168793
0.0014772
0.0012242
0.000904189
0.000538385
0.000126399
-0.000342472
-0.000772863
-0.00115438
-0.00161255
-0.00210655
-0.00261427
-0.00307435
-0.00360264
-0.00410558
-0.00466624
-0.00523764
-0.00579476
-0.00644657
-0.00700021
-0.00777807
-0.00845229
-0.0092972
-0.0102748
-0.011371
-0.0128658
0.0417773
0.0228276
0.012451
0.00968637
0.0093082
0.00949119
0.00931728
0.00856288
0.00770328
0.00707058
0.00659535
0.0061953
0.00583392
0.00545381
0.00512032
0.00483073
0.00448851
0.00412141
0.00381067
0.00352695
0.00322478
0.00299662
0.00268216
0.00213917
0.00168828
0.00147761
0.00122461
0.000904565
0.000538745
0.000126723
-0.000342193
-0.000772615
-0.00115414
-0.00161233
-0.00210636
-0.0026141
-0.00307419
-0.00360249
-0.00410544
-0.00466611
-0.00523752
-0.00579464
-0.00644647
-0.00700011
-0.00777797
-0.00845219
-0.0092971
-0.0102747
-0.0113709
-0.0128661
0.0409978
0.022946
0.012636
0.00975809
0.00933273
0.0095074
0.00933082
0.00857396
0.00771284
0.00707833
0.0066011
0.00619956
0.0058374
0.00545691
0.00512289
0.00483259
0.00448983
0.0041224
0.00381139
0.00352747
0.00322528
0.00299727
0.00268298
0.00213978
0.00168868
0.00147806
0.00122504
0.000904965
0.000539141
0.000127082
-0.000341882
-0.000772336
-0.00115386
-0.00161208
-0.00210616
-0.00261392
-0.00307401
-0.00360234
-0.0041053
-0.00466598
-0.0052374
-0.00579452
-0.00644635
-0.00699999
-0.00777786
-0.00845208
-0.00929698
-0.0102745
-0.0113707
-0.0128665
0.0402283
0.0230601
0.0128264
0.00983215
0.00935724
0.00952418
0.0093453
0.00858597
0.00772353
0.00708719
0.00660767
0.00620443
0.00584145
0.00546062
0.00512599
0.00483488
0.00449152
0.00412371
0.00381227
0.003528
0.0032257
0.0029979
0.00268389
0.00214052
0.00168918
0.00147854
0.00122548
0.000905382
0.000539571
0.000127482
-0.000341532
-0.000772016
-0.00115354
-0.0016118
-0.00210592
-0.00261372
-0.00307383
-0.00360217
-0.00410515
-0.00466584
-0.00523727
-0.00579439
-0.00644623
-0.00699987
-0.00777774
-0.00845196
-0.00929684
-0.0102743
-0.0113705
-0.0128668
0.0394679
0.023169
0.0130217
0.00990818
0.00938119
0.00954113
0.00936048
0.00859857
0.00773491
0.00709682
0.00661483
0.00620972
0.00584593
0.00546482
0.00512953
0.00483751
0.00449356
0.00412539
0.00381344
0.00352862
0.00322604
0.00299844
0.00268485
0.00214143
0.00168983
0.00147911
0.00122592
0.000905798
0.000540026
0.000127921
-0.000341138
-0.000771651
-0.00115318
-0.00161147
-0.00210565
-0.00261349
-0.00307361
-0.00360198
-0.00410498
-0.00466568
-0.00523713
-0.00579425
-0.0064461
-0.00699973
-0.00777761
-0.00845182
-0.00929668
-0.0102741
-0.0113702
-0.0128672
0.0387154
0.0232716
0.0132209
0.00998564
0.00940396
0.00955776
0.00937611
0.00861152
0.00774667
0.0071069
0.00662235
0.00621525
0.00585069
0.00546938
0.00513338
0.00484036
0.0044959
0.00412745
0.00381494
0.00352942
0.00322634
0.00299881
0.00268576
0.00214247
0.00169071
0.00147983
0.00122638
0.000906189
0.000540485
0.000128392
-0.000340698
-0.000771237
-0.00115277
-0.00161109
-0.00210533
-0.00261321
-0.00307336
-0.00360177
-0.00410479
-0.00466552
-0.00523698
-0.00579411
-0.00644596
-0.00699958
-0.00777747
-0.00845166
-0.00929648
-0.0102738
-0.0113697
-0.0128677
0.0379701
0.023366
0.0134228
0.010064
0.00942491
0.00957333
0.00939174
0.00862456
0.00775855
0.00711722
0.0066301
0.00622093
0.0058556
0.0054742
0.00513742
0.00484333
0.0044984
0.00412983
0.00381679
0.00353047
0.00322666
0.00299897
0.0026865
0.00214357
0.00169185
0.00148077
0.00122688
0.000906535
0.000540913
0.000128874
-0.000340217
-0.000770775
-0.00115231
-0.00161065
-0.00210494
-0.00261288
-0.00307308
-0.00360153
-0.00410458
-0.00466534
-0.00523683
-0.00579396
-0.00644581
-0.00699942
-0.00777731
-0.00845148
-0.00929626
-0.0102734
-0.0113692
-0.0128681
0.0372315
0.0234504
0.0136264
0.0101428
0.00944362
0.00958708
0.00940676
0.00863739
0.00777038
0.00712763
0.006638
0.00622676
0.00586064
0.00547918
0.00514161
0.00484632
0.00450095
0.0041324
0.00381893
0.0035318
0.00322707
0.00299892
0.00268697
0.00214459
0.00169319
0.00148201
0.00122748
0.000906827
0.000541273
0.000129335
-0.000339706
-0.000770267
-0.00115181
-0.00161017
-0.00210448
-0.00261248
-0.00307273
-0.00360124
-0.00410433
-0.00466513
-0.00523665
-0.0057938
-0.00644565
-0.00699925
-0.00777713
-0.00845126
-0.00929599
-0.0102729
-0.0113685
-0.0128685
0.0365001
0.023523
0.0138304
0.0102221
0.00946027
0.0095984
0.00942046
0.00864969
0.00778201
0.00713804
0.00664606
0.00623277
0.0058658
0.00548426
0.0051459
0.00484934
0.00450349
0.00413507
0.00382125
0.00353334
0.00322759
0.00299865
0.00268709
0.0021454
0.00169465
0.00148359
0.00122825
0.000907076
0.000541534
0.000129735
-0.000339185
-0.000769717
-0.00115128
-0.00160965
-0.00210395
-0.00261199
-0.00307232
-0.0036009
-0.00410403
-0.00466488
-0.00523645
-0.00579363
-0.00644549
-0.00699907
-0.00777693
-0.00845102
-0.00929567
-0.0102724
-0.0113676
-0.012869
0.035777
0.0235821
0.0140338
0.0103029
0.00947607
0.00960725
0.00943225
0.00866113
0.00779329
0.00714839
0.00665428
0.00623906
0.00587115