/*--------------------------------*- C++ -*----------------------------------*\
| =========                 |                                                 |
| \\      /  F ield         | OpenFOAM: The Open Source CFD Toolbox           |
|  \\    /   O peration     | Version:  v2012                                 |
|   \\  /    A nd           | Website:  www.openfoam.com                      |
|    \\/     M anipulation  |                                                 |
\*---------------------------------------------------------------------------*/
FoamFile
{
    version     2.0;
    format      ascii;
    class       volVectorField;
    location    "2.6";
    object      U;
}
// * * * * * * * * * * * * * * * * * * * * * * * * * * * * * * * * * * * * * //

dimensions      [0 1 -1 0 0 0 0];


internalField   nonuniform List<vector> 
7000
(
(0.73743 -0.0134313 0)
(1.28394 0.0207196 0)
(0.887672 -0.00271279 0)
(1.09732 -0.0155302 0)
(0.899633 -0.0364926 0)
(1.20361 -0.0196209 0)
(1.03042 0.000842054 0)
(1.21064 0.00376327 0)
(0.98172 0.0185225 0)
(1.31827 0.00843833 0)
(0.914809 0.00262624 0)
(1.28591 0.00150796 0)
(0.960584 -0.00833073 0)
(1.2079 -0.00194084 0)
(0.966437 -0.0183872 0)
(1.18827 -0.0156706 0)
(0.975025 -0.0224908 0)
(1.20169 -0.0203351 0)
(0.976097 -0.0172444 0)
(1.21728 -0.0191958 0)
(0.758211 -0.0136805 0)
(1.27578 0.0203229 0)
(0.937897 -0.00175225 0)
(1.06493 -0.0153342 0)
(0.900153 -0.0377124 0)
(1.17803 -0.020528 0)
(1.03799 0.000491194 0)
(1.19743 0.00443948 0)
(1.00329 0.0172328 0)
(1.28737 0.00965084 0)
(0.967368 0.0027269 0)
(1.23762 0.00109228 0)
(1.0232 -0.00706871 0)
(1.1479 -0.00177909 0)
(1.03004 -0.0177785 0)
(1.1112 -0.0159285 0)
(1.04259 -0.022635 0)
(1.10699 -0.0209763 0)
(1.05821 -0.0171202 0)
(1.10915 -0.0202987 0)
(0.788807 -0.0139665 0)
(1.25915 0.0196961 0)
(0.99108 -0.000719312 0)
(1.03275 -0.0149153 0)
(0.906377 -0.0384814 0)
(1.13712 -0.0214159 0)
(1.05352 0.000165784 0)
(1.17262 0.00488367 0)
(1.04523 0.0159725 0)
(1.24537 0.010256 0)
(1.03613 0.00317553 0)
(1.18616 0.000581175 0)
(1.07687 -0.00558286 0)
(1.09815 -0.00180099 0)
(1.05891 -0.0168498 0)
(1.06102 -0.0163665 0)
(1.05951 -0.0222838 0)
(1.05502 -0.0217253 0)
(1.07351 -0.0171712 0)
(1.06255 -0.019998 0)
(0.824314 -0.0142889 0)
(1.23566 0.018923 0)
(1.03104 0.000385495 0)
(1.00707 -0.0142654 0)
(0.914202 -0.0392152 0)
(1.08839 -0.0224663 0)
(1.07014 -0.000252819 0)
(1.14606 0.00487384 0)
(1.09221 0.0151483 0)
(1.2123 0.010383 0)
(1.09215 0.0039133 0)
(1.15326 0.000200652 0)
(1.10369 -0.00406962 0)
(1.0741 -0.00142033 0)
(1.06096 -0.0158257 0)
(1.0406 -0.0165341 0)
(1.05036 -0.0218255 0)
(1.03366 -0.0225631 0)
(1.06201 -0.017015 0)
(1.04297 -0.0202814 0)
(0.860756 -0.0146471 0)
(1.207 0.0180716 0)
(1.05448 0.00154289 0)
(0.99113 -0.0134824 0)
(0.921592 -0.0397054 0)
(1.04235 -0.0236552 0)
(1.08045 -0.000874177 0)
(1.12705 0.00450912 0)
(1.13085 0.0144527 0)
(1.19585 0.0103963 0)
(1.12714 0.00476724 0)
(1.13847 0.000187901 0)
(1.11037 -0.00253171 0)
(1.06609 -0.000638696 0)
(1.05369 -0.0147753 0)
(1.0339 -0.0164684 0)
(1.0363 -0.0212908 0)
(1.02398 -0.0232796 0)
(1.04538 -0.0169169 0)
(1.03196 -0.0207998 0)
(0.89464 -0.0150227 0)
(1.17484 0.017244 0)
(1.06326 0.00266161 0)
(0.984963 -0.0126347 0)
(0.92826 -0.0399833 0)
(1.00699 -0.0249252 0)
(1.0821 -0.00174693 0)
(1.11837 0.00383758 0)
(1.15626 0.0137017 0)
(1.19252 0.0104386 0)
(1.14503 0.00571636 0)
(1.13279 0.000556863 0)
(1.1074 -0.000979944 0)
(1.06308 0.000346431 0)
(1.04625 -0.0136715 0)
(1.03052 -0.0162383 0)
(1.0248 -0.0206371 0)
(1.01673 -0.0238575 0)
(1.03082 -0.0168103 0)
(1.02191 -0.0213481 0)
(0.923422 -0.0153852 0)
(1.14097 0.0165155 0)
(1.06157 0.0036621 0)
(0.986126 -0.0117872 0)
(0.935055 -0.0400642 0)
(0.984446 -0.0262029 0)
(1.07761 -0.00288655 0)
(1.11673 0.00289536 0)
(1.16999 0.0128728 0)
(1.19427 0.0105542 0)
(1.15235 0.0068055 0)
(1.12872 0.00121519 0)
(1.10121 0.000601361 0)
(1.05993 0.00140063 0)
(1.04083 -0.0125143 0)
(1.02694 -0.0158994 0)
(1.01677 -0.0198649 0)
(1.00968 -0.0242825 0)
(1.01956 -0.0166557 0)
(1.01175 -0.0218029 0)
(0.945857 -0.0157025 0)
(1.10744 0.0159119 0)
(1.05417 0.00448045 0)
(0.991484 -0.0109927 0)
(0.942783 -0.0399855 0)
(0.972001 -0.0274422 0)
(1.07096 -0.00424434 0)
(1.11669 0.00174164 0)
(1.1755 0.0119943 0)
(1.19427 0.0107372 0)
(1.15351 0.00805951 0)
(1.1229 0.00206732 0)
(1.094 0.00222508 0)
(1.05576 0.00244002 0)
(1.03696 -0.0113265 0)
(1.02285 -0.0154683 0)
(1.01116 -0.019006 0)
(1.00328 -0.0245413 0)
(1.01087 -0.0164468 0)
(1.00267 -0.0220943 0)
(0.961956 -0.0159488 0)
(1.07637 0.0154253 0)
(1.04506 0.00508637 0)
(0.998488 -0.0102863 0)
(0.9516 -0.0397701 0)
(0.965484 -0.0286129 0)
(1.06455 -0.00574113 0)
(1.11384 0.000442533 0)
(1.17522 0.0111049 0)
(1.18872 0.0109684 0)
(1.15036 0.00945171 0)
(1.11464 0.00305189 0)
(1.086 0.00386424 0)
(1.05101 0.00341672 0)
(1.03381 -0.0101148 0)
(1.01865 -0.0149549 0)
(1.00701 -0.0181091 0)
(0.998189 -0.0246248 0)
(1.00392 -0.0161985 0)
(0.995543 -0.0222089 0)
(0.972626 -0.0161096 0)
(1.04966 0.0150312 0)
(1.03677 0.0054858 0)
(1.00555 -0.00968432 0)
(0.961091 -0.0394315 0)
(0.961798 -0.0296913 0)
(1.05864 -0.007296 0)
(1.10593 -0.000940663 0)
(1.16994 0.010241 0)
(1.17639 0.0112307 0)
(1.14335 0.0109174 0)
(1.10413 0.00412472 0)
(1.07706 0.00546521 0)
(1.04605 0.00429081 0)
(1.03083 -0.00888762 0)
(1.01464 -0.0143794 0)
(1.0039 -0.0172201 0)
(0.994516 -0.0245346 0)
(0.998283 -0.0159362 0)
(0.990386 -0.0221649 0)
(0.979207 -0.0161837 0)
(1.02857 0.0146991 0)
(1.03032 0.00569788 0)
(1.01178 -0.00918766 0)
(0.970584 -0.0389792 0)
(0.959552 -0.0306585 0)
(1.05228 -0.00881358 0)
(1.09262 -0.00235671 0)
(1.15964 0.0094294 0)
(1.15764 0.0115044 0)
(1.13264 0.012378 0)
(1.09165 0.00523907 0)
(1.06721 0.00697148 0)
(1.04097 0.00504181 0)
(1.02781 -0.00766598 0)
(1.01099 -0.0137627 0)
(1.00178 -0.016379 0)
(0.992016 -0.024278 0)
(0.993857 -0.0156764 0)
(0.986783 -0.0219851 0)
(0.98308 -0.016181 0)
(1.01344 0.0144007 0)
(1.02567 0.00575712 0)
(1.01669 -0.00878855 0)
(0.979413 -0.0384266 0)
(0.958479 -0.0314956 0)
(1.04455 -0.0102167 0)
(1.07492 -0.00375663 0)
(1.14428 0.00868878 0)
(1.1338 0.0117645 0)
(1.11854 0.0137557 0)
(1.07758 0.00634229 0)
(1.05667 0.00833064 0)
(1.03572 0.00566034 0)
(1.02466 -0.006485 0)
(1.00781 -0.0131229 0)
(1.00061 -0.0156149 0)
(0.990357 -0.0238627 0)
(0.990603 -0.0154183 0)
(0.984292 -0.0216803 0)
(0.98541 -0.0161188 0)
(1.00364 0.0141173 0)
(1.0223 0.00570003 0)
(1.02005 -0.00847709 0)
(0.987059 -0.0377964 0)
(0.958672 -0.0321796 0)
(1.03508 -0.011442 0)
(1.05469 -0.00509044 0)
(1.12429 0.00803184 0)
(1.10686 0.0119819 0)
(1.10162 0.0149823 0)
(1.06258 0.00738196 0)
(1.04579 0.00949286 0)
(1.03029 0.00614076 0)
(1.02137 -0.00537865 0)
(1.00516 -0.0124881 0)
(1.00013 -0.0149268 0)
(0.98926 -0.023301 0)
(0.988362 -0.0151573 0)
(0.982577 -0.0212415 0)
(0.987029 -0.0160153 0)
(0.99788 0.0138413 0)
(1.01962 0.00556139 0)
(1.02185 -0.00824361 0)
(0.99321 -0.0371169 0)
(0.960116 -0.0326907 0)
(1.02411 -0.0124423 0)
(1.03409 -0.00631327 0)
(1.1007 0.00746755 0)
(1.07913 0.0121243 0)
(1.0827 0.0160101 0)
(1.04751 0.00830857 0)
(1.03503 0.0104262 0)
(1.02471 0.00645543 0)
(1.018 -0.00438789 0)
(1.00303 -0.0118873 0)
(0.999946 -0.0143006 0)
(0.98852 -0.0226042 0)
(0.986837 -0.0148859 0)
(0.981366 -0.0206583 0)
(0.988422 -0.0158859 0)
(0.99468 0.0135706 0)
(1.01729 0.00538283 0)
(1.02231 -0.00807685 0)
(0.997772 -0.0364155 0)
(0.962542 -0.0330214 0)
(1.01239 -0.0131965 0)
(1.01509 -0.00738516 0)
(1.07511 0.00699859 0)
(1.05289 0.0121657 0)
(1.06284 0.0168165 0)
(1.03333 0.00907511 0)
(1.02487 0.011124 0)
(1.01913 0.00661908 0)
(1.01467 -0.00355092 0)
(1.00134 -0.0113227 0)
(0.999645 -0.0137361 0)
(0.987989 -0.0217896 0)
(0.985707 -0.0145854 0)
(0.980419 -0.0199375 0)
(0.989797 -0.0157409 0)
(0.992827 0.0133073 0)
(1.01516 0.00518722 0)
(1.02177 -0.00796598 0)
(1.00085 -0.0357157 0)
(0.965486 -0.0331749 0)
(1.00088 -0.0137128 0)
(0.999116 -0.00828159 0)
(1.0495 0.0066208 0)
(1.02992 0.0120932 0)
(1.04333 0.0173963 0)
(1.02082 0.0096434 0)
(1.01582 0.0115866 0)
(1.01377 0.00667271 0)
(1.01153 -0.00288246 0)
(0.999979 -0.0107915 0)
(0.999021 -0.0132231 0)
(0.987566 -0.0208974 0)
(0.984753 -0.0142518 0)
(0.97956 -0.0191013 0)
(0.991183 -0.0155862 0)
(0.991564 0.0130537 0)
(1.01324 0.00497965 0)
(1.02062 -0.00790055 0)
(1.00267 -0.0350324 0)
(0.968456 -0.0331631 0)
(0.990524 -0.0140202 0)
(0.986789 -0.0089934 0)
(1.02591 0.00632376 0)
(1.01126 0.0119061 0)
(1.0255 0.017765 0)
(1.01046 0.00999478 0)
(1.00827 0.0118261 0)
(1.00889 0.00662138 0)
(1.00873 -0.00239475 0)
(0.998855 -0.0102865 0)
(0.998104 -0.0127429 0)
(0.987198 -0.0199726 0)
(0.983902 -0.0138885 0)
(0.978724 -0.0181849 0)
(0.992531 -0.0154241 0)
(0.990554 0.0128095 0)
(1.01155 0.00477165 0)
(1.01915 -0.00786971 0)
(1.00353 -0.0343696 0)
(0.971088 -0.0330095 0)
(0.981998 -0.0141607 0)
(0.978023 -0.00952558 0)
(1.00593 0.0060921 0)
(0.997146 0.011618 0)
(1.01047 0.0179519 0)
(1.00241 0.0101361 0)
(1.00245 0.0118797 0)
(1.00473 0.00650429 0)
(1.00639 -0.00207986 0)
(0.997929 -0.00979175 0)
(0.997065 -0.012288 0)
(0.986885 -0.0190344 0)
(0.983186 -0.013486 0)
(0.977959 -0.0172234 0)
(0.993775 -0.0152554 0)
(0.989718 0.0125732 0)
(1.01009 0.00456882 0)
(1.01757 -0.00786476 0)
(1.00369 -0.033725 0)
(0.973209 -0.0327442 0)
(0.975579 -0.0141755 0)
(0.972262 -0.00989815 0)
(0.990437 0.00591161 0)
(0.987189 0.0112487 0)
(0.99889 0.0179886 0)
(0.996546 0.0101103 0)
(0.998337 0.0117774 0)
(1.00142 0.00635424 0)
(1.00455 -0.00191057 0)
(0.997195 -0.00930587 0)
(0.996088 -0.0118484 0)
(0.986667 -0.0180866 0)
(0.982661 -0.0130407 0)
(0.977373 -0.0162407 0)
(0.994866 -0.0150805 0)
(0.989069 0.0123426 0)
(1.00883 0.0043738 0)
(1.01601 -0.00787812 0)
(1.00338 -0.0330957 0)
(0.97482 -0.0323938 0)
(0.971197 -0.0140979 0)
(0.968792 -0.0101423 0)
(0.979461 0.00576994 0)
(0.980633 0.0108181 0)
(0.990815 0.0178993 0)
(0.992563 0.00996969 0)
(0.995716 0.0115334 0)
(0.998986 0.00619107 0)
(1.00318 -0.00185668 0)
(0.996658 -0.00882912 0)
(0.995277 -0.011403 0)
(0.986589 -0.0171372 0)
(0.982357 -0.0125625 0)
(0.977066 -0.0152512 0)
(0.995773 -0.0148994 0)
(0.988623 0.0121152 0)
(1.00774 0.00418825 0)
(1.01455 -0.00790507 0)
(1.00276 -0.0324758 0)
(0.976009 -0.0319861 0)
(0.968574 -0.0139575 0)
(0.966981 -0.0102928 0)
(0.972454 0.00565333 0)
(0.976639 0.0103444 0)
(0.985828 0.0177039 0)
(0.9901 0.00975991 0)
(0.994269 0.0111758 0)
(0.997338 0.0060343 0)
(1.00219 -0.00188471 0)
(0.996308 -0.00836192 0)
(0.994645 -0.0109414 0)
(0.98667 -0.0161872 0)
(0.982263 -0.0120574 0)
(0.977086 -0.0142698 0)
(0.996486 -0.0147122 0)
(0.988371 0.0118889 0)
(1.0068 0.00401381 0)
(1.01324 -0.00794191 0)
(1.00196 -0.0318609 0)
(0.976877 -0.0315468 0)
(0.967358 -0.013777 0)
(0.966366 -0.0103782 0)
(0.968594 0.00554632 0)
(0.974471 0.00984955 0)
(0.983261 0.0174143 0)
(0.988805 0.00953349 0)
(0.993661 0.0107344 0)
(0.996343 0.00589196 0)
(1.00146 -0.00196297 0)
(0.996121 -0.00790739 0)
(0.994156 -0.0104773 0)
(0.986893 -0.0152474 0)
(0.982343 -0.0115232 0)
(0.977413 -0.0133001 0)
(0.997007 -0.014519 0)
(0.988292 0.0116614 0)
(1.00599 0.00385186 0)
(1.01214 -0.0079857 0)
(1.00111 -0.0312474 0)
(0.977496 -0.0310945 0)
(0.9672 -0.0135741 0)
(0.966609 -0.0104232 0)
(0.967048 0.00544055 0)
(0.973567 0.00935484 0)
(0.982407 0.0170384 0)
(0.988377 0.00931923 0)
(0.993596 0.0102222 0)
(0.995849 0.00579942 0)
(1.00091 -0.00205504 0)
(0.996063 -0.00746904 0)
(0.993769 -0.0100099 0)
(0.98722 -0.0143303 0)
(0.982565 -0.0109699 0)
(0.977974 -0.0123464 0)
(0.997357 -0.0143194 0)
(0.988364 0.0114301 0)
(1.00531 0.0037025 0)
(1.01128 -0.0080341 0)
(1.00031 -0.0306305 0)
(0.977919 -0.0306431 0)
(0.967772 -0.0133644 0)
(0.96742 -0.0104441 0)
(0.967076 0.00532707 0)
(0.973512 0.00887247 0)
(0.982637 0.0165845 0)
(0.988558 0.00914074 0)
(0.993836 0.00965062 0)
(0.995715 0.00574832 0)
(1.00046 -0.00213469 0)
(0.996101 -0.00705026 0)
(0.993474 -0.00952377 0)
(0.987605 -0.0134286 0)
(0.982911 -0.0104218 0)
(0.978688 -0.0114309 0)
(0.997565 -0.0141135 0)
(0.988565 0.0111925 0)
(1.00471 0.00356518 0)
(1.01063 -0.00808628 0)
(0.99963 -0.0300036 0)
(0.978202 -0.0302027 0)
(0.968777 -0.0131598 0)
(0.968523 -0.0104488 0)
(0.96804 0.00520059 0)
(0.973985 0.00841778 0)
(0.98343 0.0160407 0)
(0.989111 0.00902819 0)
(0.994197 0.00905318 0)
(0.995807 0.00569995 0)
(1.00008 -0.00218535 0)
(0.996205 -0.00666181 0)
(0.993281 -0.0090253 0)
(0.988015 -0.0125187 0)
(0.983368 -0.00988139 0)
(0.979489 -0.010571 0)
(0.997665 -0.0139012 0)
(0.988869 0.0109471 0)
(1.00418 0.00344026 0)
(1.01015 -0.00814406 0)
(0.999131 -0.0293618 0)
(0.978408 -0.0297766 0)
(0.969961 -0.0129643 0)
(0.969673 -0.0104493 0)
(0.9694 0.00505381 0)
(0.974718 0.00802496 0)
(0.984381 0.0154105 0)
(0.989823 0.00896529 0)
(0.994548 0.00846131 0)
(0.996004 0.00566264 0)
(0.999753 -0.00216938 0)
(0.996346 -0.00629408 0)
(0.993204 -0.00856471 0)
(0.988436 -0.0116101 0)
(0.983925 -0.00930468 0)
(0.980338 -0.00975609 0)
(0.997689 -0.0136825 0)
(0.989244 0.0106921 0)
(1.00369 0.00332768 0)
(1.00979 -0.00820788 0)
(0.998818 -0.0287067 0)
(0.9786 -0.0293573 0)
(0.971135 -0.0127856 0)
(0.970703 -0.0104366 0)
(0.970755 0.00485979 0)
(0.975512 0.0076897 0)
(0.985208 0.0147464 0)
(0.990517 0.00892619 0)
(0.994813 0.00786483 0)
(0.996211 0.00560302 0)
(0.999452 -0.0021035 0)
(0.996488 -0.00589533 0)
(0.993237 -0.00810672 0)
(0.988871 -0.010792 0)
(0.984565 -0.00873799 0)
(0.981204 -0.00896106 0)
(0.997661 -0.0134568 0)
(0.989655 0.0104265 0)
(1.00323 0.00322437 0)
(1.0095 -0.00827822 0)
(0.998672 -0.0280382 0)
(0.978823 -0.0289411 0)
(0.972183 -0.0126256 0)
(0.971543 -0.0103992 0)
(0.971862 0.00464449 0)
(0.976246 0.00736227 0)
(0.985768 0.0140305 0)
(0.991075 0.00894505 0)
(0.994963 0.00725559 0)
(0.996363 0.00552668 0)
(0.999172 -0.00202246 0)
(0.996611 -0.00552429 0)
(0.993342 -0.00758396 0)
(0.989303 -0.00996571 0)
(0.98528 -0.00827271 0)
(0.982083 -0.00825458 0)
(0.997603 -0.0132252 0)
(0.990066 0.0101505 0)
(1.00283 0.00313219 0)
(1.00922 -0.00836118 0)
(0.998656 -0.0273471 0)
(0.979105 -0.0285423 0)
(0.97305 -0.0124484 0)
(0.972197 -0.0103734 0)
(0.972635 0.00439674 0)
(0.976864 0.00712322 0)
(0.986043 0.0132195 0)
(0.991446 0.00896628 0)
(0.995007 0.00671046 0)
(0.996432 0.00542847 0)
(0.998889 -0.00191053 0)
(0.996701 -0.00509072 0)
(0.993504 -0.00719628 0)
(0.989679 -0.00907543 0)
(0.985977 -0.00775474 0)
(0.982935 -0.00760624 0)
(0.997528 -0.0129869 0)
(0.990449 0.00986288 0)
(1.0025 0.00305554 0)
(1.00895 -0.00845132 0)
(0.998725 -0.0266549 0)
(0.979453 -0.0281077 0)
(0.973719 -0.0123494 0)
(0.972705 -0.0102229 0)
(0.973104 0.0039948 0)
(0.977362 0.00695003 0)
(0.986086 0.0124116 0)
(0.991641 0.00895988 0)
(0.994972 0.00612908 0)
(0.996408 0.00536843 0)
(0.998614 -0.00191741 0)
(0.99672 -0.00459763 0)
(0.993672 -0.00673533 0)
(0.990045 -0.00827815 0)
(0.98665 -0.00728732 0)
(0.983745 -0.00696015 0)
(0.997453 -0.012736 0)
(0.990781 0.00955274 0)
(1.00226 0.00298809 0)
(1.00868 -0.00855959 0)
(0.998832 -0.0259374 0)
(0.979864 -0.0276986 0)
(0.974205 -0.0121853 0)
(0.973113 -0.010158 0)
(0.973338 0.00370868 0)
(0.977761 0.00669528 0)
(0.985991 0.0116189 0)
(0.991684 0.00890117 0)
(0.99489 0.00571178 0)
(0.996301 0.00502833 0)
(0.99832 -0.00150676 0)
(0.996726 -0.00461227 0)
(0.993822 -0.00618198 0)
(0.990351 -0.00743366 0)
(0.987316 -0.00669994 0)
(0.984551 -0.00639 0)
(0.997391 -0.0124866 0)
(0.991045 0.00924681 0)
(1.00212 0.00291226 0)
(1.00839 -0.00864811 0)
(0.998934 -0.025245 0)
(0.980336 -0.0271975 0)
(0.974531 -0.01213 0)
(0.973461 -0.00993361 0)
(0.973445 0.003252 0)
(0.97807 0.00657423 0)
(0.985838 0.0107714 0)
(0.991638 0.00878014 0)
(0.994758 0.00535455 0)
(0.996174 0.00474373 0)
(0.997982 -0.00140639 0)
(0.996625 -0.00414305 0)
(0.994017 -0.00596528 0)
(0.990596 -0.00685161 0)
(0.987794 -0.00585875 0)
(0.98517 -0.00562451 0)
(0.997353 -0.0122234 0)
(0.991236 0.00891632 0)
(1.00208 0.00287749 0)
(1.0081 -0.00877079 0)
(0.999003 -0.0245104 0)
(0.980843 -0.0267076 0)
(0.974762 -0.0120666 0)
(0.973769 -0.00968723 0)
(0.973503 0.00277334 0)
(0.978339 0.00639019 0)
(0.985688 0.0100638 0)
(0.991526 0.00846291 0)
(0.994636 0.005062 0)
(0.995958 0.00436903 0)
(0.997686 -0.00120325 0)
(0.996511 -0.00394444 0)
(0.994038 -0.00541802 0)
(0.990863 -0.00645228 0)
(0.988312 -0.00512755 0)
(0.985728 -0.00482372 0)
(0.997346 -0.0119336 0)
(0.991353 0.00853461 0)
(1.0021 0.00284587 0)
(1.00781 -0.00891095 0)
(0.999013 -0.0237725 0)
(0.981382 -0.0262378 0)
(0.974937 -0.0119122 0)
(0.97407 -0.00958159 0)
(0.973599 0.00249703 0)
(0.978579 0.00606648 0)
(0.985579 0.00936576 0)
(0.991399 0.00823093 0)
(0.994497 0.00475941 0)
(0.995778 0.00387585 0)
(0.997309 -0.000816893 0)
(0.996345 -0.00399419 0)
(0.994099 -0.00476333 0)
(0.990994 -0.00552822 0)
(0.98866 -0.00461906 0)
(0.986106 -0.00438235 0)
(0.997373 -0.0116712 0)
(0.991411 0.00820689 0)
(1.00217 0.00276208 0)
(1.00751 -0.00895521 0)
(0.998967 -0.0231454 0)
(0.981916 -0.0255415 0)
(0.975135 -0.0120308 0)
(0.97438 -0.00908582 0)
(0.973765 0.00176147 0)
(0.978825 0.0060528 0)
(0.985557 0.0084372 0)
(0.99126 0.00810622 0)
(0.994358 0.00420826 0)
(0.995564 0.00398916 0)
(0.996974 -0.00115495 0)
(0.996185 -0.00295734 0)
(0.994133 -0.00477156 0)
(0.991094 -0.00457412 0)
(0.988863 -0.00427326 0)
(0.986471 -0.00411241 0)
(0.99743 -0.0113711 0)
(0.99143 0.00782217 0)
(1.00224 0.00275718 0)
(1.00721 -0.00908664 0)
(0.998853 -0.0223938 0)
(0.982448 -0.0249827 0)
(0.975386 -0.0119311 0)
(0.974727 -0.0088867 0)
(0.974034 0.00135327 0)
(0.979095 0.00577912 0)
(0.985585 0.00781483 0)
(0.991163 0.00754631 0)
(0.994259 0.00408741 0)
(0.995347 0.00355124 0)
(0.996656 -0.000704569 0)
(0.995993 -0.00283288 0)
(0.994129 -0.00403601 0)
(0.991327 -0.00452474 0)
(0.989074 -0.00363334 0)
(0.986855 -0.00333252 0)
(0.997515 -0.0110391 0)
(0.991429 0.00736158 0)
(1.00229 0.00275764 0)
(1.0069 -0.00922731 0)
(0.998692 -0.0216743 0)
(0.982961 -0.0243869 0)
(0.975715 -0.0118556 0)
(0.975136 -0.00870313 0)
(0.9744 0.00109959 0)
(0.979415 0.00526201 0)
(0.985668 0.00736996 0)
(0.9911 0.00706745 0)
(0.994131 0.00393365 0)
(0.995188 0.0029768 0)
(0.996302 -0.000315055 0)
(0.995862 -0.00281211 0)
(0.994039 -0.00323458 0)
(0.991345 -0.0041326 0)
(0.989296 -0.00314334 0)
(0.987057 -0.00272966 0)
(0.997621 -0.01076 0)
(0.991426 0.00701705 0)
(1.00231 0.00265014 0)
(1.00658 -0.00918514 0)
(0.998506 -0.021143 0)
(0.983437 -0.0235366 0)
(0.97615 -0.012014 0)
(0.975593 -0.00817104 0)
(0.974874 0.000262387 0)
(0.979774 0.00535228 0)
(0.985819 0.0063446 0)
(0.991051 0.0069397 0)
(0.994025 0.00326645 0)
(0.995036 0.0033555 0)
(0.996011 -0.000408019 0)
(0.995708 -0.00168261 0)
(0.993993 -0.00358471 0)
(0.991423 -0.0029043 0)
(0.989409 -0.00305927 0)
(0.987331 -0.00287731 0)
(0.997735 -0.0104235 0)
(0.991443 0.00657629 0)
(1.00228 0.00266381 0)
(1.00626 -0.00928876 0)
(0.998299 -0.0204196 0)
(0.983896 -0.0228954 0)
(0.976666 -0.0119475 0)
(0.976116 -0.0079986 0)
(0.975441 -2.73225e-05 0)
(0.980154 0.00482219 0)
(0.986 0.00591494 0)
(0.991046 0.00630991 0)
(0.993968 0.00326525 0)
(0.994927 0.00271754 0)
(0.995737 -0.000125932 0)
(0.995493 -0.00164864 0)
(0.993983 -0.00280161 0)
(0.991644 -0.00298025 0)
(0.989445 -0.0021675 0)
(0.987675 -0.0019254 0)
(0.997854 -0.0100461 0)
(0.991494 0.00605482 0)
(1.00219 0.00266156 0)
(1.00594 -0.00937808 0)
(0.998088 -0.0197541 0)
(0.984339 -0.0222457 0)
(0.977247 -0.0118082 0)
(0.976701 -0.00793603 0)
(0.976049 -0.000194834 0)
(0.980604 0.00420923 0)
(0.986208 0.00562089 0)
(0.991066 0.00566608 0)
(0.993833 0.00323775 0)
(0.994814 0.00218203 0)
(0.995491 3.33437e-05 0)
(0.99543 -0.00174704 0)
(0.993847 -0.00196075 0)
(0.991725 -0.00287424 0)
(0.989754 -0.00153203 0)
(0.987785 -0.00107725 0)
(0.997979 -0.00977011 0)
(0.991575 0.00572301 0)
(1.00207 0.00250975 0)
(1.00559 -0.00920436 0)
(0.997903 -0.0193619 0)
(0.984758 -0.0212402 0)
(0.977893 -0.0120547 0)
(0.977306 -0.00736806 0)
(0.976738 -0.000964899 0)
(0.981052 0.00440326 0)
(0.986437 0.00448687 0)
(0.991084 0.00579077 0)
(0.993774 0.00250963 0)
(0.994713 0.00269502 0)
(0.99525 -0.000124257 0)
(0.995317 -0.000513748 0)
(0.99381 -0.00235217 0)
(0.991841 -0.00148191 0)
(0.989899 -0.00200828 0)
(0.988049 -0.00167821 0)
(0.998088 -0.00936752 0)
(0.99171 0.0051957 0)
(1.00189 0.00256237 0)
(1.00526 -0.0093037 0)
(0.997722 -0.0186427 0)
(0.985182 -0.0206728 0)
(0.978563 -0.0118174 0)
(0.977956 -0.00741561 0)
(0.977442 -0.00104648 0)
(0.981487 0.00371189 0)
(0.986697 0.00426309 0)
(0.991131 0.00517748 0)
(0.993679 0.00268772 0)
(0.994635 0.00210853 0)
(0.995125 6.70196e-05 0)
(0.995157 -0.00106499 0)
(0.993806 -0.0015829 0)
(0.991985 -0.00161087 0)
(0.989863 -0.000700438 0)
(0.988384 -0.000413399 0)
(0.998189 -0.00900363 0)
(0.991892 0.00471356 0)
(1.00169 0.00248282 0)
(1.00492 -0.00922461 0)
(0.997556 -0.0181285 0)
(0.985627 -0.0199373 0)
(0.97923 -0.011641 0)
(0.978624 -0.00745605 0)
(0.978144 -0.00116465 0)
(0.981974 0.00303398 0)
(0.986933 0.00420293 0)
(0.9912 0.0044208 0)
(0.993584 0.00278864 0)
(0.994524 0.00170695 0)
(0.994836 7.99476e-05 0)
(0.995176 -0.00142567 0)
(0.993821 -0.00133143 0)
(0.992249 -0.00161729 0)
(0.990372 0.000387802 0)
(0.988444 0.000510559 0)
(0.998297 -0.00869581 0)
(0.992095 0.00434494 0)
(1.00149 0.00235231 0)
(1.00456 -0.00901163 0)
(0.997436 -0.0177251 0)
(0.986046 -0.0190303 0)
(0.979924 -0.0117185 0)
(0.979286 -0.00707433 0)
(0.978855 -0.00169451 0)
(0.982448 0.00297939 0)
(0.987194 0.00353246 0)
(0.991248 0.0042739 0)
(0.993519 0.00238813 0)
(0.994405 0.00186503 0)
(0.994698 -5.18311e-05 0)
(0.995044 -0.00071348 0)
(0.99387 -0.00148954 0)
(0.992593 -0.000575569 0)
(0.990527 -0.000273336 0)
(0.988542 5.548e-05 0)
(0.998393 -0.00825038 0)
(0.992332 0.00377624 0)
(1.00128 0.00234315 0)
(1.00421 -0.00896562 0)
(0.997327 -0.0171195 0)
(0.986485 -0.0184406 0)
(0.980608 -0.0114403 0)
(0.979941 -0.00711367 0)
(0.979573 -0.00187556 0)
(0.98291 0.00261616 0)
(0.987442 0.00314206 0)
(0.991329 0.00390306 0)
(0.993459 0.00226809 0)
(0.994297 0.00169338 0)
(0.994507 0.000201486 0)
(0.995018 -0.000808049 0)
(0.994031 -0.00066496 0)
(0.992729 -0.000599029 0)
(0.990705 -0.000144099 0)
(0.988816 0.000527956 0)
(0.99848 -0.00793139 0)
(0.992599 0.0033586 0)
(1.00106 0.00219391 0)
(1.00385 -0.00874062 0)
(0.997237 -0.0166769 0)
(0.986934 -0.0176851 0)
(0.981283 -0.011328 0)
(0.980604 -0.00695251 0)
(0.980279 -0.00217033 0)
(0.983376 0.00227554 0)
(0.987696 0.00283667 0)
(0.991403 0.00354018 0)
(0.993402 0.0020003 0)
(0.994225 0.00168026 0)
(0.99435 0.000224389 0)
(0.995016 -0.0003243 0)
(0.994058 -0.000668149 0)
(0.992885 -0.000542799 0)
(0.991035 4.13226e-05 0)
(0.989021 0.000586871 0)
(0.998561 -0.00754146 0)
(0.992887 0.00290312 0)
(1.00085 0.00206915 0)
(1.00349 -0.00854391 0)
(0.997161 -0.0161487 0)
(0.987388 -0.0170423 0)
(0.981962 -0.0111088 0)
(0.981256 -0.00685293 0)
(0.980976 -0.00242579 0)
(0.983858 0.00197451 0)
(0.987938 0.00251113 0)
(0.991474 0.00313586 0)
(0.993389 0.00187349 0)
(0.994144 0.00158375 0)
(0.994251 0.000399611 0)
(0.994949 -0.000328404 0)
(0.99411 -0.000513265 0)
(0.99308 -0.00025521 0)
(0.991213 0.000184473 0)
(0.989243 0.000721541 0)
(0.998638 -0.00715378 0)
(0.993189 0.00242265 0)
(1.00065 0.00192987 0)
(1.00314 -0.00832023 0)
(0.997094 -0.0156144 0)
(0.987847 -0.0164594 0)
(0.98263 -0.0108639 0)
(0.981914 -0.00681107 0)
(0.981674 -0.00254257 0)
(0.984336 0.00157182 0)
(0.988183 0.00221593 0)
(0.991575 0.00277733 0)
(0.993373 0.00176032 0)
(0.994117 0.00138542 0)
(0.994089 0.000579574 0)
(0.994935 -0.000363063 0)
(0.994218 -0.000210677 0)
(0.993228 -0.000122827 0)
(0.991507 0.000394261 0)
(0.989439 0.000903736 0)
(0.998712 -0.00680275 0)
(0.993502 0.00200047 0)
(1.00046 0.00177226 0)
(1.00278 -0.00807936 0)
(0.997035 -0.0150997 0)
(0.988308 -0.0158333 0)
(0.983305 -0.0106503 0)
(0.982571 -0.0066572 0)
(0.982357 -0.00274023 0)
(0.984822 0.0012215 0)
(0.988437 0.00194028 0)
(0.991671 0.00244723 0)
(0.993379 0.00153012 0)
(0.994086 0.00129044 0)
(0.994011 0.000573011 0)
(0.994896 5.76743e-07 0)
(0.99431 -0.000309139 0)
(0.993402 0.000234235 0)
(0.991707 0.000381251 0)
(0.989639 0.000857039 0)
(0.998784 -0.00641172 0)
(0.993821 0.00155753 0)
(1.00029 0.00159276 0)
(1.00244 -0.00785377 0)
(0.996988 -0.0144951 0)
(0.988768 -0.0152807 0)
(0.98397 -0.0103965 0)
(0.983224 -0.00660837 0)
(0.983034 -0.00284076 0)
(0.985315 0.000875343 0)
(0.988691 0.00167027 0)
(0.991778 0.00208628 0)
(0.993403 0.00139789 0)
(0.9941 0.00110501 0)
(0.993951 0.000798924 0)
(0.994835 -6.64307e-05 0)
(0.994438 -5.53896e-05 0)
(0.99357 0.00022887 0)
(0.991868 0.000562184 0)
(0.989846 0.00111717 0)
(0.998855 -0.00605268 0)
(0.994143 0.00113448 0)
(1.00013 0.00140757 0)
(1.0021 -0.00759132 0)
(0.996942 -0.0139439 0)
(0.989225 -0.0147209 0)
(0.984635 -0.0101843 0)
(0.983884 -0.00648241 0)
(0.983706 -0.00293906 0)
(0.985806 0.000546755 0)
(0.98895 0.00139323 0)
(0.991898 0.00177368 0)
(0.993434 0.00120975 0)
(0.994149 0.00100063 0)
(0.993878 0.000739026 0)
(0.994807 0.00017564 0)
(0.994539 -4.97601e-05 0)
(0.993735 0.000382049 0)
(0.992183 0.000681895 0)
(0.990059 0.00121648 0)
(0.998924 -0.00568776 0)
(0.994468 0.000735076 0)
(0.99999 0.00121142 0)
(1.00177 -0.00737179 0)
(0.996906 -0.0133529 0)
(0.989677 -0.0141294 0)
(0.9853 -0.00993932 0)
(0.98454 -0.00639022 0)
(0.984366 -0.00306029 0)
(0.986302 0.000236184 0)
(0.989216 0.00111969 0)
(0.992018 0.00147085 0)
(0.993495 0.00104047 0)
(0.994185 0.000857902 0)
(0.993905 0.000773196 0)
(0.994746 0.000355925 0)
(0.994649 1.75206e-05 0)
(0.993951 0.000505801 0)
(0.992328 0.00073386 0)
(0.990255 0.00127467 0)
(0.998993 -0.00532432 0)
(0.994792 0.000338933 0)
(0.999866 0.00100372 0)
(1.00146 -0.00712648 0)
(0.996876 -0.0127574 0)
(0.990122 -0.0135564 0)
(0.985952 -0.00971607 0)
(0.985196 -0.00631932 0)
(0.985026 -0.00312759 0)
(0.986799 -5.13547e-05 0)
(0.989486 0.000870161 0)
(0.992159 0.0012089 0)
(0.993554 0.000857017 0)
(0.994284 0.000727161 0)
(0.993909 0.000762558 0)
(0.994715 0.000465442 0)
(0.994735 0.000137696 0)
(0.994113 0.000512452 0)
(0.992634 0.000844092 0)
(0.990472 0.00142165 0)
(0.999061 -0.00498 0)
(0.995115 -2.22587e-05 0)
(0.99976 0.000787901 0)
(1.00117 -0.00688489 0)
(0.996854 -0.012204 0)
(0.990558 -0.0129565 0)
(0.986602 -0.00946729 0)
(0.985853 -0.00620843 0)
(0.985676 -0.00321996 0)
(0.987297 -0.000319211 0)
(0.989766 0.000607837 0)
(0.992291 0.000965362 0)
(0.993639 0.000630211 0)
(0.994361 0.000646871 0)
(0.993999 0.000668321 0)
(0.994683 0.000642177 0)
(0.994806 0.000196934 0)
(0.994341 0.000633456 0)
(0.992847 0.000855113 0)
(0.99068 0.00139509 0)
(0.999127 -0.00463236 0)
(0.995435 -0.000367624 0)
(0.99967 0.000561295 0)
(1.00089 -0.00665368 0)
(0.996842 -0.0116339 0)
(0.990991 -0.0123573 0)
(0.987238 -0.00919271 0)
(0.986499 -0.00613644 0)
(0.98632 -0.00331448 0)
(0.987794 -0.000573146 0)
(0.990052 0.000353471 0)
(0.99244 0.000746846 0)
(0.993733 0.000452771 0)
(0.994493 0.000528944 0)
(0.994079 0.000664405 0)
(0.994688 0.000681406 0)
(0.994876 0.000363587 0)
(0.994485 0.000628642 0)
(0.993102 0.000892934 0)
(0.990909 0.00144993 0)
(0.999192 -0.00430298 0)
(0.995752 -0.000684239 0)
(0.999598 0.000328068 0)
(1.00062 -0.00640453 0)
(0.996839 -0.0111016 0)
(0.991412 -0.0117669 0)
(0.987864 -0.0089158 0)
(0.987142 -0.0060326 0)
(0.986957 -0.00339995 0)
(0.988292 -0.000795562 0)
(0.99035 0.000109024 0)
(0.992589 0.000573044 0)
(0.993839 0.00025728 0)
(0.994617 0.000415679 0)
(0.994216 0.000559022 0)
(0.994709 0.000782097 0)
(0.99492 0.000439996 0)
(0.994672 0.000720711 0)
(0.993353 0.000915528 0)
(0.991138 0.00143403 0)
(0.999255 -0.00398173 0)
(0.996064 -0.000965549 0)
(0.999543 7.45835e-05 0)
(1.00038 -0.00617216 0)
(0.996846 -0.0105878 0)
(0.991831 -0.0111826 0)
(0.988476 -0.00858335 0)
(0.98777 -0.00593004 0)
(0.987584 -0.0034878 0)
(0.988788 -0.00101789 0)
(0.990655 -0.000141041 0)
(0.99275 0.000404071 0)
(0.993947 0.000104438 0)
(0.994777 0.000270761 0)
(0.994368 0.000533942 0)
(0.99477 0.000775713 0)
(0.994987 0.000595978 0)
(0.994795 0.000764641 0)
(0.993567 0.000909506 0)
(0.991374 0.00139153 0)
(0.999316 -0.00367462 0)
(0.996368 -0.00121984 0)
(0.999504 -0.000186434 0)
(1.00016 -0.00593309 0)
(0.996864 -0.0101052 0)
(0.992243 -0.0106153 0)
(0.989072 -0.00824731 0)
(0.988387 -0.00579642 0)
(0.988201 -0.0035703 0)
(0.989283 -0.00121777 0)
(0.990975 -0.000372465 0)
(0.992921 0.00025111 0)
(0.994057 -2.25756e-05 0)
(0.994942 0.000125851 0)
(0.994552 0.000453321 0)
(0.994857 0.000802576 0)
(0.995042 0.000669156 0)
(0.994914 0.00081684 0)
(0.993784 0.000946196 0)
(0.991613 0.00137344 0)
(0.999375 -0.00337497 0)
(0.996663 -0.00143724 0)
(0.999482 -0.000455107 0)
(0.99995 -0.00570081 0)
(0.996891 -0.00964172 0)
(0.992653 -0.0100771 0)
(0.989657 -0.00787729 0)
(0.988983 -0.00563891 0)
(0.988804 -0.00364768 0)
(0.989775 -0.00140717 0)
(0.991301 -0.000611002 0)
(0.993105 8.31153e-05 0)
(0.994162 -0.000102635 0)
(0.99512 -3.32631e-05 0)
(0.994767 0.000380986 0)
(0.994974 0.000780882 0)
(0.995117 0.000745837 0)
(0.995021 0.000881307 0)
(0.993967 0.000970986 0)
(0.991838 0.00132513 0)
(0.999433 -0.00310382 0)
(0.996946 -0.00160085 0)
(0.999476 -0.000730889 0)
(0.999764 -0.00546838 0)
(0.996927 -0.00919367 0)
(0.993062 -0.00955955 0)
(0.990229 -0.00751923 0)
(0.989562 -0.00546174 0)
(0.989393 -0.00370824 0)
(0.990263 -0.00157858 0)
(0.991637 -0.000824179 0)
(0.993316 -8.01428e-05 0)
(0.994267 -0.000135514 0)
(0.995291 -0.000163139 0)
(0.995004 0.000282969 0)
(0.995121 0.000750105 0)
(0.995203 0.000804431 0)
(0.995114 0.000931442 0)
(0.994126 0.000996419 0)
(0.992057 0.00128598 0)
(0.999488 -0.00283897 0)
(0.997217 -0.00173803 0)
(0.999484 -0.000997121 0)
(0.999598 -0.00525617 0)
(0.996968 -0.00873526 0)
(0.993466 -0.0090632 0)
(0.990792 -0.00717305 0)
(0.990124 -0.00527201 0)
(0.989966 -0.00375495 0)
(0.990749 -0.00173644 0)
(0.991977 -0.00100993 0)
(0.993546 -0.000274071 0)
(0.994369 -0.000162174 0)
(0.995448 -0.000259612 0)
(0.995258 0.00017511 0)
(0.9953 0.000698512 0)
(0.995307 0.000842864 0)
(0.9952 0.000977325 0)
(0.994256 0.00103286 0)