/*--------------------------------*- C++ -*----------------------------------*\
| =========                 |                                                 |
| \\      /  F ield         | OpenFOAM: The Open Source CFD Toolbox           |
|  \\    /   O peration     | Version:  v2012                                 |
|   \\  /    A nd           | Website:  www.openfoam.com                      |
|    \\/     M anipulation  |                                                 |
\*---------------------------------------------------------------------------*/
FoamFile
{
    version     2.0;
    format      ascii;
    class       surfaceScalarField;
    location    "9.6";
    object      phi;
}
// * * * * * * * * * * * * * * * * * * * * * * * * * * * * * * * * * * * * * //

dimensions      [0 3 -1 0 0 0 0];
oriented        oriented;


internalField   nonuniform List<scalar> 
13830
(
9.23613e-07
-1.53002e-06
1.02388e-06
1.08296e-07
1.0193e-06
6.71826e-07
9.98549e-07
1.3853e-06
9.5853e-07
2.67691e-08
8.525e-07
-1.30873e-06
9.427e-07
-2.25522e-06
9.69162e-07
-1.63374e-06
9.57917e-07
-1.34208e-06
1.01302e-06
-3.9489e-07
1.03927e-06
-1.15717e-07
1.0324e-06
-2.06959e-09
1.04516e-06
6.40018e-07
1.01909e-06
1.65817e-07
1.03929e-06
3.92139e-07
1.02611e-06
1.37471e-07
1.03444e-06
1.62508e-07
1.02905e-06
7.25197e-08
1.02601e-06
7.37202e-08
5.49328e-08
1.01217e-06
9.65381e-07
-1.52287e-06
1.06568e-06
7.99826e-09
1.05858e-06
6.78926e-07
1.04715e-06
1.39673e-06
9.91897e-07
8.2021e-08
9.01069e-07
-1.2179e-06
9.74064e-07
-2.32822e-06
9.92117e-07
-1.6518e-06
9.93815e-07
-1.34378e-06
1.04858e-06
-4.49653e-07
1.07721e-06
-1.44348e-07
1.0742e-06
9.37285e-10
1.07857e-06
6.35653e-07
1.06156e-06
1.82827e-07
1.07218e-06
3.81512e-07
1.07152e-06
1.38138e-07
1.06879e-06
1.6524e-07
1.07677e-06
6.45388e-08
1.0594e-06
9.10878e-08
4.83684e-08
1.06596e-06
1.00636e-06
-1.51977e-06
1.10926e-06
-9.49093e-08
1.10419e-06
6.84001e-07
1.09593e-06
1.40499e-06
1.03203e-06
1.45919e-07
9.52958e-07
-1.13882e-06
1.00118e-06
-2.37645e-06
1.02093e-06
-1.67154e-06
1.02685e-06
-1.3497e-06
1.08389e-06
-5.0669e-07
1.1117e-06
-1.72167e-07
1.11999e-06
-7.34485e-09
1.11531e-06
6.40332e-07
1.10973e-06
1.88405e-07
1.11355e-06
3.77692e-07
1.12133e-06
1.30357e-07
1.1155e-06
1.71067e-07
1.12477e-06
5.52695e-08
1.10955e-06
1.06314e-07
4.79926e-08
1.10992e-06
1.04486e-06
-1.51685e-06
1.15178e-06
-2.01832e-07
1.15518e-06
6.80602e-07
1.14405e-06
1.41612e-06
1.07438e-06
2.15594e-07
1.00489e-06
-1.06934e-06
1.02692e-06
-2.39847e-06
1.05096e-06
-1.69558e-06
1.05841e-06
-1.35715e-06
1.11619e-06
-5.64478e-07
1.14545e-06
-2.01419e-07
1.16376e-06
-2.5663e-08
1.15918e-06
6.44918e-07
1.15894e-06
1.8864e-07
1.16484e-06
3.71797e-07
1.17326e-06
1.2193e-07
1.17054e-06
1.73791e-07
1.1761e-06
4.97081e-08
1.16465e-06
1.1777e-07
5.24243e-08
1.16021e-06
1.08176e-06
-1.51105e-06
1.19092e-06
-3.10994e-07
1.20776e-06
6.63762e-07
1.19118e-06
1.4327e-06
1.11893e-06
2.87837e-07
1.05631e-06
-1.00671e-06
1.05667e-06
-2.39883e-06
1.08205e-06
-1.72097e-06
1.09111e-06
-1.3662e-06
1.14779e-06
-6.21156e-07
1.1816e-06
-2.35232e-07
1.20641e-06
-5.04703e-08
1.20797e-06
6.43358e-07
1.20988e-06
1.86729e-07
1.22039e-06
3.61288e-07
1.22824e-06
1.1408e-07
1.22736e-06
1.74666e-07
1.22995e-06
4.71256e-08
1.21939e-06
1.28328e-07
5.98117e-08
1.212e-06
1.11927e-06
-1.50148e-06
1.22626e-06
-4.17983e-07
1.25708e-06
6.32946e-07
1.23647e-06
1.45331e-06
1.16457e-06
3.59742e-07
1.10727e-06
-9.49418e-07
1.09337e-06
-2.38493e-06
1.11557e-06
-1.74316e-06
1.12665e-06
-1.37728e-06
1.18182e-06
-6.76331e-07
1.22151e-06
-2.74919e-07
1.25105e-06
-8.00076e-08
1.26013e-06
6.34273e-07
1.26425e-06
1.82612e-07
1.2779e-06
3.4764e-07
1.28601e-06
1.05963e-07
1.2846e-06
1.76082e-07
1.28478e-06
4.694e-08
1.27323e-06
1.39884e-07
6.95601e-08
1.26348e-06
1.15921e-06
-1.48899e-06
1.25852e-06
-5.173e-07
1.29964e-06
5.91832e-07
1.27905e-06
1.47389e-06
1.21032e-06
4.28468e-07
1.15864e-06
-8.97732e-07
1.13677e-06
-2.36306e-06
1.15248e-06
-1.75888e-06
1.16483e-06
-1.38963e-06
1.21922e-06
-7.3072e-07
1.26449e-06
-3.2019e-07
1.2993e-06
-1.14814e-07
1.31567e-06
6.17905e-07
1.32277e-06
1.75507e-07
1.33746e-06
3.32956e-07
1.34581e-06
9.76084e-08
1.34245e-06
1.79441e-07
1.3399e-06
4.94962e-08
1.32662e-06
1.53156e-07
8.17061e-08
1.31448e-06
1.20216e-06
-1.47497e-06
1.28874e-06
-6.03882e-07
1.33442e-06
5.46148e-07
1.31863e-06
1.48969e-06
1.25587e-06
4.91227e-07
1.21107e-06
-8.52934e-07
1.18484e-06
-2.33683e-06
1.19257e-06
-1.76662e-06
1.20483e-06
-1.40188e-06
1.25903e-06
-7.84924e-07
1.30896e-06
-3.70119e-07
1.35056e-06
-1.56415e-07
1.37408e-06
5.94388e-07
1.38435e-06
1.65231e-07
1.39851e-06
3.18797e-07
1.40607e-06
9.00552e-08
1.40026e-06
1.85252e-07
1.39434e-06
5.54097e-08
1.37934e-06
1.6816e-07
9.63108e-08
1.36473e-06
1.24778e-06
-1.46039e-06
1.31809e-06
-6.7419e-07
1.36284e-06
5.01394e-07
1.35578e-06
1.49675e-06
1.30151e-06
5.45492e-07
1.2649e-06
-8.16325e-07
1.2357e-06
-2.30762e-06
1.23519e-06
-1.7661e-06
1.24619e-06
-1.41289e-06
1.29996e-06
-8.3869e-07
1.35316e-06
-4.23319e-07
1.40273e-06
-2.05983e-07
1.43343e-06
5.63682e-07
1.44645e-06
1.52211e-07
1.45915e-06
3.06096e-07
1.46462e-06
8.45852e-08
1.45641e-06
1.93461e-07
1.4468e-06
6.50205e-08
1.43045e-06
1.84513e-07
1.13151e-07
1.41361e-06
1.29544e-06
-1.44556e-06
1.34802e-06
-7.26766e-07
1.38798e-06
4.6143e-07
1.39182e-06
1.49291e-06
1.34792e-06
5.89386e-07
1.32011e-06
-7.88514e-07
1.28823e-06
-2.27574e-06
1.28001e-06
-1.75788e-06
1.28903e-06
-1.42191e-06
1.3412e-06
-8.90857e-07
1.39556e-06
-4.77682e-07
1.45312e-06
-2.63542e-07
1.49088e-06
5.2592e-07
1.50599e-06
1.37105e-07
1.51677e-06
2.95308e-07
1.51924e-06
8.21194e-08
1.50908e-06
2.03622e-07
1.49593e-06
7.81649e-08
1.47886e-06
2.01585e-07
1.31673e-07
1.46034e-06
1.3448e-06
-1.43033e-06
1.38028e-06
-7.62246e-07
1.41364e-06
4.28073e-07
1.42853e-06
1.47802e-06
1.39586e-06
6.22057e-07
1.37652e-06
-7.69173e-07
1.34184e-06
-2.24106e-06
1.32725e-06
-1.74329e-06
1.33377e-06
-1.42843e-06
1.38254e-06
-9.39634e-07
1.43521e-06
-5.30352e-07
1.49931e-06
-3.27633e-07
1.54359e-06
4.81636e-07
1.56013e-06
1.20561e-07
1.56892e-06
2.86522e-07
1.56807e-06
8.29737e-08
1.55672e-06
2.1497e-07
1.54071e-06
9.41755e-08
1.52371e-06
2.18587e-07
1.51072e-07
1.50431e-06
1.39589e-06
-1.41457e-06
1.41655e-06
-7.8291e-07
1.44323e-06
4.01395e-07
1.46764e-06
1.45361e-06
1.44592e-06
6.43771e-07
1.43391e-06
-7.57164e-07
1.39634e-06
-2.20348e-06
1.37737e-06
-1.72432e-06
1.38089e-06
-1.43194e-06
1.42428e-06
-9.83029e-07
1.47205e-06
-5.78125e-07
1.53978e-06
-3.95362e-07
1.58951e-06
4.3191e-07
1.60692e-06
1.03149e-07
1.61388e-06
2.79564e-07
1.60999e-06
8.68583e-08
1.59845e-06
2.26514e-07
1.58061e-06
1.12012e-07
1.56455e-06
2.34649e-07
1.70422e-07
1.5452e-06
1.44897e-06
-1.3983e-06
1.45801e-06
-7.91943e-07
1.47904e-06
3.80367e-07
1.51036e-06
1.42229e-06
1.49843e-06
6.55697e-07
1.49213e-06
-7.50863e-07
1.45182e-06
-2.16317e-06
1.43075e-06
-1.70326e-06
1.4307e-06
-1.43189e-06
1.467e-06
-1.01933e-06
1.50699e-06
-6.18113e-07
1.57445e-06
-4.62815e-07
1.62792e-06
3.78435e-07
1.64564e-06
8.54319e-08
1.65112e-06
2.74082e-07
1.64495e-06
9.30266e-08
1.63426e-06
2.37204e-07
1.61582e-06
1.30454e-07
1.60152e-06
2.48955e-07
1.88807e-07
1.58313e-06
1.50435e-06
-1.38177e-06
1.50506e-06
-7.92657e-07
1.52189e-06
3.63537e-07
1.55723e-06
1.38696e-06
1.55343e-06
6.59497e-07
1.5511e-06
-7.48536e-07
1.50853e-06
-2.1206e-06
1.48742e-06
-1.68215e-06
1.48326e-06
-1.42772e-06
1.51145e-06
-1.04753e-06
1.54174e-06
-6.484e-07
1.60468e-06
-5.25759e-07
1.65965e-06
3.23469e-07
1.67702e-06
6.80528e-08
1.68151e-06
2.69594e-07
1.67403e-06
1.0051e-07
1.66509e-06
2.46138e-07
1.64725e-06
1.48302e-07
1.63533e-06
2.60872e-07
2.0543e-07
1.61871e-06
1.56216e-06
-1.36532e-06
1.5574e-06
-7.87901e-07
1.5714e-06
3.49541e-07
1.60821e-06
1.35015e-06
1.6108e-06
6.56912e-07
1.61091e-06
-7.48654e-07
1.56682e-06
-2.07651e-06
1.54712e-06
-1.66244e-06
1.53844e-06
-1.41905e-06
1.55837e-06
-1.06746e-06
1.57837e-06
-6.68393e-07
1.63301e-06
-5.804e-07
1.68687e-06
2.69607e-07
1.70314e-06
5.17864e-08
1.7072e-06
2.65527e-07
1.69933e-06
1.08382e-07
1.69274e-06
2.52727e-07
1.67647e-06
1.64572e-07
1.66731e-06
2.70035e-07
2.1969e-07
1.65305e-06
1.62241e-06
-1.34919e-06
1.61429e-06
-7.79776e-07
1.62647e-06
3.37362e-07
1.66297e-06
1.31364e-06
1.67038e-06
6.49502e-07
1.67181e-06
-7.5008e-07
1.62697e-06
-2.03167e-06
1.60938e-06
-1.64485e-06
1.5961e-06
-1.40577e-06
1.60846e-06
-1.07981e-06
1.61885e-06
-6.7879e-07
1.66243e-06
-6.2398e-07
1.71266e-06
2.19381e-07
1.72698e-06
3.74689e-08
1.73123e-06
2.61277e-07
1.72363e-06
1.15974e-07
1.71961e-06
2.56753e-07
1.70555e-06
1.78632e-07
1.69921e-06
2.76372e-07
2.31232e-07
1.68767e-06
1.68504e-06
-1.33348e-06
1.67491e-06
-7.69647e-07
1.68589e-06
3.26381e-07
1.72116e-06
1.27838e-06
1.7321e-06
6.38561e-07
1.73412e-06
-7.52105e-07
1.68916e-06
-1.98671e-06
1.67377e-06
-1.62946e-06
1.6562e-06
-1.3882e-06
1.66219e-06
-1.0858e-06
1.66464e-06
-6.8124e-07
1.69573e-06
-6.55077e-07
1.74034e-06
1.74777e-07
1.75196e-06
2.58485e-08
1.75692e-06
2.56311e-07
1.74994e-06
1.2296e-07
1.74836e-06
2.58328e-07
1.73676e-06
1.90229e-07
1.73308e-06
2.80058e-07
2.39956e-07
1.72435e-06
1.74998e-06
-1.31814e-06
1.73866e-06
-7.58329e-07
1.74874e-06
3.16301e-07
1.78251e-06
1.24461e-06
1.79594e-06
6.25137e-07
1.79822e-06
-7.54387e-07
1.75352e-06
-1.94201e-06
1.74002e-06
-1.61596e-06
1.71879e-06
-1.36697e-06
1.71979e-06
-1.0868e-06
1.7164e-06
-6.7785e-07
1.73494e-06
-6.73612e-07
1.77288e-06
1.36839e-07
1.78131e-06
1.74188e-08
1.78734e-06
2.5028e-07
1.78099e-06
1.29306e-07
1.78152e-06
2.57795e-07
1.77231e-06
1.99442e-07
1.77092e-06
2.81448e-07
2.46001e-07
1.76487e-06
1.81723e-06
-1.30303e-06
1.80521e-06
-7.46308e-07
1.81447e-06
3.07034e-07
1.84692e-06
1.21216e-06
1.86197e-06
6.10086e-07
1.86441e-06
-7.56825e-07
1.82013e-06
-1.89774e-06
1.8081e-06
-1.60392e-06
1.78407e-06
-1.34294e-06
1.78128e-06
-1.08401e-06
1.77414e-06
-6.70711e-07
1.78114e-06
-6.80607e-07
1.81244e-06
1.0554e-07
1.81755e-06
1.23103e-08
1.82474e-06
2.43082e-07
1.81892e-06
1.35128e-07
1.82111e-06
2.55609e-07
1.81398e-06
2.06573e-07
1.81444e-06
2.80988e-07
2.49695e-07
1.81074e-06
1.88685e-06
-1.28798e-06
1.87445e-06
-7.33906e-07
1.88286e-06
2.98618e-07
1.91433e-06
1.18069e-06
1.93032e-06
5.94102e-07
1.93293e-06
-7.59436e-07
1.88907e-06
-1.85388e-06
1.87808e-06
-1.59294e-06
1.85223e-06
-1.31709e-06
1.84651e-06
-1.0783e-06
1.83741e-06
-6.6161e-07
1.83456e-06
-6.77756e-07
1.86015e-06
7.99542e-08
1.86217e-06
1.029e-08
1.87039e-06
2.3486e-07
1.86498e-06
1.40539e-07
1.86834e-06
2.52248e-07
1.86289e-06
2.12019e-07
1.86474e-06
2.79138e-07
2.51469e-07
1.86297e-06
1.95895e-06
-1.27283e-06
1.94642e-06
-7.21373e-07
1.95389e-06
2.91144e-07
1.98479e-06
1.14979e-06
2.00117e-06
5.77722e-07
2.00398e-06
-7.6225e-07
1.96046e-06
-1.81036e-06
1.95016e-06
-1.58264e-06
1.92346e-06
-1.29039e-06
1.91534e-06
-1.07018e-06
1.90566e-06
-6.51926e-07
1.8949e-06
-6.67001e-07
1.91613e-06
5.87266e-08
1.91558e-06
1.08425e-08
1.92453e-06
2.25907e-07
1.91946e-06
1.45614e-07
1.92359e-06
2.4812e-07
1.91943e-06
2.16173e-07
1.92225e-06
2.76317e-07
2.51771e-07
1.92195e-06
2.03365e-06
-1.25743e-06
2.02119e-06
-7.08912e-07
2.02762e-06
2.84709e-07
2.05834e-06
1.11908e-06
2.07474e-06
5.61323e-07
2.07775e-06
-7.65262e-07
2.03445e-06
-1.76706e-06
2.0245e-06
-1.57268e-06
1.99788e-06
-1.26377e-06
1.98763e-06
-1.05993e-06
1.97838e-06
-6.42673e-07
1.9616e-06
-6.50226e-07
1.9798e-06
4.05334e-08
1.97734e-06
1.32992e-08
1.98668e-06
2.16562e-07
1.98192e-06
1.50375e-07
1.9865e-06
2.43542e-07
1.98332e-06
2.19352e-07
1.98677e-06
2.72874e-07
2.50999e-07
1.98754e-06
2.11107e-06
-1.24165e-06
2.09885e-06
-6.96691e-07
2.10417e-06
2.79383e-07
2.13508e-06
1.08817e-06
2.15127e-06
5.45133e-07
2.15441e-06
-7.68401e-07
2.11126e-06
-1.72391e-06
2.10126e-06
-1.56268e-06
2.07552e-06
-1.23804e-06
2.06326e-06
-1.04767e-06
2.05509e-06
-6.3451e-07
2.03401e-06
-6.2914e-07
2.05021e-06
2.43341e-08
2.04654e-06
1.69704e-08
2.05597e-06
2.07129e-07
2.05153e-06
1.54813e-07
2.05633e-06
2.38745e-07
2.05389e-06
2.2179e-07
2.05769e-06
2.69071e-07
2.49478e-07
2.05921e-06
2.19132e-06
-1.22539e-06
2.17948e-06
-6.84848e-07
2.18367e-06
2.75186e-07
2.21511e-06
1.05673e-06
2.23099e-06
5.29254e-07
2.23413e-06
-7.71543e-07
2.19111e-06
-1.6809e-06
2.18061e-06
-1.55217e-06
2.15636e-06
-1.21379e-06
2.1421e-06
-1.0334e-06
2.13543e-06
-6.27838e-07
2.11149e-06
-6.05203e-07
2.1264e-06
9.42914e-09
2.12214e-06
2.12272e-08
2.13142e-06
1.97848e-07
2.12732e-06
1.58916e-07
2.13217e-06
2.33892e-07
2.13034e-06
2.23619e-07
2.13431e-06
2.65102e-07
2.47448e-07
2.13634e-06
2.27453e-06
-1.20853e-06
2.26317e-06
-6.73489e-07
2.26627e-06
2.72095e-07
2.2985e-06
1.0245e-06
2.31407e-06
5.13685e-07
2.31705e-06
-7.74521e-07
2.27421e-06
-1.63806e-06
2.26271e-06
-1.54067e-06
2.24037e-06
-1.19145e-06
2.22411e-06
-1.01715e-06
2.21908e-06
-6.22806e-07
2.1935e-06
-5.79624e-07
2.20751e-06
-4.57778e-09
2.20321e-06
2.55208e-08
2.21217e-06
1.88893e-07
2.20843e-06
1.62649e-07
2.21317e-06
2.29157e-07
2.21186e-06
2.24931e-07
2.21597e-06
2.60991e-07
2.45081e-07
2.21834e-06
2.36084e-06
-1.19099e-06
2.35005e-06
-6.62698e-07
2.3521e-06
2.70048e-07
2.38531e-06
9.91285e-07
2.40064e-06
4.98348e-07
2.40327e-06
-7.77143e-07
2.36074e-06
-1.59553e-06
2.34776e-06
-1.52769e-06
2.32752e-06
-1.17121e-06
2.30929e-06
-9.98918e-07
2.30578e-06
-6.19296e-07
2.27954e-06
-5.53382e-07
2.29281e-06
-1.78511e-08
2.28893e-06
2.94002e-08
2.29741e-06
1.80411e-07
2.29418e-06
1.65879e-07
2.29854e-06
2.24804e-07
2.29749e-06
2.25977e-07
2.30206e-06
2.56426e-07
2.42496e-07
2.30464e-06
2.45038e-06
-1.17269e-06
2.44021e-06
-6.5253e-07
2.4413e-06
2.68959e-07
2.47556e-06
9.57027e-07
2.4908e-06
4.83106e-07
2.49286e-06
-7.79201e-07
2.45082e-06
-1.55349e-06
2.43594e-06
-1.51281e-06
2.41777e-06
-1.15304e-06
2.3977e-06
-9.78846e-07
2.39537e-06
-6.16967e-07
2.36926e-06
-5.27272e-07
2.38175e-06
-3.03408e-08
2.37869e-06
3.24614e-08
2.38651e-06
1.72587e-07
2.38399e-06
1.68399e-07
2.38727e-06
2.21523e-07
2.38641e-06
2.26842e-07
2.39215e-06
2.50682e-07
2.39774e-07
2.39487e-06
2.54329e-06
-1.15358e-06
2.53378e-06
-6.43019e-07
2.53402e-06
2.68714e-07
2.56931e-06
9.21738e-07
2.58464e-06
4.67782e-07
2.58591e-06
-7.80477e-07
2.54459e-06
-1.51217e-06
2.52741e-06
-1.49563e-06
2.51118e-06
-1.13681e-06
2.48941e-06
-9.57083e-07
2.48787e-06
-6.1542e-07
2.46243e-06
-5.01832e-07
2.474e-06
-4.19187e-08
2.47196e-06
3.45101e-08
2.47912e-06
1.6542e-07
2.47737e-06
1.70156e-07
2.48465e-06
2.14237e-07
2.48687e-06
2.24623e-07
2.48589e-06
2.51661e-07
2.36931e-07
2.48873e-06
2.6397e-06
-1.1336e-06
2.63086e-06
-6.34176e-07
2.63041e-06
2.69165e-07
2.66665e-06
8.85498e-07
2.68224e-06
4.52186e-07
2.68251e-06
-7.80747e-07
2.64216e-06
-1.47181e-06
2.62231e-06
-1.47578e-06
2.60783e-06
-1.12233e-06
2.5846e-06
-9.33847e-07
2.58338e-06
-6.14202e-07
2.55904e-06
-4.77495e-07
2.56953e-06
-5.2412e-08
2.56848e-06
3.55668e-08
2.57555e-06
1.58347e-07
2.57246e-06
1.73245e-07
2.57523e-06
2.11464e-07
2.57587e-06
2.23987e-07
2.58298e-06
2.44553e-07
2.33773e-07
2.58614e-06
2.73975e-06
-1.1127e-06
2.73157e-06
-6.25994e-07
2.7306e-06
2.70134e-07
2.76767e-06
8.48425e-07
2.78371e-06
4.36146e-07
2.78278e-06
-7.7981e-07
2.74366e-06
-1.4327e-06
2.72088e-06
-1.453e-06
2.70781e-06
-1.10926e-06
2.68351e-06
-9.09545e-07
2.68199e-06
-6.12684e-07
2.65939e-06
-4.54892e-07
2.66821e-06
-6.12314e-08
2.66858e-06
3.51964e-08
2.67536e-06
1.51572e-07
2.6717e-06
1.76903e-07
2.6735e-06
2.09663e-07
2.67464e-06
2.22848e-07
2.68386e-06
2.3533e-07
2.30591e-07
2.68704e-06
2.84359e-06
-1.09083e-06
2.83605e-06
-6.18452e-07
2.83476e-06
2.71422e-07
2.87252e-06
8.1066e-07
2.88916e-06
4.19511e-07
2.8868e-06
-7.7745e-07
2.8492e-06
-1.3951e-06
2.82338e-06
-1.42718e-06
2.81128e-06
-1.09717e-06
2.78636e-06
-8.84616e-07
2.78393e-06
-6.10256e-07
2.76375e-06
-4.34718e-07
2.77023e-06
-6.7705e-08
2.77228e-06
3.31465e-08
2.77989e-06
1.43961e-07
2.78345e-06
1.73337e-07
2.79036e-06
2.02752e-07
2.79364e-06
2.19569e-07
2.78859e-06
2.40384e-07
2.27756e-07
2.79142e-06
2.95138e-06
-1.06796e-06
2.94445e-06
-6.11522e-07
2.94304e-06
2.72829e-07
2.98134e-06
7.72354e-07
2.99869e-06
4.02166e-07
2.99469e-06
-7.73451e-07
2.95883e-06
-1.35924e-06
2.92997e-06
-1.39832e-06
2.91845e-06
-1.08564e-06
2.89329e-06
-8.59457e-07
2.88952e-06
-6.06484e-07
2.87213e-06
-4.1733e-07
2.87631e-06
-7.18887e-08
2.87957e-06
2.98873e-08
2.88305e-06
1.40485e-07
2.88161e-06
1.74781e-07
2.88128e-06
2.0308e-07
2.88355e-06
2.17301e-07
2.8967e-06
2.27234e-07
2.24514e-07
2.89994e-06
3.06327e-06
-1.04407e-06
3.05693e-06
-6.05181e-07
3.05558e-06
2.74182e-07
3.09427e-06
7.33666e-07
3.11243e-06
3.84005e-07
3.10655e-06
-7.67575e-07
3.07258e-06
-1.32526e-06
3.0409e-06
-1.36664e-06
3.02951e-06
-1.07426e-06
3.00445e-06
-8.34398e-07
2.99919e-06
-6.01221e-07
2.98419e-06
-4.02334e-07
2.98705e-06
-7.4741e-08
2.99144e-06
2.54888e-08
2.99981e-06
1.32118e-07
3.00731e-06
1.67279e-07
3.01345e-06
1.96945e-07
3.01679e-06
2.13955e-07
3.00906e-06
2.34966e-07
2.21238e-07
3.01234e-06
3.17946e-06
-1.01917e-06
3.17368e-06
-5.994e-07
3.17254e-06
2.75324e-07
3.21141e-06
6.94794e-07
3.23053e-06
3.64886e-07
3.22252e-06
-7.59568e-07
3.19055e-06
-1.2933e-06
3.15622e-06
-1.33232e-06
3.14478e-06
-1.06281e-06
3.11986e-06
-8.0948e-07
3.11357e-06
-5.94933e-07
3.09911e-06
-3.87866e-07
3.10393e-06
-7.95685e-08
3.10592e-06
2.35019e-08
3.11511e-06
1.22933e-07
3.10722e-06
1.75162e-07
3.10757e-06
1.96598e-07
3.11134e-06
2.10185e-07
3.12445e-06
2.21858e-07
2.16247e-07
3.12944e-06
3.30011e-06
-9.93265e-07
3.29489e-06
-5.94178e-07
3.29403e-06
2.76184e-07
3.33292e-06
6.55899e-07
3.35311e-06
3.44692e-07
3.34291e-06
-7.49366e-07
3.3127e-06
-1.26308e-06
3.27643e-06
-1.29605e-06
3.26418e-06
-1.05057e-06
3.24034e-06
-7.85637e-07
3.2319e-06
-5.86496e-07
3.21953e-06
-3.75494e-07
3.22384e-06
-8.38792e-08
3.2201e-06
2.72462e-08
3.22452e-06
1.18506e-07
3.22552e-06
1.74164e-07
3.2268e-06
1.95317e-07
3.23039e-06
2.06597e-07
3.24511e-06
2.07134e-07
2.10825e-07
3.25054e-06
3.42541e-06
-9.66396e-07
3.42074e-06
-5.895e-07
3.42022e-06
2.76699e-07
3.45891e-06
6.17207e-07
3.48035e-06
3.23251e-07
3.46804e-06
-7.37047e-07
3.43912e-06
-1.23416e-06
3.40178e-06
-1.25871e-06
3.38777e-06
-1.03656e-06
3.36654e-06
-7.6441e-07
3.35388e-06
-5.73839e-07
3.34543e-06
-3.67037e-07
3.34442e-06
-8.28743e-08
3.3556e-06
1.60712e-08
3.36432e-06
1.09781e-07
3.37404e-06
1.64444e-07
3.38085e-06
1.88506e-07
3.38344e-06
2.04008e-07
3.37157e-06
2.19007e-07
2.06729e-07
3.37567e-06
3.55556e-06
-9.38611e-07
3.55142e-06
-5.85354e-07
3.55133e-06
2.7678e-07
3.58946e-06
5.79076e-07
3.61253e-06
3.00181e-07
3.59785e-06
-7.22367e-07
3.57037e-06
-1.20667e-06
3.53175e-06
-1.2201e-06
3.51686e-06
-1.02167e-06
3.49576e-06
-7.43307e-07
3.484e-06
-5.62081e-07
3.47229e-06
-3.55326e-07
3.47504e-06
-8.56288e-08
3.47221e-06
1.8911e-08
3.4765e-06
1.05489e-07
3.47667e-06
1.64271e-07
3.47927e-06
1.85907e-07
3.48417e-06
1.99109e-07
3.49975e-06
2.03423e-07
2.00038e-07
3.50644e-06
3.69073e-06
-9.09954e-07
3.68713e-06
-5.81753e-07
3.68751e-06
2.76396e-07
3.7248e-06
5.41792e-07
3.74959e-06
2.75385e-07
3.73284e-06
-7.05619e-07
3.70615e-06
-1.17998e-06
3.66731e-06
-1.18126e-06
3.65053e-06
-1.00488e-06
3.63106e-06
-7.23845e-07
3.61787e-06
-5.48883e-07
3.60769e-06
-3.4515e-07
3.6132e-06
-9.1139e-08
3.60551e-06
2.66034e-08
3.60941e-06
1.01589e-07
3.61001e-06
1.6367e-07
3.61246e-06
1.83458e-07
3.61728e-06
1.94285e-07
3.63451e-06
1.86196e-07
1.93125e-07
3.64142e-06
3.83112e-06
-8.80485e-07
3.82804e-06
-5.78675e-07
3.82899e-06
2.75452e-07
3.86507e-06
5.05712e-07
3.89153e-06
2.48924e-07
3.87331e-06
-6.87403e-07
3.84638e-06
-1.15305e-06
3.80906e-06
-1.14394e-06
3.78847e-06
-9.84288e-07
3.7734e-06
-7.08778e-07
3.7527e-06
-5.28179e-07
3.74726e-06
-3.39714e-07
3.74373e-06
-8.76054e-08
3.7623e-06
8.0299e-09
3.77192e-06
9.19681e-08
3.78368e-06
1.51911e-07
3.79127e-06
1.75873e-07
3.79296e-06
1.92595e-07
3.7768e-06
2.02349e-07
1.89208e-07
3.78072e-06
3.97695e-06
-8.50279e-07
3.97432e-06
-5.76048e-07
3.9761e-06
2.73677e-07
4.0102e-06
4.7161e-07
4.03891e-06
2.2021e-07
4.01878e-06
-6.6727e-07
3.99262e-06
-1.12689e-06
3.95438e-06
-1.1057e-06
3.93469e-06
-9.64605e-07
3.91601e-06
-6.90093e-07
3.90388e-06
-5.16048e-07
3.89643e-06
-3.32265e-07
3.90112e-06
-9.23014e-08
3.88819e-06
2.09668e-08
3.89042e-06
8.97337e-08
3.89198e-06
1.50354e-07
3.89588e-06
1.71977e-07
3.9017e-06
1.86768e-07
3.91892e-06
1.8513e-07
1.81332e-07
3.9268e-06
4.12839e-06
-8.19386e-07
4.1262e-06
-5.73856e-07
4.12895e-06
2.70926e-07
4.16069e-06
4.39873e-07
4.19126e-06
1.89637e-07
4.17014e-06
-6.46151e-07
4.1437e-06
-1.10044e-06
4.10605e-06
-1.06806e-06
4.08559e-06
-9.44141e-07
4.06632e-06
-6.70828e-07
4.05501e-06
-5.04738e-07
4.03482e-06
-3.12073e-07
4.03626e-06
-9.37412e-08
4.03556e-06
2.1669e-08
4.04009e-06
8.52032e-08
4.04159e-06
1.4886e-07
4.04547e-06
1.68088e-07
4.05125e-06
1.80987e-07
4.06987e-06
1.66516e-07
1.73638e-07
4.07756e-06
4.28569e-06
-7.87891e-07
4.28386e-06
-5.72024e-07
4.28776e-06
2.67023e-07
4.31707e-06
4.10563e-07
4.34858e-06
1.58134e-07
4.32794e-06
-6.25511e-07
4.29884e-06
-1.07134e-06
4.26556e-06
-1.03478e-06
4.23972e-06
-9.18296e-07
4.22607e-06
-6.57182e-07
4.20286e-06
-4.81527e-07
4.20908e-06
-3.18295e-07
4.21231e-06
-9.69709e-08
4.22068e-06
1.32976e-08
4.22851e-06
7.73746e-08
4.24253e-06
1.3484e-07
4.25067e-06
1.59951e-07
4.25117e-06
1.80484e-07
4.23042e-06
1.87264e-07
1.71591e-07
4.23247e-06
4.44909e-06
-7.55898e-07
4.44745e-06
-5.70385e-07
4.45304e-06
2.61432e-07
4.47911e-06
3.84496e-07
4.51222e-06
1.25026e-07
4.49072e-06
-6.04015e-07
4.46283e-06
-1.04345e-06
4.42647e-06
-9.98416e-07
4.40542e-06
-8.97247e-07
4.38523e-06
-6.36994e-07
4.3743e-06
-4.70599e-07
4.35391e-06
-2.97902e-07
4.35432e-06
-9.73889e-08
4.35234e-06
1.52843e-08
4.35682e-06
7.28939e-08
4.35832e-06
1.33341e-07
4.36341e-06
1.54859e-07
4.37055e-06
1.73346e-07
4.38848e-06
1.69335e-07
1.63919e-07
4.39615e-06
4.61878e-06
-7.2347e-07
4.61731e-06
-5.68912e-07
4.62463e-06
2.54112e-07
4.64799e-06
3.61129e-07
4.6811e-06
9.19177e-08
4.66056e-06
-5.83474e-07
4.63103e-06
-1.01392e-06
4.59588e-06
-9.63263e-07
4.57454e-06
-8.75912e-07
4.55163e-06
-6.14088e-07
4.53868e-06
-4.57649e-07
4.52086e-06
-2.80073e-07
4.52287e-06
-9.94059e-08
4.52063e-06
1.75301e-08
4.52509e-06
6.84362e-08
4.52648e-06
1.31951e-07
4.53132e-06
1.50018e-07
4.53847e-06
1.66193e-07
4.55764e-06
1.50165e-07
1.57031e-07
4.56453e-06
4.79502e-06
-6.907e-07
4.79361e-06
-5.67502e-07
4.8027e-06
2.45022e-07
4.82393e-06
3.39901e-07
4.85514e-06
6.07047e-08
4.83886e-06
-5.67191e-07
4.80269e-06
-9.77755e-07
4.77609e-06
-9.36661e-07
4.74368e-06
-8.43501e-07
4.736e-06
-6.0641e-07
4.71208e-06
-4.33732e-07
4.72018e-06
-2.8817e-07
4.72528e-06
-1.04511e-07
4.73536e-06
7.45774e-09
4.74225e-06
6.15465e-08
4.75777e-06
1.1643e-07
4.76527e-06
1.42519e-07
4.76475e-06
1.66713e-07
4.73914e-06
1.75775e-07
1.59018e-07
4.73715e-06
4.9781e-06
-6.57734e-07
4.97652e-06
-5.65918e-07
4.9879e-06
2.33641e-07
5.00605e-06
3.21753e-07
5.03731e-06
2.94463e-08
5.02027e-06
-5.50148e-07
4.98686e-06
-9.44351e-07
4.95563e-06
-9.05432e-07
4.92691e-06
-8.1478e-07
4.91053e-06
-5.90031e-07
4.89091e-06
-4.14115e-07
4.8772e-06
-2.74458e-07
4.87763e-06
-1.04939e-07
4.87923e-06
5.85893e-09
4.8809e-06
5.98757e-08
4.88506e-06
1.12275e-07
4.88711e-06
1.40468e-07
4.89581e-06
1.58011e-07
4.91474e-06
1.56838e-07
1.53129e-07
4.92063e-06
5.1682e-06
-6.24623e-07
5.16645e-06
-5.64169e-07
5.17962e-06
2.2047e-07
5.1959e-06
3.05472e-07
5.22546e-06
-1.06423e-10
5.20908e-06
-5.33769e-07
5.17801e-06
-9.13287e-07
5.14222e-06
-8.69643e-07
5.11895e-06
-7.91511e-07
5.0963e-06
-5.67377e-07
5.08062e-06
-3.98434e-07
5.06548e-06
-2.5932e-07
5.06736e-06
-1.0682e-07
5.06681e-06
6.40998e-09
5.07071e-06
5.59786e-08
5.07389e-06
1.09094e-07
5.08265e-06
1.31708e-07
5.09151e-06
1.49155e-07
5.10165e-06
1.46698e-07
1.44625e-07
5.11015e-06
5.36564e-06
-5.91487e-07
5.36359e-06
-5.62117e-07
5.37816e-06
2.05896e-07
5.39365e-06
2.89986e-07
5.41928e-06
-2.57363e-08
5.40664e-06
-5.21132e-07
5.37312e-06
-8.79769e-07
5.33936e-06
-8.35875e-07
5.31086e-06
-7.63015e-07
5.29234e-06
-5.4886e-07
5.27557e-06
-3.81665e-07
5.26263e-06
-2.46374e-07
5.2626e-06
-1.06796e-07
5.26351e-06
5.5038e-09
5.26701e-06
5.24825e-08
5.27222e-06
1.03884e-07
5.28111e-06
1.22812e-07
5.29097e-06
1.39295e-07
5.29721e-06
1.40455e-07
1.35536e-07
5.3063e-06
5.5707e-06
-5.58451e-07
5.56817e-06
-5.5959e-07
5.58408e-06
1.89986e-07
5.59906e-06
2.75009e-07
5.6211e-06
-4.77731e-08
5.61036e-06
-5.10392e-07
5.5765e-06
-8.45907e-07
5.5435e-06
-8.02879e-07
5.51318e-06
-7.32691e-07
5.49546e-06
-5.3114e-07
5.47907e-06
-3.65282e-07
5.46693e-06
-2.34226e-07
5.46587e-06
-1.05741e-07
5.46811e-06
3.2697e-09
5.47125e-06
4.93423e-08
5.47725e-06
9.78795e-08
5.48409e-06
1.15971e-07
5.49119e-06
1.32198e-07
5.50092e-06
1.30722e-07
1.26904e-07
5.50955e-06
5.78365e-06
-5.25617e-07
5.78057e-06
-5.56518e-07
5.79745e-06
1.73108e-07
5.81308e-06
2.59383e-07
5.83076e-06
-6.54534e-08
5.82151e-06
-5.01139e-07
5.78745e-06
-8.11848e-07
5.75531e-06
-7.70738e-07
5.72382e-06
-7.01204e-07
5.70641e-06
-5.1373e-07
5.69051e-06
-3.49379e-07
5.67911e-06
-2.22832e-07
5.67752e-06
-1.04146e-07
5.68026e-06
5.22534e-10
5.68321e-06
4.63969e-08
5.68997e-06
9.11168e-08
5.6973e-06
1.08643e-07
5.70701e-06
1.22485e-07
5.71273e-06
1.25007e-07
1.1936e-07
5.72027e-06
6.00479e-06
-4.9311e-07
6.00102e-06
-5.52743e-07
6.01877e-06
1.55354e-07
6.03543e-06
2.42723e-07
6.04911e-06
-7.91298e-08
6.03992e-06
-4.91946e-07
6.00642e-06
-7.78356e-07
5.97496e-06
-7.39274e-07
5.94317e-06
-6.69418e-07
5.92545e-06
-4.96006e-07
5.91032e-06
-3.34252e-07
5.89948e-06
-2.11986e-07
5.89756e-06
-1.02226e-07
5.90037e-06
-2.29204e-09
5.90387e-06
4.28949e-08
5.91027e-06
8.47195e-08
5.91501e-06
1.03909e-07
5.9213e-06
1.1619e-07
5.93208e-06
1.14232e-07
1.1179e-07
5.93965e-06
6.23445e-06
-4.61058e-07
6.22982e-06
-5.4811e-07
6.24837e-06
1.36798e-07
6.26591e-06
2.25186e-07
6.27631e-06
-8.95355e-08
6.26631e-06
-4.8194e-07
6.23373e-06
-7.4578e-07
6.20292e-06
-7.0846e-07
6.1713e-06
-6.37798e-07
6.15305e-06
-4.77758e-07
6.13887e-06
-3.20071e-07
6.12821e-06
-2.01328e-07
6.12612e-06
-1.00131e-07
6.12923e-06
-5.40276e-09
6.13262e-06
3.95001e-08
6.1387e-06
7.86446e-08
6.14591e-06
9.66945e-08
6.1557e-06
1.06398e-07
6.16024e-06
1.0969e-07
1.04466e-07
6.16757e-06
6.47294e-06
-4.29598e-07
6.46723e-06
-5.42398e-07
6.48662e-06
1.17414e-07
6.50466e-06
2.07138e-07
6.51271e-06
-9.75851e-08
6.5013e-06
-4.7053e-07
6.46978e-06
-7.14255e-07
6.43935e-06
-6.78033e-07
6.40846e-06
-6.06904e-07
6.38958e-06
-4.58879e-07
6.37618e-06
-3.06673e-07
6.36591e-06
-1.91061e-07
6.36375e-06
-9.79657e-08
6.36664e-06
-8.29244e-09
6.37013e-06
3.6005e-08
6.37625e-06
7.25281e-08
6.38137e-06
9.15771e-08
6.38687e-06
1.00894e-07
6.39655e-06
1.00005e-07
9.70099e-08
6.40401e-06
6.72061e-06
-3.98866e-07
6.7136e-06
-5.35388e-07
6.73386e-06
9.71511e-08
6.7521e-06
1.88898e-07
6.75848e-06
-1.03968e-07
6.74577e-06
-4.57819e-07
6.71483e-06
-6.83307e-07
6.68481e-06
-6.48019e-07
6.65483e-06
-5.76919e-07
6.63532e-06
-4.39376e-07
6.62284e-06
-2.94189e-07
6.61281e-06
-1.81029e-07
6.61027e-06
-9.54317e-08
6.61332e-06
-1.13408e-08
6.61686e-06
3.24667e-08
6.62283e-06
6.65617e-08
6.62975e-06
8.46524e-08
6.63821e-06
9.24406e-08
6.64255e-06
9.56576e-08
9.00594e-08
6.6495e-06
6.97779e-06
-3.69011e-07
6.9692e-06
-5.26796e-07
6.99046e-06
7.58957e-08
7.0086e-06
1.70758e-07
7.01403e-06
-1.09404e-07
7.00022e-06
-4.44009e-07
6.96939e-06
-6.52477e-07
6.93957e-06
-6.18198e-07
6.91066e-06
-5.48007e-07
6.89078e-06
-4.195e-07
6.87875e-06
-2.82161e-07
6.86943e-06
-1.71706e-07
6.86644e-06
-9.24374e-08
6.86948e-06
-1.43861e-08
6.87298e-06
2.89646e-08
6.87894e-06
6.06071e-08
6.88399e-06
7.95972e-08
6.88912e-06
8.7317e-08
6.89774e-06
8.70384e-08
8.34121e-08
6.90438e-06
7.24485e-06
-3.4017e-07
7.23436e-06
-5.16308e-07
7.25676e-06
5.34924e-08
7.27465e-06
1.52871e-07
7.28143e-06
-1.16183e-07
7.265e-06
-4.2758e-07
7.2338e-06
-6.21277e-07
7.20418e-06
-5.88573e-07
7.17626e-06
-5.20085e-07
7.15617e-06
-3.99417e-07
7.14468e-06
-2.70664e-07
7.13602e-06
-1.63048e-07
7.13241e-06
-8.88341e-08
7.1355e-06
-1.74752e-08
7.13897e-06
2.54977e-08
7.14471e-06
5.48673e-08
7.15119e-06
7.31143e-08
7.15901e-06
7.94954e-08
7.16304e-06
8.30163e-08
7.74123e-08
7.16904e-06
7.52214e-06
-3.12479e-07
7.50958e-06
-5.03748e-07
7.53296e-06
3.01125e-08
7.55091e-06
1.34915e-07
7.55955e-06
-1.24823e-07
7.53867e-06
-4.06695e-07
7.5086e-06
-5.91211e-07
7.47901e-06
-5.58982e-07
7.45192e-06
-4.92994e-07
7.43204e-06
-3.79535e-07
7.42059e-06
-2.59218e-07
7.41295e-06
-1.55401e-07
7.40887e-06
-8.47596e-08
7.41165e-06
-2.02546e-08
7.41516e-06
2.19908e-08
7.4208e-06
4.92225e-08
7.42597e-06
6.79505e-08
7.43061e-06
7.4855e-08
7.43831e-06
7.5315e-08
7.18293e-08
7.44389e-06
7.81001e-06
-2.86033e-07
7.79564e-06
-4.89378e-07
7.81921e-06
6.53906e-09
7.83781e-06
1.16319e-07
7.83641e-06
-1.23428e-07
7.82119e-06
-3.91476e-07
7.7944e-06
-5.64416e-07
7.76446e-06
-5.29042e-07
7.73805e-06
-4.6658e-07
7.71869e-06
-3.60179e-07
7.7072e-06
-2.47729e-07
7.70045e-06
-1.4865e-07
7.69613e-06
-8.04391e-08
7.69841e-06
-2.25308e-08
7.70195e-06
1.84463e-08
7.70732e-06
4.38489e-08
7.71343e-06
6.18493e-08
7.72055e-06
6.77275e-08
7.72436e-06
7.15083e-08
6.6865e-08
7.72932e-06
8.1089e-06
-2.60972e-07
8.09249e-06
-4.72967e-07
8.116e-06
-1.69741e-08
8.13693e-06
9.53957e-08
8.14462e-06
-1.31121e-07
8.13508e-06
-3.81936e-07
8.09441e-06
-5.23745e-07
8.06092e-06
-4.95552e-07
8.03512e-06
-4.4078e-07
8.01646e-06
-3.41526e-07
8.0047e-06
-2.35965e-07
7.99876e-06
-1.42712e-07
7.99459e-06
-7.62636e-08
7.99609e-06
-2.40344e-08
7.99968e-06
1.4851e-08
8.00475e-06
3.87788e-08
8.01009e-06
5.6513e-08
8.01428e-06
6.35395e-08
8.0212e-06
6.45903e-08
6.22156e-08
8.02585e-06
8.41921e-06
-2.3742e-07
8.39974e-06
-4.53495e-07
8.42496e-06
-4.2199e-08
8.44461e-06
7.57438e-08
8.44598e-06
-1.32482e-07
8.42488e-06
-3.60842e-07
8.39805e-06
-4.96911e-07
8.369e-06
-4.66501e-07
8.34363e-06
-4.15417e-07
8.32578e-06
-3.23676e-07
8.31387e-06
-2.24053e-07
8.30843e-06
-1.37266e-07
8.3047e-06
-7.25382e-08
8.30541e-06
-2.47415e-08
8.30889e-06
1.13719e-08
8.31362e-06
3.40518e-08
8.31943e-06
5.06958e-08
8.32545e-06
5.75209e-08
8.32954e-06
6.04991e-08