/*--------------------------------*- C++ -*----------------------------------*\
| =========                 |                                                 |
| \\      /  F ield         | OpenFOAM: The Open Source CFD Toolbox           |
|  \\    /   O peration     | Version:  v2012                                 |
|   \\  /    A nd           | Website:  www.openfoam.com                      |
|    \\/     M anipulation  |                                                 |
\*---------------------------------------------------------------------------*/
FoamFile
{
    version     2.0;
    format      ascii;
    class       volVectorField;
    location    "9.6";
    object      U;
}
// * * * * * * * * * * * * * * * * * * * * * * * * * * * * * * * * * * * * * //

dimensions      [0 1 -1 0 0 0 0];


internalField   nonuniform List<vector> 
7000
(
(0.764321 -0.0122942 0)
(1.18399 0.00160101 0)
(1.01269 0.00687458 0)
(1.15296 0.0157958 0)
(0.989276 -7.19442e-06 0)
(1.0538 -0.0203712 0)
(0.778755 -0.0360753 0)
(1.2123 -0.0300386 0)
(0.872105 -0.0285201 0)
(1.16006 -0.00832435 0)
(1.0086 -0.00251836 0)
(1.20019 -0.000171544 0)
(1.01169 0.0221814 0)
(1.21106 0.00574841 0)
(0.972723 0.017608 0)
(1.23662 0.00635544 0)
(0.961057 0.00917072 0)
(1.23836 0.0044711 0)
(0.960875 0.0048195 0)
(1.22247 0.00413637 0)
(0.785954 -0.0121946 0)
(1.17676 0.000624488 0)
(1.02387 0.00684706 0)
(1.14549 0.0159226 0)
(1.01637 0.000610657 0)
(1.024 -0.0183724 0)
(0.835576 -0.0381326 0)
(1.1545 -0.0307274 0)
(0.896395 -0.0282568 0)
(1.13524 -0.00996773 0)
(1.02699 -0.00353768 0)
(1.17924 1.66226e-05 0)
(1.03763 0.0217913 0)
(1.17398 0.00673779 0)
(1.0155 0.0168821 0)
(1.18304 0.00684733 0)
(1.02518 0.00910835 0)
(1.16827 0.00431354 0)
(1.04639 0.00598408 0)
(1.13253 0.00361054 0)
(0.816215 -0.012149 0)
(1.15815 -0.000394396 0)
(1.0462 0.00691667 0)
(1.13579 0.0160984 0)
(1.04182 0.00146085 0)
(1.00616 -0.0172166 0)
(0.884134 -0.0389851 0)
(1.09344 -0.0309675 0)
(0.933595 -0.0283021 0)
(1.09375 -0.011424 0)
(1.05521 -0.00430332 0)
(1.14232 -1.1698e-06 0)
(1.07966 0.0217073 0)
(1.12888 0.00726279 0)
(1.07016 0.0164296 0)
(1.13583 0.0066571 0)
(1.08408 0.00932174 0)
(1.12736 0.00371213 0)
(1.0967 0.00706458 0)
(1.10579 0.00353458 0)
(0.850049 -0.0121293 0)
(1.12883 -0.00135373 0)
(1.0729 0.00696534 0)
(1.12842 0.0162253 0)
(1.06006 0.00233006 0)
(0.995785 -0.0161173 0)
(0.921411 -0.039558 0)
(1.03867 -0.0314209 0)
(0.966088 -0.0284406 0)
(1.05181 -0.0128026 0)
(1.07635 -0.00498272 0)
(1.1084 -0.000454437 0)
(1.11194 0.0219243 0)
(1.10306 0.00729902 0)
(1.10576 0.016309 0)
(1.12049 0.00621137 0)
(1.11457 0.00959502 0)
(1.12296 0.0032453 0)
(1.11693 0.00789838 0)
(1.11046 0.00392509 0)
(0.88346 -0.0120938 0)
(1.09457 -0.00233178 0)
(1.0953 0.0068716 0)
(1.12365 0.016366 0)
(1.07065 0.0032623 0)
(0.993036 -0.0151583 0)
(0.946595 -0.0396676 0)
(1.00067 -0.0318968 0)
(0.984193 -0.028603 0)
(1.02298 -0.0141467 0)
(1.0831 -0.00579576 0)
(1.08975 -0.00114532 0)
(1.12577 0.0220496 0)
(1.09912 0.00723995 0)
(1.12129 0.0160445 0)
(1.12631 0.00579769 0)
(1.12762 0.00972277 0)
(1.13256 0.00298782 0)
(1.12519 0.00866226 0)
(1.12071 0.00450051 0)
(0.913407 -0.0120284 0)
(1.06223 -0.00332125 0)
(1.10746 0.00661565 0)
(1.11863 0.0165738 0)
(1.07517 0.00421435 0)
(0.994396 -0.0142816 0)
(0.963293 -0.0395227 0)
(0.980473 -0.032347 0)
(0.989189 -0.0288276 0)
(1.00888 -0.0154547 0)
(1.07956 -0.00679337 0)
(1.08465 -0.00194949 0)
(1.12833 0.0219092 0)
(1.10737 0.00714572 0)
(1.12813 0.0155028 0)
(1.13879 0.00540623 0)
(1.1354 0.00977271 0)
(1.14302 0.00287902 0)
(1.1304 0.00945567 0)
(1.12809 0.00518123 0)
(0.938358 -0.0119371 0)
(1.03616 -0.00426511 0)
(1.10756 0.0062333 0)
(1.11018 0.0168174 0)
(1.07557 0.00513847 0)
(0.996639 -0.0134826 0)
(0.976094 -0.0392157 0)
(0.972447 -0.0326974 0)
(0.987316 -0.0291025 0)
(1.00331 -0.016739 0)
(1.07239 -0.00794951 0)
(1.08558 -0.0028987 0)
(1.12872 0.0214921 0)
(1.11936 0.00693802 0)
(1.13455 0.0148426 0)
(1.15068 0.00500066 0)
(1.14283 0.00987421 0)
(1.15054 0.00294332 0)
(1.13488 0.0103273 0)
(1.13173 0.00603192 0)
(0.958102 -0.0118298 0)
(1.01718 -0.00510741 0)
(1.09715 0.00577925 0)
(1.09679 0.0170363 0)
(1.07342 0.00599706 0)
(0.99803 -0.0127737 0)
(0.987755 -0.0388229 0)
(0.969977 -0.0329178 0)
(0.983617 -0.0293874 0)
(1.00016 -0.0180245 0)
(1.06502 -0.00924719 0)
(1.08665 -0.00405051 0)
(1.1308 0.0208132 0)
(1.13055 0.00659932 0)
(1.1424 0.0141949 0)
(1.15942 0.00459325 0)
(1.14969 0.0101121 0)
(1.15448 0.00321376 0)
(1.13791 0.0113113 0)
(1.13224 0.00709201 0)
(0.973161 -0.0117145 0)
(1.00397 -0.00581521 0)
(1.07961 0.00531206 0)
(1.07906 0.0171768 0)
(1.06973 0.00675695 0)
(0.998373 -0.0121762 0)
(0.998993 -0.0383721 0)
(0.969036 -0.0329893 0)
(0.980295 -0.0296488 0)
(0.996694 -0.0193171 0)
(1.05772 -0.010655 0)
(1.08493 -0.00544619 0)
(1.13371 0.0198838 0)
(1.13856 0.00614589 0)
(1.14975 0.0135984 0)
(1.16387 0.00425094 0)
(1.15393 0.0104971 0)
(1.15455 0.00370963 0)
(1.13811 0.0124086 0)
(1.12982 0.00835437 0)
(0.984268 -0.0115962 0)
(0.994717 -0.00636488 0)
(1.05885 0.00488009 0)
(1.05914 0.017202 0)
(1.06505 0.00739176 0)
(0.998321 -0.0117057 0)
(1.00922 -0.0378718 0)
(0.968241 -0.032909 0)
(0.977875 -0.0298685 0)
(0.992506 -0.020595 0)
(1.04964 -0.0121196 0)
(1.07919 -0.00709438 0)
(1.13479 0.018707 0)
(1.14178 0.00559799 0)
(1.15379 0.0130747 0)
(1.1631 0.00404165 0)
(1.15372 0.0110045 0)
(1.15029 0.00443368 0)
(1.13445 0.0135887 0)
(1.1243 0.00977896 0)
(0.992116 -0.0114763 0)
(0.988185 -0.00674916 0)
(1.0384 0.00451116 0)
(1.03975 0.0170961 0)
(1.05972 0.0078854 0)
(0.998679 -0.0113646 0)
(1.01748 -0.0373215 0)
(0.967592 -0.0326918 0)
(0.976468 -0.0300351 0)
(0.988014 -0.0218154 0)
(1.04025 -0.0135835 0)
(1.06902 -0.00897184 0)
(1.1315 0.0172862 0)
(1.13905 0.00497955 0)
(1.15232 0.0126416 0)
(1.1564 0.00399899 0)
(1.14797 0.0115971 0)
(1.14135 0.00536231 0)
(1.1265 0.0148021 0)
(1.11548 0.0113075 0)
(0.997326 -0.0113528 0)
(0.983795 -0.0069886 0)
(1.0207 0.00421188 0)
(1.02325 0.0168664 0)
(1.05397 0.00823555 0)
(0.999991 -0.0111414 0)
(1.02306 -0.0367204 0)
(0.967509 -0.0323697 0)
(0.97613 -0.0301409 0)
(0.983675 -0.022925 0)
(1.02965 -0.014961 0)
(1.0548 -0.0110085 0)
(1.12234 0.0156478 0)
(1.1299 0.0043133 0)
(1.14418 0.0122992 0)
(1.14357 0.00412326 0)
(1.13646 0.0122309 0)
(1.12774 0.00644204 0)
(1.11438 0.0159857 0)
(1.10338 0.0128691 0)
(1.0005 -0.0112254 0)
(0.9813 -0.00711205 0)
(1.007 0.00397488 0)
(1.01096 0.0165386 0)
(1.04795 0.0084521 0)
(1.00238 -0.011014 0)
(1.02572 -0.0360714 0)
(0.968393 -0.0319835 0)
(0.976723 -0.030178 0)
(0.97981 -0.0238747 0)
(1.01841 -0.0161475 0)
(1.03772 -0.013086 0)
(1.10709 0.0138535 0)
(1.11479 0.00361771 0)
(1.12935 0.0120332 0)
(1.12518 0.00438511 0)
(1.11976 0.012852 0)
(1.11 0.00760068 0)
(1.09869 0.0170752 0)
(1.08836 0.0143881 0)
(1.00222 -0.0110952 0)
(0.980428 -0.00714932 0)
(0.9974 0.00378521 0)
(1.003 0.0161465 0)
(1.04183 0.00855237 0)
(1.00558 -0.0109562 0)
(1.02571 -0.0353823 0)
(0.970416 -0.0315746 0)
(0.977876 -0.0301311 0)
(0.976596 -0.0246339 0)
(1.00728 -0.0170805 0)
(1.0196 -0.015079 0)
(1.08682 0.0119762 0)
(1.095 0.00292267 0)
(1.10888 0.0118225 0)
(1.1026 0.00473812 0)
(1.09906 0.0134024 0)
(1.0892 0.00876102 0)
(1.08039 0.0180201 0)
(1.0711 0.0157956 0)
(1.00303 -0.0109647 0)
(0.980749 -0.00712636 0)
(0.991278 0.00362809 0)
(0.998587 0.0157233 0)
(1.03582 0.00855806 0)
(1.0091 -0.0109446 0)
(1.02367 -0.034663 0)
(0.973427 -0.0311798 0)
(0.979126 -0.0299866 0)
(0.974085 -0.0251928 0)
(0.997037 -0.0177319 0)
(1.00235 -0.0168653 0)
(1.0635 0.0100951 0)
(1.07238 0.00226687 0)
(1.08469 0.0116446 0)
(1.07778 0.00513536 0)
(1.07598 0.0138381 0)
(1.06683 0.00985058 0)
(1.06066 0.0187854 0)
(1.05263 0.0170372 0)
(1.00339 -0.0108357 0)
(0.981742 -0.00706539 0)
(0.987687 0.00349376 0)
(0.996548 0.0152958 0)
(1.03018 0.00849087 0)
(1.01241 -0.0109593 0)
(1.02044 -0.0339263 0)
(0.976999 -0.0308216 0)
(0.980126 -0.0297445 0)
(0.972245 -0.0255559 0)
(0.988282 -0.0181112 0)
(0.987535 -0.0183462 0)
(1.03953 0.00830277 0)
(1.04901 0.00167881 0)
(1.05911 0.0114739 0)
(1.05284 0.00553559 0)
(1.05236 0.0141364 0)
(1.04449 0.0108095 0)
(1.04082 0.0193494 0)
(1.03412 0.018073 0)
(1.00358 -0.0107093 0)
(0.982943 -0.00698265 0)
(0.98573 0.00337577 0)
(0.99579 0.0148809 0)
(1.02515 0.0083689 0)
(1.01507 -0.0109863 0)
(1.01682 -0.0331845 0)
(0.98059 -0.0305074 0)
(0.980747 -0.0294123 0)
(0.97099 -0.0257508 0)
(0.981379 -0.0182597 0)
(0.97601 -0.0194645 0)
(1.01711 0.00667846 0)
(1.02681 0.00118693 0)
(1.03448 0.0112795 0)
(1.0297 0.00590895 0)
(1.02992 0.014298 0)
(1.02374 0.0116085 0)
(1.0221 0.0197085 0)
(1.01678 0.0188817 0)
(1.00374 -0.010586 0)
(0.984054 -0.00688574 0)
(0.984733 0.00326862 0)
(0.995542 0.0144836 0)
(1.0209 0.0082072 0)
(1.01688 -0.011019 0)
(1.01341 -0.032444 0)
(0.983735 -0.0302369 0)
(0.981058 -0.0289972 0)
(0.970216 -0.025821 0)
(0.976372 -0.0182256 0)
(0.967912 -0.0201985 0)
(0.99787 0.00527451 0)
(1.00734 0.000814382 0)
(1.01269 0.0110397 0)
(1.00976 0.0062413 0)
(1.01014 0.0143318 0)
(1.00575 0.0122508 0)
(1.00558 0.0198837 0)
(1.00162 0.0194644 0)
(1.00393 -0.0104649 0)
(0.984957 -0.00677991 0)
(0.984276 0.00316913 0)
(0.99539 0.0141033 0)
(1.01746 0.00801876 0)
(1.01779 -0.0110545 0)
(1.01054 -0.031709 0)
(0.986162 -0.0300008 0)
(0.981226 -0.0285158 0)
(0.969828 -0.0257965 0)
(0.973045 -0.0180656 0)
(0.962822 -0.0205681 0)
(0.982672 0.00409712 0)
(0.991595 0.000568619 0)
(0.994926 0.0107497 0)
(0.993796 0.00653751 0)
(0.993966 0.0142505 0)
(0.991254 0.0127555 0)
(0.992015 0.0199154 0)
(0.989304 0.0198423 0)
(1.00411 -0.0103448 0)
(0.985658 -0.00666948 0)
(0.984125 0.00307821 0)
(0.995173 0.013737 0)
(1.01477 0.00781418 0)
(1.01792 -0.0110919 0)
(1.00829 -0.0309817 0)
(0.987803 -0.0297905 0)
(0.981404 -0.0279853 0)
(0.969768 -0.0256992 0)
(0.971049 -0.0178362 0)
(0.960056 -0.0206139 0)
(0.971638 0.00312535 0)
(0.979877 0.000440152 0)
(0.981595 0.0104081 0)
(0.981941 0.00681807 0)
(0.981789 0.0140864 0)
(0.980447 0.013134 0)
(0.981732 0.0198367 0)
(0.980067 0.0200539 0)
(1.00425 -0.0102244 0)
(0.986212 -0.0065572 0)
(0.984155 0.00299732 0)
(0.994868 0.0133799 0)
(1.01271 0.00760092 0)
(1.01747 -0.0111322 0)
(1.0066 -0.0302606 0)
(0.988745 -0.0295985 0)
(0.981665 -0.0274249 0)
(0.970003 -0.0255442 0)
(0.970031 -0.0175804 0)
(0.958929 -0.0203867 0)
(0.96434 0.00233009 0)
(0.971914 0.000416984 0)
(0.972455 0.0100176 0)
(0.97382 0.00708493 0)
(0.973422 0.0138875 0)
(0.973065 0.0134104 0)
(0.974623 0.0196541 0)
(0.973752 0.0201312 0)
(1.00433 -0.0101027 0)
(0.986671 -0.00644439 0)
(0.984291 0.00292626 0)
(0.994504 0.0130267 0)
(1.01119 0.00738532 0)
(1.01665 -0.0111775 0)
(1.00536 -0.0295426 0)
(0.989156 -0.0294175 0)
(0.981996 -0.0268609 0)
(0.970503 -0.0253306 0)
(0.969702 -0.0173263 0)
(0.958896 -0.0199594 0)
(0.96006 0.00166372 0)
(0.967052 0.00048761 0)
(0.966836 0.00959899 0)
(0.968769 0.00731033 0)
(0.96828 0.0136657 0)
(0.968544 0.0136473 0)
(0.970241 0.0194083 0)
(0.969921 0.0200919 0)
(1.00436 -0.00997849 0)
(0.987062 -0.00633287 0)
(0.984489 0.00286575 0)
(0.994122 0.0126728 0)
(1.0101 0.00717255 0)
(1.01564 -0.0112266 0)
(1.00448 -0.0288286 0)
(0.989226 -0.0292385 0)
(0.982333 -0.0263086 0)
(0.971203 -0.0250668 0)
(0.969839 -0.0170957 0)
(0.959562 -0.0193718 0)
(0.958025 0.00107103 0)
(0.964505 0.000619527 0)
(0.963904 0.00919197 0)
(0.966039 0.00750866 0)
(0.965613 0.0133921 0)
(0.966212 0.0138308 0)
(0.967975 0.0191577 0)
(0.968006 0.0199939 0)
(1.00434 -0.00985077 0)
(0.987398 -0.00622427 0)
(0.984718 0.00281704 0)
(0.993767 0.0123144 0)
(1.00937 0.00696378 0)
(1.01461 -0.0112755 0)
(1.00386 -0.028117 0)
(0.989127 -0.0290584 0)
(0.98261 -0.0257746 0)
(0.97201 -0.0247547 0)
(0.97026 -0.0169122 0)
(0.96063 -0.0186713 0)
(0.957542 0.000532676 0)
(0.963553 0.000773284 0)
(0.96285 0.0087901 0)
(0.96494 0.00770776 0)
(0.964683 0.0131239 0)
(0.965436 0.0139378 0)
(0.967223 0.0188523 0)
(0.967451 0.0198595 0)
(1.00428 -0.00971866 0)
(0.987692 -0.00611964 0)
(0.984959 0.00278019 0)
(0.993471 0.0119485 0)
(1.0089 0.00675942 0)
(1.01366 -0.0113241 0)
(1.00342 -0.0274029 0)
(0.989 -0.028866 0)
(0.98279 -0.0252826 0)
(0.972821 -0.0243841 0)
(0.97081 -0.0167715 0)
(0.961862 -0.0179226 0)
(0.958038 4.05942e-05 0)
(0.963607 0.000949861 0)
(0.962991 0.00839839 0)
(0.964914 0.00786614 0)
(0.964869 0.012866 0)
(0.965661 0.0140909 0)
(0.967465 0.0185495 0)
(0.967792 0.0196468 0)
(1.00418 -0.00958152 0)
(0.987955 -0.00601965 0)
(0.985199 0.00275479 0)
(0.993259 0.0115721 0)
(1.00861 0.00655942 0)
(1.01285 -0.0113677 0)
(1.00309 -0.0266987 0)
(0.988934 -0.0286334 0)
(0.982872 -0.0248484 0)
(0.973558 -0.0239702 0)
(0.971365 -0.0166544 0)
(0.963067 -0.0171401 0)
(0.959061 -0.000432695 0)
(0.964217 0.00110578 0)
(0.963778 0.00805125 0)
(0.965503 0.00804942 0)
(0.965704 0.01253 0)
(0.96647 0.0141634 0)
(0.968268 0.0183495 0)
(0.968636 0.0194764 0)
(1.00407 -0.00943857 0)
(0.988195 -0.00592499 0)
(0.98543 0.00273906 0)
(0.993138 0.0111869 0)
(1.00838 0.00635903 0)
(1.0122 -0.0113986 0)
(1.00279 -0.0260058 0)
(0.988974 -0.0283711 0)
(0.982878 -0.0244518 0)
(0.97418 -0.0235008 0)
(0.971848 -0.0166163 0)
(0.964127 -0.0163102 0)
(0.960272 -0.000881378 0)
(0.965052 0.00122931 0)
(0.964824 0.00767196 0)
(0.966349 0.00824889 0)
(0.9668 0.0123006 0)
(0.967555 0.0141113 0)
(0.969356 0.0180215 0)
(0.969706 0.0192972 0)
(1.00394 -0.00928903 0)
(0.988415 -0.00583651 0)
(0.985644 0.00273293 0)
(0.993112 0.0107858 0)
(1.00816 0.00616897 0)
(1.01172 -0.011438 0)
(1.00249 -0.0252945 0)
(0.989118 -0.0280948 0)
(0.982842 -0.0240875 0)
(0.974674 -0.0229971 0)
(0.97223 -0.0165498 0)
(0.965009 -0.0155752 0)
(0.961456 -0.0012498 0)
(0.965889 0.00129992 0)
(0.965872 0.00738636 0)
(0.967238 0.00829851 0)
(0.967925 0.0121121 0)
(0.968648 0.0141448 0)
(0.970482 0.0176941 0)
(0.970817 0.0190071 0)
(1.00381 -0.00913343 0)
(0.988611 -0.00575383 0)
(0.985841 0.00273775 0)
(0.993178 0.0103678 0)
(1.00792 0.00597435 0)
(1.01139 -0.011451 0)
(1.00218 -0.0246254 0)
(0.989336 -0.0277328 0)
(0.982793 -0.0237682 0)
(0.975055 -0.0224883 0)
(0.972518 -0.01647 0)
(0.965726 -0.0148351 0)
(0.962526 -0.00160942 0)
(0.966635 0.00129851 0)
(0.966793 0.00713673 0)
(0.968021 0.00844414 0)
(0.968968 0.0118545 0)
(0.969687 0.014074 0)
(0.971544 0.0174362 0)
(0.971866 0.0188139 0)
(1.00368 -0.00897052 0)
(0.988779 -0.00567631 0)
(0.986021 0.00274434 0)
(0.993332 0.00995846 0)
(1.00764 0.00575429 0)
(1.01117 -0.0114267 0)
(1.00187 -0.0239956 0)
(0.989591 -0.0273036 0)
(0.98275 -0.0235184 0)
(0.975339 -0.0218441 0)
(0.972744 -0.0165762 0)
(0.966324 -0.0139823 0)
(0.963457 -0.00204831 0)
(0.967267 0.00141111 0)
(0.967597 0.00666042 0)
(0.968683 0.00859839 0)
(0.969845 0.0116892 0)
(0.9706 0.0141086 0)
(0.972515 0.0170602 0)
(0.972834 0.0185049 0)
(1.00357 -0.00879662 0)
(0.988921 -0.00561163 0)
(0.986186 0.00276254 0)
(0.993567 0.00951403 0)
(1.00733 0.00557157 0)
(1.01102 -0.01145 0)
(1.00159 -0.0233112 0)
(0.989851 -0.0268812 0)
(0.982725 -0.0232391 0)
(0.975558 -0.0213037 0)
(0.97292 -0.0164023 0)
(0.966857 -0.0134865 0)
(0.964282 -0.00219551 0)
(0.967807 0.00131659 0)
(0.968278 0.00644541 0)
(0.969275 0.00861334 0)
(0.970643 0.0113426 0)
(0.971402 0.0139615 0)
(0.973294 0.016916 0)
(0.973664 0.0182952 0)
(1.00347 -0.00862356 0)
(0.989044 -0.00553536 0)
(0.986341 0.00276107 0)
(0.993868 0.00909559 0)
(1.007 0.00531505 0)
(1.0109 -0.0113417 0)
(1.00135 -0.0227707 0)
(0.990098 -0.0263206 0)
(0.982717 -0.0230275 0)
(0.975755 -0.0206612 0)
(0.973064 -0.0163769 0)
(0.967353 -0.0128456 0)
(0.965033 -0.002429 0)
(0.968304 0.00119995 0)
(0.968908 0.00619996 0)
(0.96977 0.00861806 0)
(0.971316 0.0112163 0)
(0.972251 0.0136663 0)
(0.97414 0.0166212 0)
(0.974473 0.0181279 0)
(1.00338 -0.00843555 0)
(0.989156 -0.00547602 0)
(0.986497 0.00278698 0)
(0.994206 0.00863869 0)
(1.00667 0.0051121 0)
(1.01076 -0.0113071 0)
(1.00116 -0.0221619 0)
(0.990323 -0.0257865 0)
(0.982749 -0.0227429 0)
(0.975929 -0.0201136 0)
(0.97321 -0.0162569 0)
(0.96785 -0.0123564 0)
(0.965715 -0.00252922 0)
(0.968787 0.001016 0)
(0.969484 0.00593503 0)
(0.970306 0.00843729 0)
(0.971941 0.0111869 0)
(0.97294 0.0133489 0)
(0.974827 0.0161339 0)
(0.975197 0.0177609 0)
(1.00329 -0.00822929 0)
(0.989272 -0.00544473 0)
(0.986659 0.00282011 0)
(0.994556 0.00816072 0)
(1.00636 0.00489718 0)
(1.01058 -0.0112479 0)
(1.00102 -0.02156 0)
(0.990527 -0.0252177 0)
(0.982807 -0.0224411 0)
(0.976135 -0.0196189 0)
(0.973357 -0.015899 0)
(0.968367 -0.0121522 0)
(0.966368 -0.00245838 0)
(0.969266 0.000798171 0)
(0.970053 0.00574602 0)
(0.970813 0.0084095 0)
(0.972519 0.0109212 0)
(0.97369 0.0131805 0)
(0.975619 0.0160105 0)
(0.975954 0.0175088 0)
(1.00321 -0.00804483 0)
(0.989405 -0.00536659 0)
(0.986836 0.00278114 0)
(0.994883 0.00779317 0)
(1.00607 0.00453676 0)
(1.01033 -0.0109541 0)
(1.00091 -0.0212299 0)
(0.990714 -0.0243896 0)
(0.982929 -0.0223726 0)
(0.976354 -0.0187616 0)
(0.973534 -0.0160634 0)
(0.968912 -0.0113748 0)
(0.967012 -0.00296815 0)
(0.969752 0.00113503 0)
(0.970627 0.005071 0)
(0.971342 0.00855505 0)
(0.973088 0.0107759 0)
(0.974422 0.013232 0)
(0.976296 0.0154895 0)
(0.976619 0.0170995 0)
(1.00311 -0.00782794 0)
(0.989569 -0.00532705 0)
(0.987024 0.00281922 0)
(0.995176 0.00729321 0)
(1.00581 0.00436675 0)
(1.01003 -0.010938 0)
(1.00082 -0.0206 0)
(0.990898 -0.023817 0)
(0.983087 -0.0219845 0)
(0.97662 -0.0184437 0)
(0.97376 -0.0155694 0)
(0.969496 -0.0111998 0)
(0.967647 -0.00289605 0)
(0.970257 0.000880227 0)
(0.971179 0.00491493 0)
(0.971924 0.00827775 0)
(0.973615 0.0106282 0)
(0.975013 0.012785 0)
(0.976859 0.0149566 0)
(0.97722 0.0166778 0)
(1.00302 -0.00758747 0)
(0.98976 -0.00533006 0)
(0.987239 0.00285707 0)
(0.995417 0.00681487 0)
(1.00557 0.00407652 0)
(1.00966 -0.0107376 0)
(1.00073 -0.0200744 0)
(0.991079 -0.023226 0)
(0.983284 -0.0215473 0)
(0.976953 -0.0180653 0)
(0.974008 -0.0150219 0)
(0.970142 -0.0111898 0)
(0.968291 -0.00265437 0)
(0.970793 0.000493392 0)
(0.971764 0.00494193 0)
(0.972491 0.00808078 0)
(0.974152 0.0105553 0)
(0.975698 0.0125778 0)
(0.977566 0.0146793 0)
(0.977877 0.0161985 0)
(1.00291 -0.00739838 0)
(0.989977 -0.0052341 0)
(0.987484 0.00277345 0)
(0.9956 0.00649083 0)
(1.00536 0.00365229 0)
(1.00924 -0.0103116 0)
(1.00064 -0.0198979 0)
(0.991237 -0.0221743 0)
(0.983549 -0.0215366 0)
(0.977312 -0.0171932 0)
(0.974326 -0.0151675 0)
(0.970832 -0.0103989 0)
(0.968966 -0.00326302 0)
(0.971341 0.00104875 0)
(0.972369 0.00430994 0)
(0.97308 0.00818356 0)
(0.97468 0.0102314 0)
(0.976268 0.0125612 0)
(0.978114 0.0139934 0)
(0.978445 0.0156976 0)
(1.00279 -0.00715149 0)
(0.990224 -0.00522236 0)
(0.987743 0.00282111 0)
(0.995747 0.00599334 0)
(1.00515 0.00343827 0)
(1.00879 -0.0102438 0)
(1.00055 -0.0192269 0)
(0.991387 -0.0217169 0)
(0.983847 -0.0209201 0)
(0.977731 -0.0170658 0)
(0.974698 -0.0144205 0)
(0.97155 -0.0103376 0)
(0.969696 -0.00306582 0)
(0.971944 0.000665941 0)
(0.972971 0.00413469 0)
(0.97371 0.00776942 0)
(0.975193 0.00996755 0)
(0.976758 0.0120121 0)
(0.978564 0.013667 0)
(0.978952 0.015307 0)
(1.00267 -0.00688279 0)
(0.990491 -0.00525157 0)
(0.988024 0.00284803 0)
(0.995858 0.00554647 0)
(1.00493 0.00310038 0)
(1.00831 -0.00999209 0)
(1.00043 -0.0187202 0)
(0.991549 -0.0211435 0)
(0.984161 -0.0203015 0)
(0.978204 -0.0168703 0)
(0.975108 -0.0137327 0)
(0.972336 -0.0104348 0)
(0.970431 -0.00282804 0)
(0.972542 0.000246234 0)
(0.973644 0.00419567 0)
(0.974352 0.00730372 0)
(0.975742 0.00975901 0)
(0.977378 0.0116868 0)
(0.97921 0.0133729 0)
(0.979498 0.0147507 0)
(1.00256 -0.0066908 0)
(0.990763 -0.00514761 0)
(0.988333 0.0027086 0)
(0.995935 0.0053088 0)
(1.00472 0.0025375 0)
(1.0078 -0.00940818 0)
(1.00032 -0.0186363 0)
(0.991674 -0.0200115 0)
(0.984524 -0.0203428 0)
(0.978684 -0.0158984 0)
(0.975584 -0.0139843 0)
(0.973135 -0.00952499 0)
(0.971267 -0.00336149 0)
(0.97323 0.00110032 0)
(0.974328 0.00361238 0)
(0.975012 0.00750535 0)
(0.976357 0.00936078 0)
(0.977941 0.0118824 0)
(0.979718 0.0126748 0)
(0.980045 0.0141289 0)
(1.00244 -0.00641814 0)
(0.991063 -0.00516286 0)
(0.988637 0.00276138 0)
(0.996009 0.00485225 0)
(1.00447 0.00229309 0)
(1.0073 -0.009364 0)
(1.00019 -0.017875 0)
(0.991795 -0.0196847 0)
(0.984901 -0.0195355 0)
(0.979217 -0.0158157 0)
(0.976111 -0.0131977 0)
(0.973976 -0.00952097 0)
(0.972137 -0.00327534 0)
(0.973885 0.000682946 0)
(0.975011 0.00344798 0)
(0.975721 0.00704375 0)
(0.976946 0.00917121 0)
(0.978387 0.0112702 0)
(0.980021 0.0124777 0)
(0.980447 0.0138357 0)
(1.00232 -0.00612749 0)
(0.991371 -0.00520009 0)
(0.988956 0.00275232 0)
(0.996077 0.00448981 0)
(1.00421 0.00191036 0)
(1.0068 -0.00910202 0)
(1.00003 -0.0173202 0)
(0.991948 -0.019143 0)
(0.985272 -0.0188938 0)
(0.979765 -0.0156295 0)
(0.976642 -0.0124773 0)
(0.974821 -0.00956762 0)
(0.973037 -0.00314684 0)
(0.974652 0.000199548 0)
(0.975789 0.00356456 0)
(0.976488 0.0063553 0)
(0.977615 0.00887007 0)
(0.979065 0.010781 0)
(0.980718 0.0121866 0)
(0.98101 0.0133733 0)
(1.00222 -0.00594821 0)
(0.991676 -0.0050743 0)
(0.989296 0.00253928 0)
(0.996125 0.00438271 0)
(1.00396 0.00126297 0)
(1.00628 -0.00841368 0)
(0.999901 -0.0172912 0)
(0.992052 -0.0179954 0)
(0.985678 -0.0189769 0)
(0.980327 -0.0145489 0)
(0.97724 -0.012786 0)
(0.975676 -0.00848767 0)
(0.973961 -0.0035122 0)
(0.975419 0.000995066 0)
(0.976538 0.00293969 0)
(0.977236 0.006691 0)
(0.978365 0.00835781 0)
(0.979667 0.0111427 0)
(0.981194 0.0115266 0)
(0.981534 0.0126688 0)
(1.0021 -0.00562326 0)
(0.992003 -0.00515137 0)
(0.989625 0.0025871 0)
(0.996191 0.00397513 0)
(1.00367 0.00104714 0)
(1.0058 -0.0085056 0)
(0.999753 -0.0163655 0)
(0.992176 -0.0177665 0)
(0.986079 -0.0180673 0)
(0.980916 -0.0145312 0)
(0.977854 -0.0119116 0)
(0.976565 -0.0086791 0)
(0.974931 -0.00347039 0)
(0.97615 0.000582676 0)
(0.977288 0.00270402 0)
(0.977999 0.0061545 0)
(0.979043 0.00806988 0)
(0.980169 0.0104334 0)
(0.981419 0.0114964 0)
(0.981891 0.0126083 0)
(1.00198 -0.00536677 0)
(0.992345 -0.00513498 0)
(0.989958 0.0024784 0)
(0.996258 0.00374987 0)
(1.00338 0.000619735 0)
(1.00534 -0.00827542 0)
(0.999574 -0.0157005 0)
(0.992339 -0.017361 0)
(0.986465 -0.0172812 0)
(0.981526 -0.0143784 0)
(0.978446 -0.0111976 0)
(0.977399 -0.00862799 0)
(0.975901 -0.00350013 0)
(0.976976 -6.65727e-05 0)
(0.978109 0.00285119 0)
(0.978868 0.00537346 0)
(0.979859 0.00783568 0)
(0.981 0.0097208 0)
(0.982221 0.0115607 0)
(0.982419 0.0126084 0)
(1.00189 -0.0051564 0)
(0.992667 -0.00503677 0)
(0.990321 0.00223668 0)
(0.996301 0.00368619 0)
(1.00311 8.49524e-05 0)
(1.00487 -0.00779864 0)
(0.999425 -0.0154615 0)
(0.992473 -0.0164094 0)
(0.986881 -0.0170287 0)
(0.982113 -0.0136738 0)
(0.979103 -0.0110047 0)
(0.978235 -0.00796204 0)
(0.976832 -0.0037675 0)
(0.977839 0.000348697 0)
(0.97891 0.00249076 0)
(0.97967 0.00537611 0)
(0.980659 0.00744994 0)
(0.981766 0.00959128 0)
(0.982842 0.0109593 0)
(0.982869 0.0119729 0)
(1.00178 -0.00481274 0)
(0.993003 -0.00512775 0)
(0.990675 0.00222618 0)
(0.996354 0.00336994 0)
(1.00283 -0.000134172 0)
(1.00444 -0.00779183 0)
(0.999285 -0.0147438 0)
(0.992616 -0.0159119 0)
(0.98727 -0.0163783 0)
(0.982755 -0.0133357 0)
(0.979744 -0.0103621 0)
(0.979026 -0.00775798 0)
(0.977846 -0.00361658 0)
(0.97865 0.000297444 0)
(0.979679 0.00222544 0)
(0.980528 0.00531579 0)
(0.981456 0.0070342 0)
(0.982487 0.00906918 0)
(0.983425 0.0103559 0)
(0.983305 0.0112594 0)
(1.00168 -0.00460933 0)
(0.993343 -0.00503533 0)
(0.991038 0.00198861 0)
(0.996403 0.00328876 0)
(1.00256 -0.000528671 0)
(1.00404 -0.00753698 0)
(0.999144 -0.0142614 0)
(0.992768 -0.0152615 0)
(0.987684 -0.0157671 0)
(0.983382 -0.0127809 0)
(0.980411 -0.0101165 0)
(0.979838 -0.00718401 0)
(0.978782 -0.00363023 0)
(0.979479 6.55348e-05 0)
(0.980533 0.00227973 0)
(0.98133 0.00505131 0)
(0.982168 0.00654948 0)
(0.983236 0.0086039 0)
(0.984005 0.00974216 0)
(0.983712 0.0104334 0)
(1.00158 -0.00431921 0)
(0.993686 -0.00503478 0)
(0.991405 0.0018453 0)
(0.996449 0.00306664 0)
(1.00229 -0.000738749 0)
(1.00366 -0.00743206 0)
(0.999022 -0.0137001 0)
(0.992933 -0.0146443 0)
(0.988085 -0.0150798 0)
(0.984012 -0.0124841 0)
(0.981104 -0.00952211 0)
(0.980622 -0.00694498 0)
(0.979708 -0.00361298 0)
(0.98036 0.000120577 0)
(0.981325 0.0021373 0)
(0.982087 0.00458918 0)
(0.982952 0.00627934 0)
(0.983947 0.00810752 0)
(0.984473 0.00895758 0)
(0.984132 0.0097189 0)
(1.00148 -0.00406017 0)
(0.994027 -0.00500532 0)
(0.991778 0.00164934 0)
(0.996498 0.00290225 0)
(1.00202 -0.000928567 0)
(1.00329 -0.00729595 0)
(0.998909 -0.0131463 0)
(0.993104 -0.0140813 0)
(0.988479 -0.0144425 0)
(0.98467 -0.0119799 0)
(0.981793 -0.00917685 0)
(0.981382 -0.00658382 0)
(0.98067 -0.00350351 0)
(0.981196 -4.70592e-05 0)
(0.982094 0.0019074 0)
(0.982907 0.0043838 0)
(0.983684 0.00601825 0)
(0.984547 0.0073919 0)
(0.985004 0.00831514 0)
(0.984638 0.00922154 0)
(1.00139 -0.00380624 0)
(0.994368 -0.00496674 0)
(0.992161 0.00147807 0)
(0.996548 0.00269961 0)
(1.00176 -0.00108864 0)
(1.00295 -0.00715141 0)
(0.998812 -0.0126053 0)
(0.993283 -0.0134991 0)
(0.988896 -0.0137317 0)
(0.985292 -0.0115776 0)
(0.98251 -0.00878184 0)
(0.982168 -0.00624555 0)
(0.981544 -0.00347308 0)
(0.982052 -0.000166029 0)
(0.982926 0.00181833 0)
(0.983695 0.00408541 0)
(0.984332 0.00554338 0)
(0.985163 0.00688545 0)
(0.985592 0.00793488 0)
(0.985126 0.00867661 0)
(1.00129 -0.00354898 0)
(0.994707 -0.00491942 0)
(0.992546 0.00128507 0)
(0.996603 0.0024814 0)
(1.0015 -0.00119407 0)
(1.00263 -0.0069773 0)
(0.998727 -0.0120752 0)
(0.99348 -0.012946 0)
(0.989281 -0.0130864 0)
(0.985945 -0.011163 0)
(0.983228 -0.0083826 0)
(0.982899 -0.00595774 0)
(0.982471 -0.00338588 0)
(0.982913 -0.00024788 0)
(0.983688 0.00165324 0)
(0.984442 0.00371537 0)
(0.985038 0.00522988 0)
(0.985837 0.00653803 0)
(0.986127 0.00743604 0)
(0.985557 0.00802508 0)
(1.00121 -0.00330404 0)
(0.995042 -0.00486347 0)
(0.99294 0.00108124 0)
(0.996664 0.00228122 0)
(1.00126 -0.00128143 0)
(1.00231 -0.00678964 0)
(0.998655 -0.0115776 0)
(0.993677 -0.0123862 0)
(0.989698 -0.0124568 0)
(0.986564 -0.0106532 0)
(0.983962 -0.0080732 0)
(0.983667 -0.00560045 0)
(0.983315 -0.00331482 0)
(0.983757 -0.000394597 0)
(0.984487 0.00148784 0)
(0.985233 0.00343649 0)
(0.98573 0.00493463 0)
(0.986406 0.00608342 0)
(0.986606 0.00689188 0)
(0.986014 0.00743479 0)
(1.00112 -0.00305876 0)
(0.995373 -0.00479509 0)
(0.993334 0.000876736 0)
(0.996733 0.0020536 0)
(1.00102 -0.00136479 0)
(1.00202 -0.00657883 0)
(0.998599 -0.0110442 0)
(0.993897 -0.0118297 0)
(0.990091 -0.0118324 0)
(0.9872 -0.0102222 0)
(0.984694 -0.00770476 0)
(0.984384 -0.00534661 0)
(0.984182 -0.00322721 0)
(0.98461 -0.000488521 0)
(0.985253 0.00135819 0)
(0.985981 0.00313813 0)
(0.986408 0.00457037 0)
(0.987016 0.00564256 0)
(0.987107 0.00645899 0)
(0.986452 0.00691657 0)
(1.00104 -0.00282204 0)
(0.995698 -0.0047181 0)
(0.993735 0.000656186 0)
(0.996809 0.00185056 0)
(1.0008 -0.00144871 0)
(1.00174 -0.00633514 0)
(0.998553 -0.0105475 0)
(0.994113 -0.0112871 0)
(0.990507 -0.0112713 0)
(0.98781 -0.0097173 0)
(0.985432 -0.00743867 0)
(0.985136 -0.00504439 0)
(0.98499 -0.00309558 0)
(0.985446 -0.000630376 0)
(0.986034 0.00119446 0)
(0.986741 0.0028536 0)
(0.987084 0.00425739 0)
(0.987588 0.00524684 0)
(0.987569 0.00602331 0)
(0.986876 0.00640759 0)
(1.00097 -0.00259169 0)
(0.996017 -0.00460474 0)
(0.994137 0.000416577 0)
(0.996893 0.00164707 0)
(1.00059 -0.0015397 0)
(1.00148 -0.00609241 0)
(0.998513 -0.0100132 0)
(0.994344 -0.0107344 0)
(0.990908 -0.0106788 0)
(0.988426 -0.00927596 0)
(0.986168 -0.00709067 0)
(0.98586 -0.00480243 0)
(0.985795 -0.00296217 0)
(0.986271 -0.000736321 0)
(0.986798 0.00103854 0)
(0.98748 0.00256595 0)
(0.987755 0.00392666 0)
(0.988177 0.00484672 0)
(0.988038 0.00561081 0)
(0.98728 0.00594904 0)
(1.00089 -0.00240601 0)
(0.996325 -0.00444628 0)
(0.994538 0.000167429 0)
(0.996986 0.00146841 0)
(1.00039 -0.00163799 0)
(1.00123 -0.00584462 0)
(0.998476 -0.0094888 0)
(0.994563 -0.0101445 0)
(0.991316 -0.0101355 0)
(0.989024 -0.00879756 0)
(0.986907 -0.00683188 0)
(0.986609 -0.0045924 0)
(0.986561 -0.00281662 0)
(0.987078 -0.0008419 0)
(0.987567 0.000868602 0)
(0.988223 0.00230265 0)
(0.988422 0.00363036 0)
(0.988742 0.00447949 0)
(0.988489 0.00520701 0)
(0.987671 0.00553107 0)
(1.00082 -0.00216327 0)
(0.996628 -0.00435872 0)
(0.994939 -5.63027e-05 0)
(0.997086 0.00120606 0)
(1.0002 -0.00165181 0)
(1.00102 -0.00563805 0)
(0.998486 -0.00897577 0)
(0.994822 -0.00956553 0)
(0.991726 -0.00955964 0)
(0.989619 -0.00835457 0)
(0.987622 -0.00649207 0)
(0.987335 -0.00442016 0)
(0.987312 -0.00266034 0)
(0.987847 -0.000908762 0)
(0.98831 0.000701849 0)
(0.988949 0.00203695 0)
(0.989078 0.00331001 0)
(0.989307 0.00412406 0)
(0.988952 0.00481991 0)
(0.988054 0.00514586 0)
(1.00076 -0.00197055 0)
(0.996916 -0.00420274 0)
(0.99534 -0.000296334 0)
(0.997201 0.000964773 0)
(1.00004 -0.00167605 0)
(1.00082 -0.00544552 0)
(0.998467 -0.00848005 0)
(0.995036 -0.00896587 0)
(0.992113 -0.00899141 0)
(0.990195 -0.00787304 0)
(0.988338 -0.00616713 0)
(0.988084 -0.00422264 0)
(0.988053 -0.00252423 0)
(0.988604 -0.000946659 0)
(0.989054 0.000549004 0)
(0.989676 0.00178091 0)
(0.989744 0.00300455 0)
(0.989868 0.00381299 0)
(0.989409 0.00445776 0)
(0.988425 0.00479948 0)
(1.0007 -0.00182562 0)
(0.997195 -0.00395457 0)
(0.995732 -0.000559526 0)
(0.997326 0.00077303 0)
(0.99988 -0.00172635 0)
(1.00064 -0.00519382 0)
(0.998485 -0.00798121 0)
(0.995276 -0.00839689 0)
(0.992496 -0.00845541 0)
(0.990763 -0.00747883 0)
(0.989032 -0.00585216 0)
(0.988814 -0.00409761 0)
(0.988791 -0.00242063 0)
(0.989336 -0.000949771 0)
(0.989771 0.000405405 0)
(0.990389 0.00153999 0)
(0.990416 0.00268856 0)
(0.990434 0.00350959 0)
(0.989874 0.00410778 0)
(0.988793 0.00447496 0)
(1.00064 -0.00162086 0)
(0.997452 -0.00377846 0)
(0.996117 -0.000823759 0)
(0.997464 0.000584996 0)
(0.999739 -0.00173648 0)
(1.00048 -0.0049212 0)
(0.998512 -0.00753148 0)
(0.995512 -0.00789026 0)
(0.992874 -0.00795358 0)
(0.991323 -0.0070874 0)
(0.989716 -0.00554542 0)
(0.98954 -0.00393386 0)
(0.989521 -0.00232933 0)
(0.99004 -0.000942949 0)
(0.990457 0.000283241 0)
(0.991075 0.00132692 0)
(0.991084 0.00236482 0)
(0.990998 0.00321332 0)