/*--------------------------------*- C++ -*----------------------------------*\
| =========                 |                                                 |
| \\      /  F ield         | OpenFOAM: The Open Source CFD Toolbox           |
|  \\    /   O peration     | Version:  v2012                                 |
|   \\  /    A nd           | Website:  www.openfoam.com                      |
|    \\/     M anipulation  |                                                 |
\*---------------------------------------------------------------------------*/
FoamFile
{
    version     2.0;
    format      ascii;
    class       volScalarField;
    location    "5.6";
    object      p;
}
// * * * * * * * * * * * * * * * * * * * * * * * * * * * * * * * * * * * * * //

dimensions      [0 2 -2 0 0 0 0];


internalField   nonuniform List<scalar> 
7000
(
2.33163e-10
0.00109464
-0.00155658
-0.000277793
0.000224184
0.00299448
0.00454639
0.00889774
0.00998475
0.0114353
0.0119883
0.0146307
0.0151596
0.0175142
0.0186759
0.0215945
0.0241006
0.0280965
0.0319195
0.0390557
-9.58451e-06
0.00109298
-0.00155073
-0.000267089
0.00021509
0.0029871
0.00455136
0.00889925
0.00997882
0.0114414
0.0119812
0.0146261
0.0151574
0.0175031
0.0186835
0.0215699
0.0241189
0.0280438
0.031958
0.0387664
-1.79966e-05
0.00109266
-0.00154573
-0.000257122
0.000202128
0.0029769
0.00456038
0.00890185
0.00997073
0.01145
0.0119692
0.0146225
0.0151552
0.0174903
0.0186902
0.0215384
0.024132
0.0279712
0.0319843
0.0382649
-2.61066e-05
0.00109333
-0.00153971
-0.000249232
0.000191747
0.0029678
0.00456796
0.00890874
0.00996099
0.0114579
0.0119553
0.0146158
0.0151533
0.0174725
0.0186982
0.0215
0.0241423
0.0278898
0.0319679
0.0377444
-3.44812e-05
0.00109491
-0.00153124
-0.00024201
0.000186153
0.00295813
0.00457455
0.00891786
0.00995044
0.0114636
0.011941
0.0146053
0.0151534
0.0174497
0.0187081
0.0214544
0.0241539
0.0277954
0.0319171
0.037251
-4.31551e-05
0.00109764
-0.00151861
-0.000233708
0.000185874
0.00294703
0.00458157
0.00892759
0.00994014
0.0114666
0.0119272
0.0145908
0.0151561
0.0174213
0.0187199
0.0214022
0.0241651
0.0276893
0.031839
0.0367859
-5.2105e-05
0.00110177
-0.00150072
-0.000222971
0.000190798
0.00293539
0.00458951
0.00893751
0.00993061
0.0114668
0.0119143
0.0145719
0.0151615
0.017387
0.0187334
0.0213431
0.0241736
0.0275742
0.0317347
0.0363397
-6.13171e-05
0.00110766
-0.00147706
-0.000209268
0.000200395
0.0029242
0.00459839
0.00894726
0.00992181
0.0114636
0.0119022
0.0145483
0.0151694
0.0173466
0.0187482
0.0212773
0.0241774
0.0274519
0.0316028
0.0359046
-7.07854e-05
0.00111583
-0.00144755
-0.000192955
0.000213635
0.00291371
0.00460803
0.00895618
0.00991325
0.0114562
0.0118908
0.0145194
0.0151795
0.0172998
0.0187635
0.0212055
0.0241742
0.0273235
0.0314423
0.0354754
-8.05079e-05
0.00112682
-0.00141251
-0.000174805
0.000229323
0.00290361
0.00461817
0.00896325
0.00990428
0.0114439
0.0118802
0.0144848
0.0151915
0.0172469
0.0187783
0.0211289
0.0241614
0.0271899
0.0312527
0.0350481
-9.04747e-05
0.00114098
-0.00137254
-0.000155344
0.000246851
0.00289367
0.00462859
0.0089673
0.00989387
0.0114259
0.0118702
0.014444
0.0152051
0.017188
0.0187917
0.0210487
0.0241364
0.0270513
0.0310344
0.0346189
-0.000100657
0.00115833
-0.00132852
-0.000134522
0.00026653
0.00288421
0.00463923
0.00896714
0.00988148
0.0114016
0.0118611
0.014397
0.01522
0.0171237
0.0188019
0.0209667
0.0240968
0.0269077
0.0307884
0.0341843
-0.000111001
0.00117856
-0.00128141
-0.000111861
0.000289434
0.00287623
0.00465029
0.00896186
0.00986673
0.0113704
0.0118529
0.0143435
0.0152358
0.0170551
0.0188072
0.0208841
0.0240406
0.0267582
0.0305163
0.033741
-0.000121447
0.00120111
-0.00123205
-8.68131e-05
0.000317139
0.00287096
0.00466226
0.00895092
0.0098497
0.011332
0.011846
0.0142836
0.0152515
0.0169833
0.0188054
0.0208021
0.0239664
0.0266014
0.03022
0.0332866
-0.000131953
0.00122526
-0.00118098
-5.9091e-05
0.000350447
0.00286931
0.00467574
0.00893421
0.00983094
0.0112865
0.0118403
0.0142176
0.0152662
0.0169101
0.0187944
0.020721
0.0238733
0.0264355
0.0299016
0.0328192
-0.000142474
0.00125039
-0.00112849
-2.87979e-05
0.000389165
0.00287137
0.00469125
0.00891195
0.00981128
0.0112339
0.0118359
0.0141461
0.0152782
0.0168371
0.0187726
0.0206409
0.0237612
0.0262582
0.0295631
0.0323378
-0.000152964
0.00127599
-0.0010746
3.65994e-06
0.000432433
0.0028764
0.00470906
0.00888451
0.00979168
0.0111743
0.0118326
0.0140702
0.0152858
0.0167658
0.0187384
0.0205608
0.023631
0.0260675
0.0292059
0.0318423
-0.000163384
0.00130175
-0.00101916
3.77597e-05
0.000479064
0.00288322
0.00472924
0.00885229
0.00977294
0.0111081
0.01183
0.0139911
0.0152868
0.0166975
0.0186907
0.020479
0.0234841
0.0258618
0.0288311
0.0313329
-0.000173697
0.00132749
-0.00096201
7.30326e-05
0.000527966
0.00289056
0.0047517
0.00881562
0.00975562
0.0110357
0.0118272
0.0139108
0.0152792
0.0166329
0.0186296
0.0203931
0.0233213
0.0256404
0.0284404
0.0308101
-0.000183856
0.00135313
-0.000902983
0.000109131
0.000578383
0.0028974
0.00477639
0.00877477
0.00973999
0.0109576
0.011823
0.0138315
0.0152613
0.0165719
0.018556
0.0203006
0.0231429
0.0254029
0.0280359
0.0302748
-0.000193809
0.00137865
-0.000841958
0.000145821
0.000629912
0.00290303
0.00480327
0.00872992
0.00972604
0.0108746
0.0118155
0.0137549
0.0152321
0.0165133
0.0184708
0.0202003
0.0229495
0.0251477
0.0276189
0.0297292
-0.000203492
0.00140401
-0.000778846
0.000182966
0.000682416
0.00290701
0.00483235
0.0086813
0.00971338
0.0107879
0.0118031
0.0136824
0.0151913
0.0164557
0.0183743
0.0200901
0.0227435
0.0248743
0.0271886
0.0291748
-0.000212836
0.00142919
-0.000713573
0.00022048
0.000735924
0.00290907
0.0048636
0.0086291
0.00970146
0.0106991
0.011784
0.0136152
0.0151387
0.0163979
0.0182679
0.0199662
0.0225264
0.0245863
0.0267452
0.0286118
-0.000221761
0.00145409
-0.000646077
0.000258301
0.000790531
0.00290911
0.00489694
0.0085736
0.00968962
0.0106097
0.0117564
0.0135538
0.0150747
0.0163374
0.0181554
0.0198258
0.0222934
0.0242869
0.0262938
0.0280409
-0.00023018
0.00147863
-0.000576324
0.00029638
0.000846343
0.00290706
0.00493241
0.00851531
0.0096764
0.0105214
0.0117194
0.013498
0.0150004
0.0162696
0.0180384
0.0196735
0.0220407
0.0239709
0.0258386
0.0274666
-0.000238001
0.00150268
-0.000504283
0.000334677
0.00090348
0.00290291
0.00496971
0.00845518
0.00966023
0.0104354
0.0116724
0.013447
0.0149182
0.016192
0.0179129
0.0195111
0.021775
0.0236347
0.0253757
0.0268917
-0.000245124
0.00152607
-0.000429882
0.000373145
0.000961966
0.00289699
0.00500824
0.00839397
0.00964041
0.0103523
0.0116148
0.0133992
0.0148297
0.0161037
0.0177797
0.0193325
0.0214984
0.0232857
0.0249045
0.0263142
-0.000251436
0.00154863
-0.00035305
0.000411756
0.00102182
0.00288943
0.00504782
0.00833241
0.00961538
0.0102731
0.0115471
0.0133524
0.0147371
0.0160003
0.0176403
0.0191408
0.0212048
0.0229253
0.0244288
0.0257355
-0.000256814
0.00157014
-0.00027378
0.000450518
0.00108319
0.00288027
0.00508754
0.00827221
0.00958394
0.0101972
0.0114696
0.0133063
0.0146416
0.0158827
0.0174885
0.0189368
0.0208977
0.0225557
0.0239436
0.0251565
-0.000261144
0.00159043
-0.000192008
0.00048949
0.00114576
0.00287041
0.00512592
0.0082143
0.00954586
0.010126
0.0113807
0.0132593
0.0145435
0.015751
0.0173275
0.0187159
0.0205686
0.0221758
0.0234723
0.0245783
-0.000264264
0.00160928
-0.000107629
0.000528651
0.00120952
0.00285997
0.00516245
0.00815982
0.00949928
0.0100597
0.0112847
0.0132024
0.0144491
0.0156019
0.0171499
0.0184949
0.0202205
0.0217636
0.023012
0.0240113
-0.00026611
0.00162653
-2.06594e-05
0.000568159
0.00127411
0.0028496
0.00519617
0.00810949
0.00944549
0.00999281
0.0111872
0.0131346
0.0143543
0.0154407
0.0169518
0.0182645
0.0198744
0.0213306
0.022513
0.0234512
-0.000266518
0.00164194
6.90669e-05
0.000607943
0.00133909
0.00284019
0.00522593
0.00806273
0.00938785
0.00992135
0.0110866
0.0130592
0.0142562
0.0152669
0.0167441
0.018006
0.0195133
0.0208992
0.0220166
0.0228926
-0.000265059
0.00165509
0.000161411
0.000648075
0.0014047
0.00283111
0.00525199
0.00801999
0.00932281
0.00985082
0.0109839
0.0129678
0.0141613
0.0150824
0.0165119
0.0177505
0.0191339
0.0204379
0.021477
0.0223532
-0.000262035
0.00166641
0.000255909
0.000689586
0.00146864
0.00282521
0.00527244
0.00798149
0.00924867
0.00978475
0.0108784
0.0128682
0.0140522
0.014897
0.0162565
0.0174726
0.0187525
0.0199567
0.0209667
0.0218237
-0.000257326
0.00167558
0.000353051
0.000731869
0.00153114
0.00282282
0.00528548
0.00794733
0.00917268
0.00970438
0.0107718
0.0127658
0.0139316
0.0146939
0.0159893
0.0171579
0.0183618
0.0194917
0.0205044
0.0212847
-0.000249816
0.00168092
0.00045252
0.000775058
0.00159373
0.00282101
0.00529433
0.00791337
0.00910211
0.0096133
0.0106636
0.0126467
0.0138151
0.0144719
0.0157039
0.0168477
0.0179537
0.0190149
0.019933
0.0207551
-0.000240456
0.0016849
0.00055302
0.000821347
0.00165147
0.00282495
0.00529568
0.00788214
0.0090219
0.00952697
0.0105484
0.0125182
0.0136829
0.0142503
0.0153818
0.0165133
0.0175601
0.018533
0.0194129
0.0202306
-0.000229132
0.00168824
0.0006552
0.000869958
0.00170518
0.00283377
0.00528914
0.00785293
0.00893788
0.00942874
0.0104298
0.0123788
0.0135339
0.0140182
0.0150429
0.0161431
0.0171656
0.0180639
0.0189664
0.0196976
-0.000213964
0.00165961
0.000758512
0.000921074
0.0017587
0.00284091
0.00528154
0.00781674
0.00887867
0.00931124
0.0103049
0.0122229
0.0133788
0.013765
0.014721
0.0157874
0.0167319
0.0175729
0.0183356
0.0191708
-0.000196833
0.00165566
0.000860764
0.000977202
0.00180596
0.0028547
0.00526652
0.00778105
0.00880106
0.00920415
0.0101715
0.0120642
0.0132021
0.013498
0.0143559
0.0154121
0.0163081
0.0170899
0.017814
0.0186482
-0.000177388
0.00165056
0.00096257
0.00103726
0.00184793
0.00287481
0.00524518
0.00774393
0.00870928
0.00909863
0.0100338
0.0118828
0.0130097
0.0132314
0.0139539
0.0149921
0.0158916
0.0166353
0.0174337
0.0181217
-0.000152618
0.00163645
0.00106336
0.00110113
0.00189188
0.00288732
0.00522689
0.00769568
0.00867146
0.00897508
0.00988844
0.0116902
0.0128217
0.0129433
0.0135548
0.0145548
0.0154485
0.0161577
0.0167535
0.0175938
-0.000126506
0.00162553
0.0011603
0.00117144
0.00192895
0.00290524
0.0052026
0.00764568
0.00856313
0.00886854
0.00972458
0.0114941
0.012609
0.0126646
0.0131342
0.0140663
0.0149801
0.0157131
0.0162637
0.0170724
-9.7353e-05
0.00161264
0.00125436
0.00124642
0.00196167
0.00292728
0.00517381
0.00759299
0.00833525
0.00876362
0.00955295
0.0112776
0.01239
0.0123977
0.0126882
0.0135389
0.0144756
0.0152702
0.0160065
0.0165742
-6.1783e-05
0.00159352
0.00134511
0.00132475
0.00199869
0.00293763
0.00514966
0.00752697
0.00845294
0.00861938
0.00938252
0.0110385
0.0121703
0.0121222
0.0123048
0.0131018
0.0139419
0.0146342
0.0152051
0.0160783
-2.6104e-05
0.00157797
0.00142998
0.00140878
0.00203145
0.00295005
0.0051213
0.00745507
0.00836769
0.00848035
0.00919587
0.0107932
0.0119275
0.0118638
0.0119192
0.0126111
0.0133952
0.0139915
0.014561
0.0156316
1.48597e-05
0.00156014
0.00151025
0.00149536
0.00206474
0.00296224
0.00508579
0.00737998
0.00823042
0.00834698
0.00899429
0.0105364
0.0116748
0.011608
0.0115144
0.0121192
0.0128358
0.0133637
0.0140273
0.0151932
6.00906e-05
0.00154088
0.00158511
0.00158345
0.00210076
0.0029708
0.00504622
0.00729355
0.00813363
0.00821109
0.0087844
0.0102692
0.0114068
0.011341
0.0111269
0.0115989
0.0122331
0.0128143
0.0135734
0.0147384
0.000107701
0.00152257
0.00165352
0.00167269
0.0021386
0.0029788
0.00500013
0.00719812
0.00802725
0.0080704
0.00856883
0.00999027
0.0111206
0.0110708
0.010736
0.0110387
0.0116709
0.0123352
0.0131184
0.0142492
0.000160245
0.00150389
0.00171651
0.00176119
0.00217829
0.00298518
0.00494848
0.00709525
0.00790845
0.00792564
0.0083534
0.00969775
0.0108186
0.010782
0.0103397
0.0105104
0.0111469
0.0118266
0.0126073
0.0137809
0.000216026
0.00148591
0.00177378
0.00184802
0.00221838
0.00299095
0.00489388
0.00697972
0.00778442
0.00778294
0.00813587
0.00939009
0.0104946
0.0104759
0.00997178
0.0100099
0.010588
0.0112764
0.0121322
0.0133558
0.000275641
0.00146872
0.00182502
0.00193243
0.0022596
0.00299566
0.00483383
0.00685499
0.00765559
0.0076374
0.00791243
0.00906555
0.0101559
0.0101635
0.00961319
0.00951212
0.010019
0.0107381
0.0116562
0.0129299
0.00033882
0.00145289
0.00187056
0.00201412
0.00230007
0.00299772
0.00477061
0.00672343
0.00751545
0.00748617
0.00769
0.00873505
0.00980289
0.0098348
0.00925417
0.00903086
0.00945811
0.0101912
0.0111718
0.0125013
0.000405484
0.00143914
0.00191018
0.00209117
0.00233892
0.00299976
0.00470522
0.00658333
0.0073625
0.00732864
0.00747221
0.00839685
0.00943048
0.00949356
0.00889846
0.00856982
0.00890508
0.00963645
0.010664
0.0120661
0.000475377
0.0014273
0.00194378
0.00216471
0.00237571
0.00299859
0.00463648
0.00643802
0.00720119
0.00716388
0.00725295
0.00804925
0.00904055
0.00914202
0.00854523
0.00812681
0.00836077
0.00907447
0.0101497
0.0116267
0.000548847
0.00141881
0.0019702
0.00223422
0.00241094
0.00299032
0.00456322
0.00628888
0.00703336
0.00699102
0.00703295
0.00770014
0.00863294
0.00877685
0.00818696
0.00769325
0.00783047
0.00851604
0.00961836
0.0111764
0.000624079
0.00141443
0.00199069
0.00229861
0.00244136
0.00299498
0.00448734
0.00613214
0.00685723
0.00680895
0.00681282
0.00735583
0.00820862
0.00839312
0.00782754
0.00727705
0.00731593
0.00795572
0.00908282
0.0107185
0.000701471
0.00141344
0.00200665
0.00235707
0.00246752
0.00297538
0.00441122
0.00597181
0.00667916
0.00662053
0.00659079
0.00701567
0.00777104
0.00799108
0.00746428
0.00687477
0.0068187
0.00740351
0.00853937
0.0102519
0.000783365
0.00141585
0.00201716
0.00240902
0.0024963
0.00294657
0.00430353
0.00580786
0.00650419
0.0064281
0.00636293
0.00668388
0.00732791
0.00756869
0.00709264
0.0064825
0.00634229
0.00686471
0.00800195
0.00978171
0.000864568
0.00142269
0.00202448
0.00245624
0.00251823
0.00290303
0.00419761
0.0056655
0.00632872
0.0062314
0.00612706
0.00636047
0.00688395
0.00712757
0.00671002
0.00609773
0.0058887
0.00634592
0.0074726
0.00930877
0.000946926
0.00143556
0.00202669
0.00249473
0.00253468
0.00286008
0.00408635
0.0054944
0.00614862
0.00603231
0.00588384
0.00604165
0.00644522
0.00667051
0.00631042
0.00571664
0.00545427
0.00584472
0.00695477
0.00883631
0.00103132
0.00145238
0.00202213
0.00252354
0.00255269
0.00281466
0.00396638
0.00531754
0.00596253
0.00583294
0.0056306
0.00572279
0.00601317
0.00619927
0.00589407
0.00533201
0.00503352
0.00536661
0.00645657
0.00837139
0.00111458
0.00147254
0.00201405
0.00254324
0.00256829
0.00276859
0.00384215
0.00512773
0.0057641
0.00562792
0.00536777
0.00539895
0.0055916
0.00572542
0.00546304
0.00494197
0.0046303
0.00491534
0.00597829
0.00791423
0.00119696
0.00149782
0.00200227
0.00255137
0.00258268
0.00272479
0.00371061
0.00492455
0.00554843
0.00541804
0.00510328
0.00507335
0.00518395
0.00525536
0.0050186
0.00454344
0.00423526
0.00448261
0.00551803
0.00746612
0.00127811
0.00152695
0.00198711
0.00254929
0.00259496
0.00268104
0.0035706
0.0047108
0.00531998
0.00520685
0.00484358
0.00474483
0.00478279
0.00478822
0.00456374
0.00413284
0.00384161
0.00406686
0.00507879
0.00703239
0.00135704
0.00155937
0.00197096
0.00253746
0.00260112
0.00263679
0.00342841
0.00449081
0.0050792
0.00498923
0.00458686
0.00441047
0.0043832
0.00432824
0.00410492
0.0037141
0.00344901
0.00366633
0.00465961
0.00661154
0.0014333
0.00159491
0.00195462
0.00251542
0.00259957
0.00259298
0.00328499
0.00426536
0.00482353
0.0047579
0.00433119
0.00407487
0.00398651
0.00387751
0.00364676
0.00328999
0.00305411
0.00327439
0.00425519
0.00620206
0.00150654
0.00163294
0.00193865
0.00248393
0.00258914
0.00254857
0.00314039
0.00403491
0.00455519
0.00451068
0.00407738
0.00374504
0.00359231
0.00343366
0.00319061
0.00286138
0.00265536
0.00288674
0.00386196
0.00580368
0.00157643
0.00167275
0.0019237
0.00244386
0.00256832
0.00250216
0.00299552
0.00380147
0.00427741
0.00424687
0.00382279
0.00342268
0.00320009
0.00299442
0.00273747
0.00243076
0.00225391
0.0025011
0.00347649
0.00541436
0.00164268
0.00171355
0.0019102
0.00239609
0.0025362
0.00245278
0.00285098
0.00356602
0.00399275
0.00396598
0.00356159
0.00310725
0.00281291
0.00256083
0.00228811
0.00199934
0.0018504
0.00211591
0.0030955
0.00503145
0.00170502
0.00175455
0.0018985
0.00234173
0.00249217
0.00239879
0.00270688
0.00332931
0.00370355
0.00366974
0.00328962
0.00279812
0.00243467
0.00213413
0.00184201
0.00156794
0.00144604
0.00173046
0.00271592
0.00465182
0.00176329
0.001795
0.00188846
0.00228186
0.00243619
0.00233859
0.00256325
0.00309206
0.00341197
0.0033611
0.00300389
0.00249286
0.00206654
0.00171475
0.00139985
0.00113733
0.00104039
0.001344
0.0023371
0.00427458
0.00181736
0.00183415
0.00187992
0.0022175
0.00236844
0.00227066
0.00241972
0.00285467
0.00311971
0.00304363
0.00270307
0.00218761
0.00170792
0.00130497
0.000963782
0.000706699
0.000631503
0.000955679
0.00195953
0.00390042
0.00186717
0.00187122
0.0018725
0.00214982
0.00228949
0.00219359
0.00227583
0.00261749
0.00282772
0.00272085
0.00238739
0.00187783
0.00135787
0.000906828
0.000534529
0.000275778
0.000220113
0.000566308
0.00158315
0.0035286
0.00191274
0.00190557
0.00186563
0.00207972
0.00220016
0.00210635
0.00213093
0.00238109
0.00253637
0.00239601
0.00205882
0.00155998
0.00101403
0.000520023
0.000113566
-0.000153062
-0.000193285
0.000174435
0.00120634
0.00315832
0.00195398
0.00193658
0.00185872
0.00200813
0.00210156
0.00200823
0.00198413
0.00214553
0.00224536
0.0020716
0.00172082
0.00123261
0.000672572
0.000143205
-0.000296723
-0.000577246
-0.000608662
-0.000221547
0.000827732
0.00278937
0.00199094
0.00196383
0.00185093
0.00193564
0.001995
0.00189888
0.00183441
0.00191143
0.00195427
0.00174937
0.00137767
0.000894519
0.000329552
-0.00022544
-0.000695728
-0.000994967
-0.0010247
-0.000621546
0.000446399
0.00242087
0.00202358
0.00198692
0.00184159
0.00186275
0.00188183
0.00177823
0.00168042
0.00167931
0.00166291
0.00142994
0.00103316
0.000546647
-1.77291e-05
-0.00058865
-0.0010847
-0.00140484
-0.00143862
-0.00102418
6.14843e-05
0.0020503
0.00205188
0.00200555
0.00182992
0.00178965
0.0017637
0.00164699
0.00152075
0.0014494
0.00137182
0.00111236
0.000690281
0.000192569
-0.000371372
-0.000950697
-0.0014658
-0.0018061
-0.00184843
-0.00142807
-0.000327766
0.00167736
0.00207588
0.00201963
0.00181537
0.00171617
0.001642
0.00150634
0.00135422
0.00122161
0.00108205
0.000794766
0.000351079
-0.000163582
-0.000730839
-0.00131425
-0.00184169
-0.00219929
-0.00225308
-0.00183273
-0.00072144
0.00130051
0.00209562
0.00202898
0.00179733
0.00164206
0.00151808
0.00135822
0.00118053
0.000995115
0.000795105
0.000476022
1.41146e-05
-0.000519461
-0.00109431
-0.00168016
-0.00221429
-0.00258522
-0.00265118
-0.00223479
-0.00111678
0.000919852
0.00211097
0.00203382
0.00177567
0.00156698
0.00139247
0.00120392
0.000999621
0.000768678
0.000513534
0.000158324
-0.000321932
-0.000873433
-0.00145956
-0.00205021
-0.0025871
-0.00296786
-0.00304503
-0.0026341
-0.001512
0.00053688
0.00212211
0.00203418
0.0017502
0.00149145
0.00126629
0.00104477
0.000811695
0.000539265
0.000235809
-0.000156908
-0.000657167
-0.0012234
-0.00182238
-0.00242151
-0.00296353
-0.00335032
-0.00343609
-0.00303151
-0.00190848
0.000149644
0.00212876
0.00203004
0.00172037
0.00141474
0.00114075
0.000883715
0.00062066
0.000306536
-4.03046e-05
-0.000469374
-0.000993933
-0.00157298
-0.00218137
-0.00278845
-0.00333865
-0.00373145
-0.00382397
-0.00342564
-0.00230459
-0.00024121
0.00213113
0.00202219
0.00168688
0.00133651
0.00101441
0.000719876
0.000427724
7.41176e-05
-0.000312216
-0.000774484
-0.001331
-0.00192765
-0.00254122
-0.00315943
-0.00371543
-0.0041152
-0.00421421
-0.00382067
-0.00270112
-0.000633713
0.00212891
0.00201037
0.00165083
0.00125888
0.000889423
0.000552969
0.000230353
-0.000160152
-0.000583217
-0.00106909
-0.00165634
-0.0022879
-0.00292362
-0.00353614
-0.0040934
-0.00449876
-0.00460588
-0.00421963
-0.00310295
-0.00103338
0.00212191
0.00199509
0.00161154
0.00118132
0.000769275
0.000387638
3.1713e-05
-0.000395007
-0.00086092
-0.00136355
-0.00196934
-0.0026064
-0.00327063
-0.00390702
-0.00447382
-0.0048857
-0.00499895
-0.00461897
-0.00350589
-0.00143653
0.00211184
0.00196839
0.00156807
0.00110193
0.000651498
0.000224033
-0.000168689
-0.000626361
-0.00113594
-0.0016616
-0.00229693
-0.00295023
-0.00361892
-0.0042704
-0.00485259
-0.00527647
-0.00539897
-0.00502799
-0.00392288
-0.00185739
0.00209409
0.00197856
0.00153661
0.00103334
0.000542778
6.66759e-05
-0.000369024
-0.00085352
-0.00140579
-0.00193007
-0.00257998
-0.00327782
-0.00396886
-0.00463039
-0.00522183
-0.00566106
-0.0058017
-0.00544599
-0.00435036
-0.00228589
0.00206987
0.00190452
0.00147405
0.000959315
0.000430792
-9.33498e-05
-0.000568971
-0.00106707
-0.0016746
-0.00229141
-0.00289385
-0.00359337
-0.00431612
-0.00500469
-0.00560571
-0.00605375
-0.00621334
-0.00588007
-0.00480303
-0.00275212
0.00205619
0.00191947
0.0014545
0.000872982
0.000290284
-0.000289669
-0.000812467
-0.00129192
-0.00183316
-0.00250036
-0.00315544
-0.00386534
-0.00459996
-0.00531817
-0.00595116
-0.00641874
-0.00659441
-0.00628557
-0.00524304
-0.00322947
0.00196785
0.00182505
0.00148875
0.000949772
0.000263643
-0.000424338
-0.00104079
-0.00165496
-0.00223514
-0.0028367
-0.00349275
-0.00421757
-0.00496586
-0.00569168
-0.00633252
-0.00680285
-0.00697242
-0.00665522
-0.0056095
-0.00359976
0.00203089
0.00189279
0.0013608
0.000688031
3.05647e-05
-0.000583462
-0.00112
-0.00159289
-0.00227378
-0.00293941
-0.00363229
-0.00437537
-0.00516261
-0.00596373
-0.00671756
-0.00731918
-0.00761997
-0.00741975
-0.00647461
-0.00455269
0.00193456
0.00182092
0.00131422
0.000764168
0.000105632
-0.000710256
-0.00153219
-0.00223049
-0.00276239
-0.00336549
-0.00403866
-0.00472586
-0.00541807
-0.00604324
-0.00657125
-0.00694809
-0.00709634
-0.00684933
-0.00596495
-0.00417769
0.00203897
0.00178891
0.00127723
0.000580708
-0.000150476
-0.000769163
-0.00135342
-0.00181473
-0.00247387
-0.00320858
-0.00403583
-0.004878
-0.00579102
-0.00680327
-0.00781316
-0.0086774
-0.00922583
-0.0092545
-0.00850131
-0.00674141
0.00224646
0.00165443
0.0010457
0.000334797
-0.000366417
-0.00113659
-0.00185637
-0.00248656
-0.00309906
-0.00387383
-0.00457003
-0.00518482
-0.00557325
-0.00563112
-0.0053212
-0.00473922
-0.00406186
-0.00355088
-0.00356627
-0.00443193
0.00220331
0.0016814
0.00104683
0.000408045
-0.000149419
-0.000731432
-0.00128668
-0.00187986
-0.00255786
-0.00339179
-0.00438499
-0.00550435
-0.00671418
-0.00797926
-0.00923819
-0.0103362
-0.0111403
-0.0114283
-0.0109473
-0.00946646
0.00235181
0.00162058
0.00092779
0.000246168
-0.000325544
-0.0010271
-0.00179464
-0.00269498
-0.00354989
-0.00421908
-0.00484427
-0.00555971
-0.00621767
-0.00666227
-0.0067746
-0.00657126
-0.00613961
-0.0057781
-0.00586368
-0.00674838
0.0023383
0.00158939
0.000914664
0.000312683
-9.72639e-05
-0.000514001
-0.000968655
-0.00157282
-0.00235402
-0.0033981
-0.00472847
-0.00639129
-0.0082901
-0.0102506
-0.0120599
-0.0135568
-0.0145522
-0.0148643
-0.0142729
-0.0125882
0.0506779
0.0213837
0.0093769
0.0065687
0.00512411
0.00354911
0.00222767
0.00110394
-0.000101487
-0.00133365
-0.0024799
-0.00358941
-0.00469803
-0.00568868
-0.00657654
-0.00753685
-0.00854689
-0.00949417
-0.0104704
-0.0115266
-0.0125829
-0.0136253
-0.0147257
-0.0158459
-0.0169627
-0.0180613
-0.0192219
-0.020492
-0.0218086
-0.0231429
-0.024496
-0.0258867
-0.0273262
-0.0288691
-0.0304393
-0.0320815
-0.0337817
-0.0355497
-0.0373862
-0.0392687
-0.0412563
-0.0432542
-0.0454011
-0.0475656
-0.0499099
-0.0523045
-0.054852
-0.0576051
-0.0603752
-0.0635764
0.0495058
0.0214305
0.00942299
0.00658771
0.00513431
0.00355588
0.00223268
0.00110791
-9.83012e-05
-0.00133109
-0.00247781
-0.00358767
-0.00469659
-0.00568748
-0.00657549
-0.00753592
-0.00854608
-0.00949345
-0.0104697
-0.0115259
-0.0125823
-0.0136247
-0.0147252
-0.0158455
-0.0169623
-0.0180609
-0.0192215
-0.0204917
-0.0218083
-0.0231427
-0.0244957
-0.0258865
-0.027326
-0.0288689
-0.0304391
-0.0320813
-0.0337816
-0.0355496
-0.037386
-0.0392686
-0.0412561
-0.0432541
-0.045401
-0.0475655
-0.0499099
-0.0523044
-0.0548519
-0.057605
-0.0603752
-0.0635764
0.0485627
0.0215325
0.00949517
0.00661135
0.00514543
0.00356263
0.00223747
0.00111168
-9.53285e-05
-0.00132876
-0.00247591
-0.00358609
-0.00469531
-0.00568643
-0.00657455
-0.00753509
-0.00854537
-0.00949282
-0.0104691
-0.0115254
-0.0125818
-0.0136243
-0.0147248
-0.0158451
-0.0169619
-0.0180606
-0.0192212
-0.0204914
-0.021808
-0.0231424
-0.0244955
-0.0258863
-0.0273259
-0.0288687
-0.030439
-0.0320812
-0.0337814
-0.0355494
-0.0373859
-0.0392685
-0.041256
-0.043254
-0.0454009
-0.0475654
-0.0499098
-0.0523043
-0.0548518
-0.0576049
-0.0603752
-0.0635764
0.047711
0.0216553
0.00959651
0.00664609
0.00516074
0.00357107
0.00224311
0.00111601
-9.19917e-05
-0.00132617
-0.00247381
-0.00358436
-0.00469393
-0.00568531
-0.00657356
-0.00753422
-0.00854464
-0.00949217
-0.0104685
-0.0115249
-0.0125814
-0.0136238
-0.0147244
-0.0158447
-0.0169616
-0.0180603
-0.0192209
-0.0204912
-0.0218078
-0.0231422
-0.0244953
-0.0258861
-0.0273257
-0.0288686
-0.0304388
-0.032081
-0.0337813
-0.0355493
-0.0373858
-0.0392684
-0.0412559
-0.0432539
-0.0454008
-0.0475653
-0.0499097
-0.0523042
-0.0548518
-0.0576049
-0.0603752
-0.0635765
0.0468538
0.0217795
0.00972011
0.00669231
0.00518177
0.00358249
0.00225047
0.00112149
-8.78146e-05
-0.00132293
-0.00247117
-0.00358217
-0.00469221
-0.00568396
-0.0065724
-0.00753323
-0.00854382
-0.00949145
-0.0104679
-0.0115243
-0.0125809
-0.0136234
-0.014724
-0.0158443
-0.0169612
-0.01806
-0.0192206
-0.0204909
-0.0218075
-0.023142
-0.0244951
-0.0258859
-0.0273255
-0.0288684
-0.0304387
-0.0320809
-0.0337812
-0.0355492
-0.0373857
-0.0392683
-0.0412558
-0.0432538
-0.0454007
-0.0475652
-0.0499096
-0.0523042
-0.0548517
-0.0576048
-0.0603752
-0.0635767
0.04598
0.0219016
0.0098562
0.0067454
0.00520724
0.00359687
0.00225979
0.00112834
-8.25926e-05
-0.00131882
-0.00246776
-0.0035793
-0.00468992
-0.00568221
-0.00657099
-0.00753206
-0.00854284
-0.00949061
-0.0104672
-0.0115237
-0.0125803
-0.0136229
-0.0147235
-0.0158439
-0.0169608
-0.0180596
-0.0192202
-0.0204906
-0.0218072
-0.0231417
-0.0244949
-0.0258857
-0.0273253
-0.0288682
-0.0304385
-0.0320807
-0.033781
-0.0355491
-0.0373856
-0.0392681
-0.0412557
-0.0432537
-0.0454006
-0.0475651
-0.0499095
-0.0523041
-0.0548516
-0.0576048
-0.0603752
-0.0635769
0.0450956
0.0220198
0.00999861
0.00680122
0.00523493
0.00361331
0.00227079
0.00113649
-7.63288e-05
-0.00131376
-0.00246347
-0.0035756
-0.00468689
-0.00567989
-0.00656922
-0.00753064
-0.00854166
-0.00948963
-0.0104663
-0.011523
-0.0125797
-0.0136223
-0.014723
-0.0158435
-0.0169604
-0.0180592
-0.0192198
-0.0204902
-0.0218069
-0.0231414
-0.0244946
-0.0258854
-0.0273251
-0.028868
-0.0304383
-0.0320806
-0.0337809
-0.0355489
-0.0373854
-0.039268
-0.0412556
-0.0432536
-0.0454005
-0.047565
-0.0499094
-0.052304
-0.0548515
-0.0576047
-0.0603752
-0.0635772
0.0442055
0.0221317
0.0101448
0.00685783
0.00526333
0.00363089
0.00228295
0.00114567
-6.91915e-05
-0.00130788
-0.00245835
-0.00357105
-0.00468301
-0.00567688
-0.00656699
-0.00752891
-0.00854024
-0.00948846
-0.0104654
-0.0115222
-0.0125789
-0.0136216
-0.0147224
-0.015843
-0.0169599
-0.0180587
-0.0192193
-0.0204898
-0.0218066
-0.0231411
-0.0244943
-0.0258852
-0.0273248
-0.0288678
-0.0304381
-0.0320804
-0.0337807
-0.0355488
-0.0373853
-0.0392679
-0.0412555
-0.0432535
-0.0454004
-0.0475649
-0.0499093
-0.0523039
-0.0548514
-0.0576045
-0.0603751
-0.0635775
0.043312
0.0222352
0.0102944
0.00691478
0.00529167
0.00364896
0.00229581
0.00115557
-6.14086e-05
-0.00130136
-0.00245255
-0.00356577
-0.00467838
-0.00567315
-0.00656422
-0.00752683
-0.00853856
-0.00948711
-0.0104643
-0.0115212
-0.0125781
-0.0136209
-0.0147218
-0.0158424
-0.0169594
-0.0180582
-0.0192188
-0.0204893
-0.0218062
-0.0231408
-0.024494
-0.0258849
-0.0273245
-0.0288675
-0.0304379
-0.0320802
-0.0337805
-0.0355486
-0.0373852
-0.0392677
-0.0412553
-0.0432534
-0.0454002
-0.0475648
-0.0499092
-0.0523038
-0.0548513
-0.0576044
-0.060375
-0.0635778
0.0424162
0.0223292
0.0104475
0.00697202
0.00531952
0.00366711
0.00230903
0.00116594
-5.31841e-05
-0.0012944
-0.00244626
-0.00355998
-0.00467317
-0.00566879
-0.00656091
-0.00752436
-0.00853661
-0.00948559
-0.0104631
-0.0115201
-0.012577
-0.0136199
-0.014721
-0.0158417
-0.0169589
-0.0180577
-0.0192182
-0.0204888
-0.0218058
-0.0231404
-0.0244936
-0.0258845
-0.0273242
-0.0288672
-0.0304377
-0.03208
-0.0337804
-0.0355484
-0.037385
-0.0392676
-0.0412552
-0.0432532
-0.0454001
-0.0475647
-0.0499091
-0.0523036
-0.0548511
-0.0576042
-0.0603749
-0.0635783
0.0415194
0.0224129
0.0106042
0.00702952
0.00534653
0.00368508
0.00232233
0.00117656
-4.46896e-05
-0.00128716
-0.00243963
-0.00355385
-0.0046676
-0.00566398
-0.0065571
-0.00752152
-0.00853441
-0.00948394
-0.0104617
-0.0115188
-0.0125758
-0.0136188
-0.01472
-0.0158409
-0.0169583
-0.0180572
-0.0192176
-0.0204882
-0.0218052
-0.0231399
-0.0244932
-0.0258842
-0.0273239
-0.0288669
-0.0304374
-0.0320797
-0.0337801
-0.0355482
-0.0373848
-0.0392675
-0.0412551
-0.0432531
-0.0454
-0.0475645
-0.0499089
-0.0523035
-0.054851
-0.0576039
-0.0603747
-0.0635787
0.040623
0.0224854
0.0107644
0.00708726
0.00537241
0.00370269
0.00233555
0.00118719
-3.60877e-05
-0.00127977
-0.00243279
-0.0035475
-0.00466183
-0.00565889
-0.00655293
-0.00751833
-0.00853198
-0.00948217
-0.0104604
-0.0115175
-0.0125745
-0.0136176
-0.0147189
-0.01584
-0.0169576
-0.0180567
-0.019217
-0.0204875
-0.0218046
-0.0231393
-0.0244928
-0.0258838
-0.0273235
-0.0288666
-0.0304371
-0.0320794
-0.0337799
-0.035548
-0.0373847
-0.0392673
-0.0412549
-0.043253
-0.0453998
-0.0475644
-0.0499087
-0.0523033
-0.0548507
-0.0576036
-0.0603744
-0.0635792
0.0397283
0.0225458
0.010928
0.00714531
0.005397
0.00371987
0.00234856
0.00119763
-2.75445e-05
-0.00127234
-0.00242582
-0.00354099
-0.00465593
-0.00565367
-0.0065485
-0.00751487
-0.00852937
-0.00948032
-0.010459
-0.0115161
-0.012573
-0.0136162
-0.0147175
-0.0158388
-0.0169569
-0.0180562
-0.0192164
-0.0204868
-0.0218038
-0.0231386
-0.0244922
-0.0258834
-0.0273231
-0.0288662
-0.0304367
-0.0320791
-0.0337796
-0.0355478
-0.0373844
-0.0392671
-0.0412548
-0.0432528
-0.0453997
-0.0475642
-0.0499086
-0.0523031
-0.0548505
-0.0576032
-0.0603741
-0.0635798
0.0388368
0.0225931
0.0110945
0.00720388
0.00542032
0.00373675