/*--------------------------------*- C++ -*----------------------------------*\
| =========                 |                                                 |
| \\      /  F ield         | OpenFOAM: The Open Source CFD Toolbox           |
|  \\    /   O peration     | Version:  v2012                                 |
|   \\  /    A nd           | Website:  www.openfoam.com                      |
|    \\/     M anipulation  |                                                 |
\*---------------------------------------------------------------------------*/
FoamFile
{
    version     2.0;
    format      ascii;
    class       surfaceScalarField;
    location    "5.6";
    object      phi;
}
// * * * * * * * * * * * * * * * * * * * * * * * * * * * * * * * * * * * * * //

dimensions      [0 3 -1 0 0 0 0];
oriented        oriented;


internalField   nonuniform List<scalar> 
13830
(
9.09497e-07
3.25788e-08
9.06272e-07
2.4412e-07
9.74521e-07
-2.81179e-06
1.03228e-06
-9.24993e-07
9.99222e-07
2.12195e-07
9.86754e-07
1.25823e-06
1.01009e-06
1.01992e-06
9.91663e-07
6.10642e-07
9.82714e-07
-1.59821e-07
9.83885e-07
-1.79248e-07
9.63943e-07
-6.83283e-07
9.48088e-07
-6.25374e-07
9.42039e-07
-9.39015e-07
9.32534e-07
-7.26843e-07
9.40064e-07
-6.9386e-07
9.27207e-07
-6.04547e-07
9.41989e-07
-4.09764e-07
9.23684e-07
-4.76002e-07
9.38037e-07
-2.62908e-07
-3.43337e-07
9.09444e-07
9.43645e-07
6.14653e-08
9.41335e-07
2.46431e-07
1.01216e-06
-2.88261e-06
1.06914e-06
-9.81982e-07
1.03679e-06
2.4455e-07
1.02898e-06
1.26604e-06
1.04491e-06
1.00399e-06
1.03629e-06
6.19261e-07
1.01852e-06
-1.42052e-07
1.02583e-06
-1.8655e-07
9.98374e-07
-6.5583e-07
9.88706e-07
-6.15705e-07
9.71646e-07
-9.21956e-07
9.71631e-07
-7.26828e-07
9.65054e-07
-6.87283e-07
9.66292e-07
-6.05784e-07
9.64978e-07
-4.08451e-07
9.62814e-07
-4.73838e-07
9.61081e-07
-2.61175e-07
-3.33783e-07
9.51527e-07
9.7932e-07
9.15991e-08
9.75771e-07
2.49979e-07
1.0455e-06
-2.95234e-06
1.10565e-06
-1.04213e-06
1.07572e-06
2.7448e-07
1.07413e-06
1.26763e-06
1.08242e-06
9.95704e-07
1.07811e-06
6.23571e-07
1.05821e-06
-1.22151e-07
1.06086e-06
-1.89203e-07
1.0346e-06
-6.29571e-07
1.02323e-06
-6.04332e-07
1.0029e-06
-9.01632e-07
1.00484e-06
-7.2877e-07
9.93853e-07
-6.76291e-07
9.99697e-07
-6.11628e-07
9.93909e-07
-4.02663e-07
9.97895e-07
-4.77823e-07
9.92044e-07
-2.55324e-07
-3.30892e-07
9.89154e-07
1.01797e-06
1.21409e-07
1.0114e-06
2.56546e-07
1.07437e-06
-3.01531e-06
1.13931e-06
-1.10708e-06
1.11689e-06
2.96905e-07
1.11992e-06
1.2646e-06
1.12476e-06
9.90865e-07
1.11882e-06
6.29511e-07
1.09936e-06
-1.02688e-07
1.09777e-06
-1.87617e-07
1.07414e-06
-6.05936e-07
1.06154e-06
-5.91737e-07
1.0408e-06
-8.80885e-07
1.04175e-06
-7.2972e-07
1.02951e-06
-6.64055e-07
1.0352e-06
-6.1732e-07
1.02796e-06
-3.95416e-07
1.03223e-06
-4.82103e-07
1.02565e-06
-2.48743e-07
-3.28522e-07
1.02328e-06
1.06034e-06
1.48623e-07
1.04942e-06
2.67463e-07
1.09993e-06
-3.06581e-06
1.16894e-06
-1.17609e-06
1.16029e-06
3.05555e-07
1.16666e-06
1.25823e-06
1.17048e-06
9.87043e-07
1.16112e-06
6.38871e-07
1.14161e-06
-8.31728e-08
1.13706e-06
-1.8307e-07
1.11543e-06
-5.84302e-07
1.10245e-06
-5.78765e-07
1.08129e-06
-8.59719e-07
1.0813e-06
-7.29735e-07
1.06854e-06
-6.51295e-07
1.07294e-06
-6.21719e-07
1.06549e-06
-3.87961e-07
1.06779e-06
-4.84403e-07
1.06178e-06
-2.42737e-07
-3.24506e-07
1.05777e-06
1.1067e-06
1.70766e-07
1.09094e-06
2.83222e-07
1.12521e-06
-3.10009e-06
1.19543e-06
-1.24631e-06
1.20462e-06
2.96363e-07
1.21541e-06
1.24744e-06
1.21828e-06
9.84172e-07
1.20573e-06
6.5142e-07
1.18473e-06
-6.21647e-08
1.17825e-06
-1.76594e-07
1.15768e-06
-5.63735e-07
1.14523e-06
-5.66312e-07
1.12331e-06
-8.37803e-07
1.12284e-06
-7.29265e-07
1.1095e-06
-6.37946e-07
1.11263e-06
-6.24849e-07
1.10517e-06
-3.80505e-07
1.10505e-06
-4.84279e-07
1.09975e-06
-2.37443e-07
-3.18529e-07
1.09377e-06
1.15656e-06
1.85903e-07
1.13668e-06
3.03106e-07
1.15359e-06
-3.117e-06
1.22153e-06
-1.31425e-06
1.24865e-06
2.69243e-07
1.2662e-06
1.22988e-06
1.26729e-06
9.83086e-07
1.25202e-06
6.66695e-07
1.22849e-06
-3.86413e-08
1.2205e-06
-1.686e-07
1.20056e-06
-5.438e-07
1.18928e-06
-5.55032e-07
1.16659e-06
-8.15108e-07
1.16601e-06
-7.28688e-07
1.15205e-06
-6.23983e-07
1.15413e-06
-6.26927e-07
1.14668e-06
-3.73059e-07
1.1443e-06
-4.81896e-07
1.13954e-06
-2.32685e-07
-3.1088e-07
1.13189e-06
1.20882e-06
1.9326e-07
1.18672e-06
3.2521e-07
1.18737e-06
-3.11764e-06
1.2504e-06
-1.37728e-06
1.29241e-06
2.27232e-07
1.31823e-06
1.20406e-06
1.31673e-06
9.84583e-07
1.29889e-06
6.84536e-07
1.27263e-06
-1.23821e-08
1.26335e-06
-1.59321e-07
1.24406e-06
-5.24506e-07
1.23446e-06
-5.45436e-07
1.21126e-06
-7.91904e-07
1.21074e-06
-7.28165e-07
1.19635e-06
-6.09592e-07
1.19742e-06
-6.28004e-07
1.19008e-06
-3.65719e-07
1.18565e-06
-4.77459e-07
1.1813e-06
-2.2834e-07
-3.01885e-07
1.17231e-06
1.26221e-06
1.93407e-07
1.24049e-06
3.46923e-07
1.22733e-06
-3.10448e-06
1.28408e-06
-1.43403e-06
1.3368e-06
1.7451e-07
1.37044e-06
1.17042e-06
1.36571e-06
9.89314e-07
1.34541e-06
7.04841e-07
1.3169e-06
1.61272e-08
1.30679e-06
-1.49217e-07
1.28834e-06
-5.06054e-07
1.28083e-06
-5.37924e-07
1.25752e-06
-7.68596e-07
1.25705e-06
-7.27694e-07
1.24255e-06
-5.95095e-07
1.24251e-06
-6.27965e-07
1.23548e-06
-3.58684e-07
1.22912e-06
-4.711e-07
1.22516e-06
-2.2438e-07
-2.91798e-07
1.21507e-06
1.31574e-06
1.87948e-07
1.29701e-06
3.65654e-07
1.27295e-06
-3.08043e-06
1.32265e-06
-1.48374e-06
1.38202e-06
1.15149e-07
1.42146e-06
1.13097e-06
1.41313e-06
9.97645e-07
1.39094e-06
7.27036e-07
1.36122e-06
4.58464e-08
1.35107e-06
-1.39069e-07
1.33368e-06
-4.8866e-07
1.32852e-06
-5.32762e-07
1.30551e-06
-7.45588e-07
1.30499e-06
-7.27178e-07
1.29075e-06
-5.80856e-07
1.2894e-06
-6.26616e-07
1.28292e-06
-3.52201e-07
1.27475e-06
-4.62933e-07
1.27117e-06
-2.20802e-07
-2.80854e-07
1.26023e-06
1.36902e-06
1.78947e-07
1.35518e-06
3.795e-07
1.32306e-06
-3.04831e-06
1.36471e-06
-1.52538e-06
1.42679e-06
5.30592e-08
1.46945e-06
1.08831e-06
1.45792e-06
1.00917e-06
1.4353e-06
7.4966e-07
1.40582e-06
7.5324e-08
1.3966e-06
-1.29848e-07
1.38039e-06
-4.72452e-07
1.37768e-06
-5.30044e-07
1.35531e-06
-7.23225e-07
1.3546e-06
-7.26469e-07
1.34097e-06
-5.67219e-07
1.33811e-06
-6.23761e-07
1.33242e-06
-3.46513e-07
1.32263e-06
-4.53135e-07
1.3194e-06
-2.17572e-07
-2.69314e-07
1.30786e-06
1.42224e-06
1.68356e-07
1.41411e-06
3.8763e-07
1.3764e-06
-3.0106e-06
1.40852e-06
-1.5575e-06
1.46922e-06
-7.64183e-09
1.51271e-06
1.04483e-06
1.49955e-06
1.02233e-06
1.47885e-06
7.70364e-07
1.45123e-06
1.02949e-07
1.44386e-06
-1.22479e-07
1.42882e-06
-4.5742e-07
1.42845e-06
-5.29675e-07
1.40701e-06
-7.01782e-07
1.40592e-06
-7.25375e-07
1.3932e-06
-5.54497e-07
1.38868e-06
-6.19244e-07
1.38398e-06
-3.41816e-07
1.37281e-06
-4.41962e-07
1.36986e-06
-2.14623e-07
-2.57463e-07
1.35801e-06
1.47598e-06
1.57627e-07
1.47331e-06
3.90297e-07
1.43201e-06
-2.9693e-06
1.4533e-06
-1.57879e-06
1.50843e-06
-6.27756e-08
1.55088e-06
1.00238e-06
1.53861e-06
1.0346e-06
1.52255e-06
7.86424e-07
1.49816e-06
1.27339e-07
1.49331e-06
-1.17629e-07
1.4793e-06
-4.43406e-07
1.48098e-06
-5.31359e-07
1.46066e-06
-6.81465e-07
1.45897e-06
-7.23677e-07
1.44743e-06
-5.42961e-07
1.44117e-06
-6.12979e-07
1.43757e-06
-3.38224e-07
1.42534e-06
-4.29732e-07
1.42259e-06
-2.11867e-07
-2.45587e-07
1.41071e-06
1.53093e-06
1.47568e-07
1.53271e-06
3.88522e-07
1.48936e-06
-2.92596e-06
1.49948e-06
-1.58891e-06
1.54561e-06
-1.08903e-07
1.58568e-06
9.62312e-07
1.57692e-06
1.04336e-06
1.56779e-06
7.95554e-07
1.54741e-06
1.47716e-07
1.54536e-06
-1.1558e-07
1.53209e-06
-4.30138e-07
1.53536e-06
-5.34627e-07
1.51633e-06
-6.62431e-07
1.51379e-06
-7.21145e-07
1.50367e-06
-5.32836e-07
1.49566e-06
-6.04969e-07
1.49318e-06
-3.35741e-07
1.48024e-06
-4.16793e-07
1.47759e-06
-2.09221e-07
-2.33931e-07
1.46594e-06
1.58776e-06
1.38417e-07
1.59263e-06
3.8365e-07
1.54831e-06
-2.88163e-06
1.54833e-06
-1.58893e-06
1.58365e-06
-1.44226e-07
1.62049e-06
9.25471e-07
1.61702e-06
1.04683e-06
1.61597e-06
7.96603e-07
1.59962e-06
1.64074e-07
1.60026e-06
-1.16221e-07
1.58743e-06
-4.17314e-07
1.59169e-06
-5.38883e-07
1.57406e-06
-6.44807e-07
1.57046e-06
-7.17544e-07
1.56192e-06
-5.24288e-07
1.55228e-06
-5.95332e-07
1.55079e-06
-3.34252e-07
1.53748e-06
-4.03479e-07
1.53487e-06
-2.06619e-07
-2.22687e-07
1.52363e-06
1.64691e-06
1.30046e-07
1.65363e-06
3.76934e-07
1.60892e-06
-2.83692e-06
1.60107e-06
-1.58108e-06
1.62579e-06
-1.68941e-07
1.65909e-06
8.92166e-07
1.66133e-06
1.04459e-06
1.66815e-06
7.8978e-07
1.65517e-06
1.77052e-07
1.6581e-06
-1.19144e-07
1.64547e-06
-4.04691e-07
1.65007e-06
-5.43474e-07
1.63397e-06
-6.28716e-07
1.62907e-06
-7.12636e-07
1.62216e-06
-5.1738e-07
1.61115e-06
-5.84321e-07
1.61044e-06
-3.33543e-07
1.59705e-06
-3.90093e-07
1.59445e-06
-2.04021e-07
-2.11986e-07
1.58375e-06
1.70861e-06
1.22186e-07
1.71626e-06
3.69281e-07
1.67136e-06
-2.79202e-06
1.65834e-06
-1.56805e-06
1.67424e-06
-1.84847e-07
1.70422e-06
8.62186e-07
1.71136e-06
1.03746e-06
1.72478e-06
7.76363e-07
1.71422e-06
1.8761e-07
1.71887e-06
-1.23791e-07
1.70634e-06
-3.92159e-07
1.71061e-06
-5.47749e-07
1.69619e-06
-6.14291e-07
1.68974e-06
-7.06191e-07
1.68439e-06
-5.12032e-07
1.67234e-06
-5.72273e-07
1.67216e-06
-3.33359e-07
1.65895e-06
-3.76886e-07
1.65635e-06
-2.01418e-07
-2.01908e-07
1.64627e-06
1.77291e-06
1.14593e-07
1.781e-06
3.61186e-07
1.73581e-06
-2.74683e-06
1.72006e-06
-1.5523e-06
1.72971e-06
-1.94495e-07
1.75697e-06
8.34924e-07
1.76753e-06
1.0269e-06
1.78577e-06
7.58127e-07
1.77671e-06
1.96666e-07
1.7825e-06
-1.29579e-07
1.77011e-06
-3.79769e-07
1.77347e-06
-5.5111e-07
1.76085e-06
-6.01672e-07
1.75268e-06
-6.98023e-07
1.74868e-06
-5.08033e-07
1.73594e-06
-5.59524e-07
1.73601e-06
-3.33434e-07
1.72318e-06
-3.64056e-07
1.72059e-06
-1.98823e-07
-1.92504e-07
1.71118e-06
1.8398e-06
1.07127e-07
1.84819e-06
3.52802e-07
1.80242e-06
-2.70106e-06
1.78573e-06
-1.53562e-06
1.79161e-06
-2.00371e-07
1.81695e-06
8.09582e-07
1.82938e-06
1.01446e-06
1.85072e-06
7.36789e-07
1.84253e-06
2.04856e-07
1.84893e-06
-1.35977e-07
1.83688e-06
-3.6772e-07
1.83879e-06
-5.53027e-07
1.82806e-06
-5.90933e-07
1.81812e-06
-6.88088e-07
1.81512e-06
-5.05036e-07
1.80198e-06
-5.4638e-07
1.80205e-06
-3.33507e-07
1.78974e-06
-3.51748e-07
1.78718e-06
-1.9626e-07
-1.83799e-07
1.77848e-06
1.90928e-06
9.97494e-08
1.91801e-06
3.44065e-07
1.87135e-06
-2.65439e-06
1.85477e-06
-1.51904e-06
1.8588e-06
-2.04398e-07
1.88301e-06
7.85374e-07
1.89609e-06
1.00138e-06
1.91919e-06
7.13696e-07
1.91158e-06
2.12461e-07
1.91813e-06
-1.4253e-07
1.90674e-06
-3.56323e-07
1.90673e-06
-5.53023e-07
1.89783e-06
-5.82035e-07
1.88625e-06
-6.76504e-07
1.88384e-06
-5.02624e-07
1.87054e-06
-5.3308e-07
1.87037e-06
-3.33335e-07
1.85867e-06
-3.40047e-07
1.85615e-06
-1.93748e-07
-1.75801e-07
1.84816e-06
1.98136e-06
9.2492e-08
1.99062e-06
3.3481e-07
1.94276e-06
-2.60653e-06
1.92676e-06
-1.50304e-06
1.93018e-06
-2.0782e-07
1.95391e-06
7.61648e-07
1.96688e-06
9.88406e-07
1.99082e-06
6.89754e-07
1.98382e-06
2.19458e-07
1.99014e-06
-1.48845e-07
1.97979e-06
-3.45969e-07
1.97746e-06
-5.507e-07
1.97028e-06
-5.7485e-07
1.95722e-06
-6.63452e-07
1.95496e-06
-5.00364e-07
1.94169e-06
-5.19803e-07
1.94105e-06
-3.32699e-07
1.92998e-06
-3.28977e-07
1.92753e-06
-1.91295e-07
-1.68496e-07
1.92022e-06
2.05612e-06
8.54226e-08
2.06608e-06
3.24846e-07
2.01683e-06
-2.55728e-06
2.00149e-06
-1.48771e-06
2.00496e-06
-2.11295e-07
2.02868e-06
7.37928e-07
2.0412e-06
9.75888e-07
2.06543e-06
6.65524e-07
2.05927e-06
2.25624e-07
2.06499e-06
-1.54571e-07
2.05609e-06
-3.3707e-07
2.05122e-06
-5.4583e-07
2.04547e-06
-5.691e-07
2.03119e-06
-6.49173e-07
2.02865e-06
-4.97821e-07
2.01551e-06
-5.06663e-07
2.01426e-06
-3.31444e-07
2.00375e-06
-3.18468e-07
2.00134e-06
-1.88887e-07
-1.61853e-07
1.9947e-06
2.13364e-06
7.86232e-08
2.14449e-06
3.14e-07
2.09375e-06
-2.50655e-06
2.07895e-06
-1.47291e-06
2.08271e-06
-2.15053e-07
2.10674e-06
7.13899e-07
2.11876e-06
9.63869e-07
2.14295e-06
6.41334e-07
2.13794e-06
2.30629e-07
2.14273e-06
-1.59356e-07
2.13559e-06
-3.29927e-07
2.12822e-06
-5.38464e-07
2.12351e-06
-5.64386e-07
2.10828e-06
-6.33949e-07
2.10507e-06
-4.94612e-07
2.0921e-06
-4.93691e-07
2.09014e-06
-3.29482e-07
2.08008e-06
-3.08409e-07
2.07767e-06
-1.86478e-07
-1.55824e-07
2.07164e-06
2.21403e-06
7.21785e-08
2.22589e-06
3.02137e-07
2.17372e-06
-2.45437e-06
2.15926e-06
-1.45845e-06
2.16323e-06
-2.19029e-07
2.18774e-06
6.8939e-07
2.19943e-06
9.52175e-07
2.22337e-06
6.17397e-07
2.21993e-06
2.34074e-07
2.22337e-06
-1.62803e-07
2.21818e-06
-3.24733e-07
2.20858e-06
-5.28865e-07
2.20445e-06
-5.60254e-07
2.18859e-06
-6.18086e-07
2.18441e-06
-4.90435e-07
2.17156e-06
-4.80848e-07
2.16885e-06
-3.26765e-07
2.15909e-06
-2.98652e-07
2.15664e-06
-1.84026e-07
-1.50334e-07
2.15115e-06
2.2974e-06
6.61694e-08
2.31037e-06
2.89169e-07
2.25689e-06
-2.40089e-06
2.24255e-06
-1.4441e-06
2.24648e-06
-2.2296e-07
2.27153e-06
6.64338e-07
2.28322e-06
9.40487e-07
2.30675e-06
5.93867e-07
2.30529e-06
2.35533e-07
2.30709e-06
-1.64604e-07
2.30387e-06
-3.21515e-07
2.29239e-06
-5.17386e-07
2.28838e-06
-5.56248e-07
2.27219e-06
-6.01887e-07
2.26681e-06
-4.85057e-07
2.25404e-06
-4.68083e-07
2.25055e-06
-3.23275e-07
2.24089e-06
-2.88987e-07
2.23841e-06
-1.8155e-07
-1.45272e-07
2.23335e-06
2.38389e-06
6.06646e-08
2.398e-06
2.7506e-07
2.34342e-06
-2.34632e-06
2.32898e-06
-1.42965e-06
2.33248e-06
-2.26465e-07
2.35806e-06
6.38762e-07
2.37016e-06
9.28383e-07
2.39313e-06
5.70902e-07
2.39406e-06
2.34597e-07
2.39413e-06
-1.64667e-07
2.39268e-06
-3.20065e-07
2.37973e-06
-5.04438e-07
2.37541e-06
-5.51926e-07
2.35917e-06
-5.85653e-07
2.35241e-06
-4.78295e-07
2.33968e-06
-4.55352e-07
2.33528e-06
-3.18877e-07
2.32545e-06
-2.7916e-07
2.32319e-06
-1.79291e-07
-1.40507e-07
2.31843e-06
2.47363e-06
5.57121e-08
2.48887e-06
2.59816e-07
2.43341e-06
-2.29085e-06
2.41868e-06
-1.41493e-06
2.42134e-06
-2.29117e-07
2.44737e-06
6.12725e-07
2.46039e-06
9.15365e-07
2.48259e-06
5.48704e-07
2.48628e-06
2.30911e-07
2.48461e-06
-1.62998e-07
2.48464e-06
-3.20098e-07
2.47066e-06
-4.9046e-07
2.46561e-06
-5.46871e-07
2.44962e-06
-5.69663e-07
2.44134e-06
-4.70019e-07
2.42871e-06
-4.42718e-07
2.42264e-06
-3.12809e-07
2.41257e-06
-2.6909e-07
2.41121e-06
-1.77926e-07
-1.35923e-07
2.40662e-06
2.56678e-06
5.13308e-08
2.58311e-06
2.43484e-07
2.52693e-06
-2.23467e-06
2.51178e-06
-1.39978e-06
2.51319e-06
-2.30523e-07
2.53958e-06
5.86329e-07
2.55409e-06
9.00858e-07
2.57528e-06
5.27515e-07
2.58188e-06
2.2431e-07
2.57863e-06
-1.59744e-07
2.57981e-06
-3.21285e-07
2.56525e-06
-4.75896e-07
2.55915e-06
-5.40771e-07
2.54352e-06
-5.54038e-07
2.53375e-06
-4.60249e-07
2.52133e-06
-4.30297e-07
2.51886e-06
-3.10341e-07
2.51097e-06
-2.61199e-07
2.50266e-06
-1.6961e-07
-1.31421e-07
2.49816e-06
2.6635e-06
4.7506e-08
2.68085e-06
2.2614e-07
2.62405e-06
-2.17788e-06
2.60836e-06
-1.38409e-06
2.60824e-06
-2.304e-07
2.63487e-06
5.59697e-07
2.65145e-06
8.84282e-07
2.67142e-06
5.07542e-07
2.68089e-06
2.14837e-07
2.67632e-06
-1.55166e-07
2.67825e-06
-3.23215e-07
2.66358e-06
-4.61228e-07
2.65613e-06
-5.33325e-07
2.64098e-06
-5.38889e-07
2.63043e-06
-4.49692e-07
2.61549e-06
-4.15364e-07
2.60836e-06
-3.03204e-07
2.59847e-06
-2.51311e-07
2.5975e-06
-1.6864e-07
-1.2716e-07
2.59324e-06
2.76397e-06
4.41896e-08
2.78223e-06
2.07876e-07
2.72483e-06
-2.12048e-06
2.70853e-06
-1.36778e-06
2.70675e-06
-2.28624e-07
2.73349e-06
5.3296e-07
2.7526e-06
8.65169e-07
2.77127e-06
4.88873e-07
2.78335e-06
2.02755e-07
2.77786e-06
-1.49677e-07
2.77995e-06
-3.25301e-07
2.76588e-06
-4.4716e-07
2.75651e-06
-5.23949e-07
2.74233e-06
-5.24713e-07
2.73084e-06
-4.38203e-07
2.71449e-06
-3.99011e-07
2.70587e-06
-2.9459e-07
2.69591e-06
-2.41347e-07
2.69649e-06
-1.69215e-07
-1.22745e-07
2.69207e-06
2.86834e-06
4.13079e-08
2.88742e-06
1.88794e-07
2.82935e-06
-2.0624e-06
2.81238e-06
-1.35081e-06
2.80904e-06
-2.25277e-07
2.83569e-06
5.06312e-07
2.85771e-06
8.43144e-07
2.87505e-06
4.7153e-07
2.88934e-06
1.88466e-07
2.88338e-06
-1.43718e-07
2.88506e-06
-3.26978e-07
2.87227e-06
-4.34367e-07
2.86046e-06
-5.12138e-07
2.84747e-06
-5.11727e-07
2.8364e-06
-4.27135e-07
2.8269e-06
-3.8951e-07
2.82264e-06
-2.90329e-07
2.81408e-06
-2.32783e-07
2.79995e-06
-1.55089e-07
-1.176e-07
2.7948e-06
2.97677e-06
3.87774e-08
2.99658e-06
1.6899e-07
2.93772e-06
-2.00354e-06
2.92006e-06
-1.33316e-06
2.91542e-06
-2.20633e-07
2.94175e-06
4.79982e-07
2.96689e-06
8.17998e-07
2.98297e-06
4.55448e-07
2.999e-06
1.72438e-07
2.99291e-06
-1.37631e-07
2.99387e-06
-3.2793e-07
2.98261e-06
-4.2311e-07
2.96853e-06
-4.98057e-07
2.95658e-06
-4.99776e-07
2.94056e-06
-4.11122e-07
2.92464e-06
-3.73589e-07
2.9133e-06
-2.78985e-07
2.90357e-06
-2.2305e-07
2.90675e-06
-1.58277e-07
-1.12611e-07
2.90177e-06
3.08942e-06
3.65211e-08
3.10986e-06
1.4855e-07
3.05008e-06
-1.94377e-06
3.03171e-06
-1.31479e-06
3.0262e-06
-2.15122e-07
3.05193e-06
4.54253e-07
3.08027e-06
7.89659e-07
3.0952e-06
4.40513e-07
3.11246e-06
1.55181e-07
3.10654e-06
-1.31716e-07
3.10662e-06
-3.28004e-07
3.09655e-06
-4.13041e-07
3.08142e-06
-4.82931e-07
3.06966e-06
-4.88012e-07
3.05925e-06
-4.00713e-07
3.05134e-06
-3.65678e-07
3.04578e-06
-2.73421e-07
3.03675e-06
-2.14029e-07
3.01875e-06
-1.4027e-07
-1.07121e-07
3.01326e-06
3.2064e-06
3.44779e-08
3.2274e-06
1.27555e-07
3.16664e-06
-1.88301e-06
3.14747e-06
-1.29562e-06
3.14168e-06
-2.09333e-07
3.16647e-06
4.29466e-07
3.19796e-06
7.58173e-07
3.21186e-06
4.26609e-07
3.22989e-06
1.37153e-07
3.2243e-06
-1.26124e-07
3.22381e-06
-3.27523e-07
3.21319e-06
-4.02412e-07
3.20042e-06
-4.7017e-07
3.18655e-06
-4.74138e-07
3.17615e-06
-3.90311e-07
3.15184e-06
-3.41369e-07
3.13983e-06
-2.61409e-07
3.13133e-06
-2.05529e-07
3.13329e-06
-1.42235e-07
-1.03153e-07
3.12932e-06
3.32787e-06
3.26205e-08
3.34936e-06
1.06061e-07
3.2876e-06
-1.82125e-06
3.26756e-06
-1.27557e-06
3.26202e-06
-2.03797e-07
3.28571e-06
4.05782e-07
3.31989e-06
7.23986e-07
3.33338e-06
4.13123e-07
3.35108e-06
1.19448e-07
3.34695e-06
-1.21995e-07
3.34476e-06
-3.25327e-07
3.33537e-06
-3.93023e-07
3.32183e-06
-4.56626e-07
3.30121e-06
-4.53521e-07
3.28631e-06
-3.75414e-07
3.27068e-06
-3.25735e-07
3.25935e-06
-2.50081e-07
3.25061e-06
-1.96787e-07
3.25381e-06
-1.45442e-07
-9.9152e-08
3.24981e-06
3.45396e-06
3.09456e-08
3.47589e-06
8.41279e-08
3.41323e-06
-1.75859e-06
3.39212e-06
-1.25446e-06
3.38739e-06
-1.99067e-07
3.40987e-06
3.83303e-07
3.44621e-06
6.87649e-07
3.45977e-06
3.99559e-07
3.47634e-06
1.02883e-07
3.47482e-06
-1.20483e-07
3.46921e-06
-3.19714e-07
3.46281e-06
-3.86621e-07
3.44338e-06
-4.37194e-07
3.43887e-06
-4.49017e-07
3.42858e-06
-3.65122e-07
3.42047e-06
-3.17626e-07
3.41405e-06
-2.43662e-07
3.40426e-06
-1.86991e-07
3.38117e-06
-1.22351e-07
-9.29758e-08
3.37499e-06
3.58482e-06
2.94679e-08
3.60712e-06
6.18294e-08
3.5438e-06
-1.69526e-06
3.52126e-06
-1.23193e-06
3.51804e-06
-1.95845e-07
3.53892e-06
3.6242e-07
3.57739e-06
6.49184e-07
3.5906e-06
3.86346e-07
3.60687e-06
8.66082e-08
3.60529e-06
-1.18905e-07
3.60144e-06
-3.15864e-07
3.59139e-06
-3.76562e-07
3.57736e-06
-4.23174e-07
3.55662e-06
-4.28276e-07
3.54154e-06
-3.50043e-07
3.52393e-06
-3.00009e-07
3.51233e-06
-2.32063e-07
3.50531e-06
-1.79972e-07
3.50892e-06
-1.25961e-07
-8.95956e-08
3.50554e-06
3.72062e-06
2.82344e-08
3.74324e-06
3.92104e-08
3.67948e-06
-1.6315e-06
3.65533e-06
-1.20778e-06
3.65383e-06
-1.94342e-07
3.67345e-06
3.42799e-07
3.71296e-06
6.09678e-07
3.72703e-06
3.72272e-07
3.74143e-06
7.2212e-08
3.74169e-06
-1.19164e-07
3.73696e-06
-3.11136e-07
3.72702e-06
-3.66619e-07
3.7153e-06
-4.11456e-07
3.69098e-06
-4.03954e-07
3.67575e-06
-3.34818e-07
3.65852e-06
-2.82776e-07
3.64625e-06
-2.1979e-07
3.6388e-06
-1.72522e-07
3.64432e-06
-1.31486e-07
-8.61847e-08
3.64091e-06
3.86154e-06
2.72856e-08
3.88441e-06
1.63379e-08
3.82054e-06
-1.56763e-06
3.79458e-06
-1.18182e-06
3.79487e-06
-1.94631e-07
3.81361e-06
3.24059e-07
3.85313e-06
5.70158e-07
3.86923e-06
3.56167e-07
3.88005e-06
6.13974e-08
3.88455e-06
-1.2367e-07
3.87331e-06
-2.9989e-07
3.86872e-06
-3.62037e-07
3.84651e-06
-3.8924e-07
3.84908e-06
-4.06525e-07
3.84057e-06
-3.26312e-07
3.83355e-06
-2.75753e-07
3.82652e-06
-2.12763e-07
3.81483e-06
-1.60826e-07
3.7884e-06
-1.05054e-07
-7.88657e-08
3.78108e-06
4.0078e-06
2.66428e-08
4.03079e-06
-6.65289e-09
3.9673e-06
-1.50414e-06
3.939e-06
-1.15352e-06
3.94164e-06
-1.97272e-07
3.95888e-06
3.06821e-07
3.99939e-06
5.29652e-07
4.01474e-06
3.40817e-07
4.02733e-06
4.87995e-08
4.02735e-06
-1.23683e-07
4.02536e-06
-2.97906e-07
4.01803e-06
-3.54711e-07
4.00558e-06
-3.76787e-07
3.97502e-06
-3.75966e-07
3.95975e-06
-3.11036e-07
3.9428e-06
-2.58804e-07
3.93095e-06
-2.00921e-07
3.92442e-06
-1.54291e-07
3.93006e-06
-1.10697e-07
-7.66146e-08
3.92781e-06
4.15957e-06
2.63532e-08
4.18261e-06
-2.96942e-08
4.11982e-06
-1.44135e-06
4.0893e-06
-1.123e-06
4.09373e-06
-2.01703e-07
4.11042e-06
2.90128e-07
4.15031e-06
4.89765e-07
4.16689e-06
3.2423e-07
4.17857e-06
3.71234e-08
4.17763e-06
-1.22743e-07
4.17719e-06
-2.97463e-07
4.15645e-06
-3.33969e-07
4.14053e-06
-3.60869e-07
4.12298e-06
-3.58413e-07
4.11027e-06
-2.98333e-07
4.09359e-06
-2.42122e-07
4.08106e-06
-1.88385e-07
4.07429e-06
-1.4753e-07
4.08156e-06
-1.17965e-07
-7.43598e-08
4.07931e-06
4.31711e-06
2.64288e-08
4.34009e-06
-5.26683e-08
4.27831e-06
-1.37957e-06
4.24586e-06
-1.09054e-06
4.25116e-06
-2.0701e-07
4.26862e-06
2.72674e-07
4.30575e-06
4.52634e-07
4.32658e-06
3.03395e-07
4.3324e-06
3.13011e-08
4.33716e-06
-1.27497e-07
4.32666e-06
-2.86969e-07
4.33061e-06
-3.37916e-07
4.31819e-06
-3.4845e-07
4.30923e-06
-3.49452e-07
4.30065e-06
-2.89749e-07
4.29578e-06
-2.37256e-07
4.28855e-06
-1.81152e-07
4.27429e-06
-1.3327e-07
4.2447e-06
-8.83754e-08
-6.5489e-08
4.23583e-06
4.48068e-06
2.68368e-08
4.50336e-06
-7.53506e-08
4.44322e-06
-1.31943e-06
4.40828e-06
-1.0556e-06
4.41528e-06
-2.14014e-07
4.43168e-06
2.5627e-07
4.4695e-06
4.14819e-07
4.48798e-06
2.84915e-07
4.49746e-06
2.182e-08
4.49546e-06
-1.25499e-07
4.49232e-06
-2.8383e-07
4.47411e-06
-3.19699e-07
4.4604e-06
-3.34748e-07
4.4407e-06
-3.29747e-07
4.42946e-06
-2.78514e-07
4.41115e-06
-2.18946e-07
4.40033e-06
-1.70332e-07
4.3948e-06
-1.2774e-07
4.40147e-06
-9.50416e-08
-6.40896e-08
4.40007e-06
4.65044e-06
2.75999e-08
4.67276e-06
-9.76614e-08
4.61433e-06
-1.26101e-06
4.57761e-06
-1.01887e-06
4.58496e-06
-2.21366e-07
4.60199e-06
2.39235e-07
4.63818e-06
3.7863e-07
4.65728e-06
2.65817e-07
4.66621e-06
1.28965e-08
4.66287e-06
-1.22167e-07
4.65741e-06
-2.78367e-07
4.64259e-06
-3.04875e-07
4.62835e-06
-3.20508e-07
4.6106e-06
-3.11998e-07
4.5998e-06
-2.67714e-07
4.57811e-06
-1.97257e-07
4.56856e-06
-1.60784e-07
4.56417e-06
-1.23345e-07
4.5715e-06
-1.02375e-07
-6.20898e-08
4.5695e-06
4.82671e-06
2.86794e-08
4.84852e-06
-1.1947e-07
4.79181e-06
-1.2043e-06
4.75403e-06
-9.81093e-07
4.76033e-06
-2.27669e-07
4.78012e-06
2.19449e-07
4.81137e-06
3.47376e-07
4.83578e-06
2.41413e-07
4.83664e-06
1.20348e-08
4.84326e-06
-1.28787e-07
4.82579e-06
-2.60902e-07
4.82074e-06
-2.99826e-07
4.79932e-06
-2.99083e-07
4.79037e-06
-3.03053e-07
4.78653e-06
-2.63873e-07
4.80595e-06
-2.16679e-07
4.80494e-06
-1.5977e-07
4.79053e-06
-1.08937e-07
4.75607e-06
-6.79095e-08
-4.91637e-08
4.74314e-06
5.00976e-06
2.99908e-08
5.03076e-06
-1.40467e-07
4.97626e-06
-1.1498e-06
4.93688e-06
-9.41715e-07
4.94352e-06
-2.3431e-07
4.96245e-06
2.00518e-07
4.99522e-06
3.14609e-07
5.01514e-06
2.21488e-07
5.0202e-06
6.98071e-09
5.01984e-06
-1.2843e-07
5.00917e-06
-2.50237e-07
4.99872e-06
-2.89369e-07
4.98358e-06
-2.83943e-07
4.96877e-06
-2.88249e-07
4.95499e-06
-2.50085e-07
4.93751e-06
-1.99201e-07
4.92596e-06
-1.48217e-07
4.92386e-06
-1.06846e-07
4.92972e-06
-7.37599e-08
-4.72311e-08
4.92778e-06
5.19974e-06
3.15648e-08
5.21996e-06
-1.60693e-07
5.16722e-06
-1.09706e-06
5.12753e-06
-9.02029e-07
5.13271e-06
-2.39488e-07
5.15271e-06
1.8052e-07
5.1848e-06
2.82512e-07
5.20248e-06
2.03811e-07
5.20973e-06
-2.63976e-10
5.20489e-06
-1.23594e-07
5.19946e-06
-2.44811e-07
5.18509e-06
-2.74998e-07
5.17382e-06
-2.72672e-07
5.15408e-06
-2.68509e-07
5.14362e-06
-2.39625e-07
5.12895e-06
-1.84529e-07
5.12324e-06
-1.42503e-07
5.11836e-06
-1.01967e-07
5.117e-06
-7.24064e-08
-4.85489e-08
5.11832e-06
5.39703e-06
3.33125e-08
5.41631e-06
-1.7997e-07
5.3653e-06
-1.04605e-06
5.32591e-06
-8.62634e-07
5.32872e-06
-2.42301e-07
5.35071e-06
1.58528e-07
5.38019e-06
2.53037e-07
5.39902e-06
1.84974e-07
5.40318e-06
-4.42198e-09
5.40071e-06
-1.21126e-07
5.39314e-06
-2.37238e-07
5.38104e-06
-2.62898e-07
5.36831e-06
-2.59937e-07
5.35074e-06
-2.50946e-07
5.33814e-06
-2.27024e-07
5.32878e-06
-1.75163e-07
5.3218e-06
-1.35522e-07
5.31688e-06
-9.70514e-08
5.31426e-06
-6.97862e-08
-4.91781e-08
5.31489e-06
5.60187e-06
3.51782e-08
5.62003e-06
-1.98125e-07
5.57091e-06
-9.96934e-07
5.532e-06
-8.23721e-07
5.53308e-06
-2.4339e-07
5.55504e-06
1.36568e-07
5.58349e-06
2.24595e-07
5.60209e-06
1.66374e-07
5.60526e-06
-7.59956e-09
5.60335e-06
-1.19213e-07
5.59477e-06
-2.28657e-07
5.58427e-06
-2.52393e-07
5.57063e-06
-2.46298e-07
5.55464e-06
-2.34957e-07
5.54176e-06
-2.14149e-07
5.53508e-06
-1.68479e-07
5.52624e-06
-1.26681e-07
5.52114e-06
-9.19552e-08
5.51892e-06
-6.75626e-08
-4.85166e-08
5.51826e-06
5.81451e-06
3.71446e-08
5.83154e-06
-2.15149e-07
5.78411e-06
-9.49502e-07
5.74661e-06
-7.86226e-07
5.7453e-06
-2.42078e-07
5.7672e-06
1.14666e-07
5.79381e-06
1.97992e-07
5.81292e-06
1.47265e-07
5.81526e-06
-9.94576e-09
5.81357e-06
-1.17522e-07
5.80438e-06
-2.19463e-07
5.795e-06
-2.43022e-07
5.78102e-06
-2.32309e-07
5.76677e-06
-2.20707e-07
5.75388e-06
-2.01261e-07
5.747e-06
-1.61606e-07
5.73962e-06
-1.19296e-07
5.73702e-06
-8.93518e-08
5.73174e-06
-6.22864e-08
-4.68704e-08
5.73009e-06
6.03531e-06
3.91351e-08
6.05102e-06
-2.30865e-07
6.0054e-06
-9.03881e-07
5.96908e-06
-7.49906e-07
5.96618e-06
-2.39179e-07
5.98665e-06
9.42023e-08
6.0122e-06
1.72442e-07
6.03128e-06
1.28179e-07
6.03357e-06
-1.2229e-08
6.03175e-06
-1.15708e-07
6.02232e-06
-2.10027e-07
6.01341e-06
-2.34116e-07
5.99993e-06
-2.18832e-07
5.98689e-06
-2.07662e-07
5.97377e-06
-1.88144e-07
5.96625e-06
-1.54088e-07
5.9587e-06
-1.11748e-07
5.9531e-06
-8.37473e-08
5.95225e-06
-6.14345e-08
-4.50156e-08
5.95039e-06
6.26453e-06
4.11071e-08
6.27883e-06
-2.45162e-07
6.23506e-06
-8.60109e-07
6.19973e-06
-7.14586e-07
6.19575e-06
-2.35198e-07
6.21492e-06
7.50407e-08
6.23897e-06
1.48388e-07
6.25779e-06
1.0936e-07
6.26029e-06
-1.47349e-08
6.25828e-06
-1.13692e-07
6.24871e-06
-2.00457e-07
6.24013e-06
-2.2554e-07
6.22754e-06
-2.0624e-07
6.21497e-06
-1.9509e-07
6.20195e-06
-1.75122e-07
6.19451e-06
-1.46651e-07
6.19015e-06
-1.07385e-07
6.18757e-06
-8.11721e-08
6.18158e-06
-5.54405e-08
-4.23141e-08
6.17888e-06
6.50251e-06
4.29998e-08
6.51526e-06
-2.57909e-07
6.47344e-06
-8.18295e-07
6.43882e-06
-6.79964e-07
6.4344e-06
-2.3078e-07
6.45219e-06
5.72575e-08
6.47467e-06
1.25906e-07
6.49277e-06
9.12624e-08
6.49581e-06
-1.7781e-08
6.49352e-06
-1.11396e-07
6.48398e-06
-1.90923e-07
6.47553e-06
-2.17085e-07
6.4637e-06
-1.94409e-07
6.45155e-06
-1.82944e-07
6.43942e-06
-1.62991e-07
6.43154e-06
-1.38776e-07
6.4256e-06
-1.01442e-07
6.41942e-06
-7.4988e-08
6.4191e-06
-5.51219e-08
-3.96562e-08
6.41644e-06
6.74958e-06
4.47559e-08
6.76059e-06
-2.68918e-07
6.72088e-06
-7.78582e-07
6.68682e-06
-6.45907e-07
6.6825e-06
-2.26457e-07
6.69891e-06
4.08465e-08
6.71971e-06
1.05108e-07
6.73681e-06
7.4156e-08
6.74025e-06
-2.12158e-08
6.73783e-06
-1.08974e-07
6.72825e-06
-1.81345e-07
6.71979e-06
-2.08623e-07
6.70908e-06
-1.83698e-07
6.69714e-06
-1.71007e-07
6.68576e-06
-1.51617e-07
6.67758e-06
-1.30592e-07
6.67399e-06
-9.78525e-08
6.67119e-06
-7.2183e-08
6.66612e-06
-5.00584e-08
-3.65198e-08
6.66299e-06
7.00608e-06
4.63244e-08
7.0152e-06
-2.78032e-07
6.97779e-06
-7.41178e-07
6.94412e-06
-6.12231e-07
6.94029e-06
-2.22632e-07
6.95541e-06
2.57295e-08
6.97439e-06
8.61239e-08
6.99031e-06
5.82392e-08
6.99396e-06
-2.4869e-08
6.99153e-06
-1.06543e-07
6.98203e-06
-1.71844e-07
6.97349e-06
-2.00078e-07
6.96371e-06
-1.73928e-07
6.9521e-06
-1.59388e-07
6.94178e-06
-1.41299e-07
6.93322e-06
-1.22032e-07
6.9279e-06
-9.2537e-08
6.92222e-06
-6.65037e-08
6.92194e-06
-4.97793e-08
-3.38374e-08
6.91926e-06
7.27237e-06
4.76478e-08
7.27938e-06
-2.85043e-07
7.24443e-06
-7.06228e-07
7.2112e-06
-5.79003e-07
7.20884e-06
-2.20269e-07
7.22189e-06
1.26804e-08
7.23914e-06
6.88698e-08
7.2537e-06
4.36828e-08
7.25728e-06
-2.84553e-08
7.25502e-06
-1.04277e-07
7.24572e-06
-1.62542e-07
7.23669e-06
-1.91057e-07
7.22816e-06
-1.65391e-07
7.21677e-06
-1.47998e-07
7.20709e-06
-1.31622e-07
7.1985e-06
-1.1344e-07
7.19492e-06
-8.89567e-08
7.19229e-06
-6.38755e-08
7.18791e-06
-4.53991e-08
-3.10854e-08
7.18516e-06
7.54881e-06
4.86699e-08
7.55365e-06
-2.89881e-07
7.52112e-06
-6.73699e-07
7.48857e-06
-5.46458e-07
7.48672e-06
-2.18412e-07
7.49793e-06
1.47104e-09
7.51439e-06
5.24088e-08
7.5273e-06
3.0774e-08
7.53059e-06
-3.1748e-08
7.52851e-06
-1.02197e-07
7.51963e-06
-1.5366e-07
7.51019e-06
-1.81624e-07
7.50254e-06
-1.57743e-07
7.49172e-06
-1.37172e-07
7.48279e-06
-1.22697e-07
7.47418e-06
-1.04827e-07
7.46894e-06
-8.37153e-08
7.46386e-06
-5.87937e-08
7.46344e-06
-4.49856e-08
-2.90178e-08
7.46138e-06
7.83573e-06
4.93971e-08
7.83877e-06
-2.92924e-07
7.80766e-06
-6.42587e-07
7.77748e-06
-5.16276e-07
7.77191e-06
-2.12848e-07
7.78339e-06
-1.00104e-08
7.80076e-06
3.50447e-08
7.8116e-06
1.99311e-08
7.81441e-06
-3.45557e-08
7.81241e-06
-1.00196e-07
7.80415e-06
-1.45401e-07
7.79405e-06
-1.71529e-07
7.78732e-06
-1.51007e-07
7.77719e-06
-1.2704e-07
7.76848e-06
-1.13996e-07
7.76023e-06
-9.65676e-08
7.75626e-06
-7.97452e-08
7.75388e-06
-5.64203e-08
7.74994e-06
-4.104e-08
-2.70283e-08
7.74795e-06
8.13359e-06
4.97672e-08
8.1349e-06
-2.94233e-07
8.10456e-06
-6.12249e-07
8.07777e-06
-4.89488e-07
8.07597e-06
-2.11046e-07
8.09765e-06
-3.16876e-08
8.10132e-06
3.13753e-08
8.10643e-06
1.48157e-08
8.10925e-06
-3.73692e-08
8.10715e-06
-9.8101e-08
8.09981e-06
-1.38063e-07
8.08927e-06
-1.60981e-07
8.08292e-06
-1.44664e-07
8.07369e-06
-1.17806e-07
8.06544e-06
-1.05743e-07
8.05751e-06
-8.86436e-08
8.05209e-06
-7.43212e-08
8.04779e-06
-5.21249e-08
8.04689e-06
-4.01372e-08
-2.56489e-08
8.04551e-06
8.44283e-06
4.96945e-08
8.44119e-06
-2.92593e-07
8.41444e-06
-5.85491e-07
8.38698e-06
-4.62029e-07
8.38383e-06
-2.07901e-07
8.3906e-06
-3.84536e-08
8.40404e-06
1.79304e-08
8.41341e-06