/*--------------------------------*- C++ -*----------------------------------*\
| =========                 |                                                 |
| \\      /  F ield         | OpenFOAM: The Open Source CFD Toolbox           |
|  \\    /   O peration     | Version:  v2012                                 |
|   \\  /    A nd           | Website:  www.openfoam.com                      |
|    \\/     M anipulation  |                                                 |
\*---------------------------------------------------------------------------*/
FoamFile
{
    version     2.0;
    format      ascii;
    class       volScalarField;
    location    "4";
    object      p;
}
// * * * * * * * * * * * * * * * * * * * * * * * * * * * * * * * * * * * * * //

dimensions      [0 2 -2 0 0 0 0];


internalField   nonuniform List<scalar> 
7000
(
-1.68897e-10
0.00490824
0.00612096
0.000951207
0.00436288
0.00717472
0.00259115
0.00444003
0.00367764
0.00592891
0.00335244
0.00607798
0.00489154
0.00561689
0.00527253
0.00650338
0.00661381
0.00791393
0.00850704
0.0102393
1.18641e-05
0.00489338
0.00611434
0.000975438
0.00435916
0.0071294
0.00263163
0.00443551
0.0036886
0.00592512
0.00336335
0.00605914
0.00489393
0.00561364
0.00527667
0.00650246
0.00662236
0.00790792
0.00851163
0.0101473
2.35541e-05
0.0048732
0.0061096
0.00100083
0.0043431
0.00708168
0.00266778
0.00442999
0.00370497
0.0059143
0.00337966
0.00602897
0.00490689
0.0056041
0.00529274
0.00649132
0.00664317
0.00788574
0.00851522
0.0100031
3.42356e-05
0.00485792
0.00610611
0.00102344
0.00432709
0.00703827
0.00269924
0.00442463
0.00372659
0.00589411
0.00339914
0.00599562
0.0049248
0.00559201
0.00531377
0.00647213
0.00666711
0.00785398
0.00851077
0.00984374
4.62666e-05
0.00484823
0.00610143
0.00104614
0.00431687
0.00699762
0.00272877
0.00441981
0.00375488
0.00586303
0.00342391
0.00595862
0.00494363
0.00557817
0.00533567
0.00644805
0.00669144
0.00781816
0.00849768
0.00969043
6.09201e-05
0.00484268
0.0060942
0.0010711
0.00431276
0.00696
0.0027582
0.00441566
0.00378978
0.00582193
0.00345439
0.00591652
0.00496367
0.00556246
0.00535895
0.00642107
0.0067162
0.0077802
0.00847571
0.00954958
7.88732e-05
0.00484022
0.00608365
0.00109974
0.00431434
0.00692516
0.00278837
0.0044121
0.00383014
0.00577347
0.00348959
0.00586988
0.00498637
0.00554503
0.00538454
0.00639168
0.00674075
0.00773972
0.00844461
0.00941873
0.000100426
0.00483982
0.00606954
0.0011331
0.004321
0.00689176
0.00281963
0.00440877
0.00387467
0.00572079
0.0035287
0.00582001
0.00501215
0.0055257
0.00541205
0.00635991
0.00676353
0.00769674
0.00840445
0.00929379
0.000125461
0.0048404
0.00605227
0.0011717
0.00433138
0.00685825
0.00285208
0.00440511
0.00392253
0.00566633
0.00357134
0.00576768
0.00504067
0.00550393
0.00544087
0.00632619
0.00678301
0.0076525
0.00835532
0.00917237
0.000153573
0.00484117
0.00603257
0.00121534
0.00434387
0.00682362
0.00288564
0.00440052
0.00397329
0.00561145
0.00361734
0.00571331
0.00507171
0.00547934
0.0054707
0.00629133
0.00679818
0.00760858
0.00829751
0.00905364
0.000184268
0.00484171
0.00601119
0.00126334
0.00435724
0.00678742
0.00292025
0.00439453
0.00402671
0.00555668
0.00366656
0.00565739
0.00510526
0.00545186
0.00550137
0.00625665
0.00680845
0.00756606
0.00823186
0.00893723
0.000217129
0.00484181
0.00598869
0.00131474
0.00437083
0.00674962
0.00295601
0.00438683
0.00408256
0.00550214
0.00371879
0.0056005
0.00514137
0.00542185
0.00553244
0.00622376
0.00681326
0.00752527
0.00815972
0.00882253
0.000251859
0.00484143
0.00596542
0.00136865
0.00438442
0.00671039
0.0029931
0.00437721
0.00414067
0.00544783
0.0037737
0.00554316
0.00517999
0.00539002
0.00556301
0.00619433
0.00681194
0.00748604
0.0080826
0.0087088
0.00028827
0.00484055
0.00594156
0.00142435
0.00439807
0.00666991
0.0030317
0.00436552
0.0042009
0.00539376
0.00383083
0.00548588
0.0052209
0.00535739
0.00559176
0.0061696
0.00680394
0.00744783
0.008002
0.00859541
0.000326234
0.00483917
0.00591724
0.00148133
0.00441196
0.00662831
0.00307199
0.0043517
0.00426317
0.00533997
0.00388963
0.00542907
0.00526358
0.00532524
0.00561713
0.00615024
0.00678893
0.00740982
0.00791923
0.008482
0.000365639
0.00483729
0.00589262
0.00153924
0.00442625
0.00658566
0.00311409
0.00433568
0.00432741
0.00528653
0.00394951
0.00537319
0.00530722
0.00529499
0.00563755
0.00613646
0.00676688
0.0073708
0.00783543
0.0083685
0.000406379
0.00483489
0.00586785
0.00159782
0.00444114
0.00654204
0.00315814
0.00431745
0.00439351
0.00523358
0.0040098
0.0053187
0.0053507
0.00526802
0.00565165
0.00612819
0.00673805
0.007329
0.00775142
0.00825529
0.000448361
0.00483198
0.00584315
0.0016569
0.00445673
0.00649751
0.00320423
0.00429701
0.00446133
0.00518129
0.00406974
0.00526621
0.00539271
0.00524546
0.0056583
0.00612493
0.00670333
0.00728252
0.00766736
0.00814294
0.000491534
0.00482853
0.00581871
0.00171631
0.00447309
0.00645215
0.00325245
0.0042744
0.00453061
0.00512996
0.00412844
0.00521653
0.00543185
0.00522825
0.00565666
0.00612544
0.00666423
0.00723006
0.00758286
0.00803192
0.0005359
0.0048245
0.00579471
0.00177598
0.00449022
0.00640602
0.00330287
0.00424969
0.00460099
0.00508011
0.00418487
0.00517048
0.00546674
0.00521716
0.00564643
0.00612778
0.00662236
0.00717107
0.00749734
0.00792248
0.000581524
0.00481984
0.00577125
0.00183588
0.00450807
0.00635921
0.00335553
0.004223
0.00467197
0.00503255
0.00423789
0.00512874
0.00549616
0.00521254
0.00562796
0.00612964
0.00657896
0.00710563
0.00741054
0.00781472
0.000628517
0.00481448
0.00574842
0.00189602
0.00452656
0.00631176
0.0034104
0.00419459
0.00474287
0.00498827
0.00428629
0.00509195
0.00551919
0.00521419
0.00560212
0.00612875
0.00653467
0.00703412
0.00732261
0.00770901
0.000677014
0.00480834
0.00572623
0.0019565
0.00454558
0.00626374
0.00346744
0.0041648
0.00481289
0.00494851
0.00432878
0.00506055
0.00553522
0.0052214
0.00557045
0.00612332
0.00648989
0.00695659
0.00723317
0.00760619
0.000727151
0.00480134
0.00570472
0.00201741
0.00456503
0.00621522
0.00352655
0.00413412
0.00488098
0.0049146
0.00436435
0.00503496
0.00554396
0.00523279
0.0055347
0.00611203
0.00644531
0.00687371
0.0071414
0.00750656
0.000779052
0.00479341
0.00568394
0.00207885
0.00458479
0.00616629
0.00358752
0.00410324
0.00494607
0.00488757
0.00439211
0.00501566
0.00554569
0.00524649
0.00549638
0.00609344
0.00640104
0.00678702
0.00704739
0.00741016
0.000832826
0.00478445
0.00566394
0.00214095
0.00460472
0.00611712
0.00365004
0.00407286
0.00500712
0.00486864
0.00441104
0.00500245
0.00554129
0.00526083
0.00545733
0.0060666
0.00635654
0.00669821
0.00695144
0.00731674
0.000888564
0.00477442
0.0056448
0.00220382
0.00462467
0.00606794
0.0037137
0.00404394
0.00506268
0.00485879
0.00442107
0.00499426
0.00553172
0.00527355
0.00541876
0.00603163
0.00631105
0.00660968
0.00685512
0.00722535
0.000946356
0.00476323
0.00562659
0.00226757
0.00464441
0.00601906
0.00377799
0.00401739
0.00511221
0.00485763
0.00442272
0.00499013
0.005519
0.00528249
0.00538023
0.00598884
0.00626299
0.00652238
0.00676067
0.0071366
0.00100629
0.00475081
0.00560937
0.00233234
0.00466382
0.00597073
0.00384246
0.00399385
0.00515505
0.00486577
0.00441598
0.00498837
0.00550554
0.00528746
0.0053411
0.00593902
0.00621275
0.00643634
0.00666584
0.00705138
0.00106842
0.00473714
0.00559314
0.00239828
0.00468267
0.00592366
0.00390604
0.00397416
0.00518999
0.00488383
0.00440082
0.00498763
0.00549177
0.00528855
0.00530066
0.0058822
0.00615647
0.00635094
0.00658239
0.00696942
0.00113286
0.00472211
0.00557796
0.00246551
0.0047007
0.00587822
0.00396837
0.00395893
0.00521692
0.00491069
0.00437836
0.00498642
0.00547874
0.00528558
0.00525818
0.0058181
0.00609405
0.0062646
0.00651136
0.00689099
0.00119964
0.00470571
0.00556376
0.00253434
0.00471768
0.00583473
0.00402898
0.00394855
0.00523546
0.00494583
0.00435251
0.00497919
0.00546979
0.00527889
0.00521309
0.00575155
0.00602933
0.00617729
0.00641928
0.00681848
0.00126878
0.00468797
0.00555045
0.00260492
0.00473296
0.00579424
0.00408704
0.00394282
0.00524568
0.00498649
0.00432941
0.00496119
0.00546639
0.00526966
0.00516472
0.00567631
0.00595875
0.00608629
0.00633448
0.00675545
0.00134054
0.00466867
0.00553818
0.00267724
0.0047466
0.00575624
0.00414425
0.00394204
0.00524901
0.00502929
0.00432043
0.00493338
0.00546659
0.00525944
0.00511457
0.00559624
0.00588566
0.00599427
0.00620565
0.00669928
0.00141475
0.00464797
0.00552639
0.0027522
0.00475819
0.00572186
0.00419769
0.00394708
0.00524493
0.00507736
0.00430416
0.00490428
0.00546317
0.00524853
0.005061
0.00549711
0.00580353
0.00590684
0.00612104
0.00664733
0.00149137
0.0046261
0.0055148
0.00282999
0.00476691
0.00569247
0.00424541
0.00395642
0.00523303
0.00513105
0.00419369
0.00487091
0.00545522
0.00523387
0.00499868
0.0053892
0.00571119
0.00582426
0.00608805
0.0065997
0.00157089
0.00460264
0.00550396
0.00291013
0.00477362
0.00566496
0.00429672
0.00396839
0.00521781
0.00517995
0.00427734
0.00482373
0.00544324
0.00522264
0.00493388
0.00527743
0.00562045
0.00574767
0.00596103
0.00655663
0.00165285
0.00457817
0.00549259
0.00299412
0.00477707
0.00564227
0.00434381
0.00398498
0.00519902
0.00522896
0.00429763
0.00477426
0.00542672
0.00520051
0.0048605
0.00516145
0.00552245
0.00567945
0.00590372
0.0065171
0.00173714
0.00455325
0.00548005
0.00308239
0.00477638
0.00562535
0.00438394
0.00400392
0.00517594
0.00528259
0.0042694
0.00472631
0.00540329
0.00516167
0.00477995
0.00504281
0.0054208
0.00561551
0.00591947
0.00647808
0.00182459
0.00452727
0.00546746
0.00317334
0.00477437
0.00560774
0.00443587
0.00402079
0.00515387
0.00532429
0.00430832
0.0046645
0.00536847
0.00514817
0.00470875
0.00492081
0.0053239
0.00554309
0.00576444
0.00644232
0.00191422
0.00450145
0.00545243
0.00326918
0.00476906
0.0055948
0.00448437
0.00403973
0.0051288
0.00536781
0.00433019
0.00459519
0.00532073
0.00511381
0.00462878
0.0047962
0.00520872
0.00547464
0.00572843
0.00641937
0.00200614
0.00447626
0.00543444
0.00337014
0.00476024
0.00558588
0.00452696
0.00406105
0.00509728
0.00542276
0.00433464
0.00451874
0.0052517
0.00508325
0.0045453
0.00466814
0.0050719
0.00540366
0.00581678
0.00641213
0.00210118
0.00445117
0.00541516
0.00347343
0.00475324
0.00557119
0.00458932
0.00407787
0.00506487
0.00546336
0.00443917
0.00445085
0.005187
0.00505807
0.00447699
0.00453477
0.00492901
0.00527593
0.00564332
0.00642386
0.00219782
0.0044281
0.00539105
0.00358149
0.00474498
0.00555651
0.00465351
0.00409543
0.00502802
0.00549312
0.00449089
0.00437219
0.00511531
0.00503377
0.00441463
0.00439535
0.00477243
0.00512446
0.00554274
0.00646293
0.00229676
0.00440712
0.00536309
0.00369332
0.00473732
0.00554081
0.00471725
0.0041207
0.00497947
0.00552687
0.00452902
0.00429888
0.00502875
0.00500999
0.00436232
0.00425502
0.00460239
0.00498785
0.00550482
0.00650508
0.00239818
0.00438802
0.00533187
0.00380728
0.00473413
0.00551924
0.00478695
0.00415215
0.00492141
0.00554283
0.00457852
0.00423557
0.00492719
0.00498274
0.00432108
0.00411811
0.00443621
0.00487105
0.0054726
0.00655031
0.00250069
0.00437246
0.00529585
0.00392364
0.00473473
0.00549326
0.00485734
0.00418942
0.00485805
0.00553931
0.00464388
0.00418214
0.00480881
0.00494695
0.00429198
0.0039895
0.00427669
0.00476038
0.00546104
0.00659979
0.00260532
0.00436047
0.00525609
0.0040395
0.00474407
0.00546063
0.00492557
0.0042369
0.00478949
0.00552075
0.00471655
0.00413407
0.00468108
0.00490386
0.00427817
0.00387885
0.0041295
0.00466106
0.00543354
0.00664294
0.00271126
0.00435219
0.00521269
0.0041539
0.00476214
0.00542302
0.00499167
0.00429241
0.00471802
0.0054869
0.00478873
0.00410255
0.00455729
0.00484765
0.00427144
0.00378667
0.00398796
0.00455667
0.00539964
0.00668251
0.00281817
0.00434829
0.00516681
0.00426403
0.00478955
0.00538479
0.00504743
0.00435339
0.0046502
0.00543681
0.00485822
0.0040927
0.004436
0.00476694
0.00426284
0.00372012
0.00386131
0.00445113
0.00536105
0.00671695
0.00292662
0.00434887
0.00511974
0.00436743
0.00482748
0.0053455
0.00509397
0.00442184
0.00458797
0.00537052
0.00492242
0.00410129
0.00431572
0.00466597
0.00425751
0.00368518
0.00374932
0.00434002
0.00530351
0.00674457
0.00303571
0.00435407
0.00507238
0.00446333
0.00487187
0.00530998
0.00513243
0.00449281
0.00453226
0.00529056
0.00497896
0.00412584
0.00420324
0.00455466
0.00425059
0.00367116
0.00364585
0.00421926
0.0052429
0.00677481
0.00314567
0.00436417
0.0050264
0.00454956
0.00492306
0.00528106
0.00515809
0.00456419
0.00448768
0.00520165
0.00502278
0.00416177
0.00410347
0.0044362
0.00423098
0.00366947
0.00355867
0.00410805
0.00518183
0.00679726
0.00325639
0.00437934
0.00498227
0.00462588
0.00497741
0.00525835
0.00517844
0.00463556
0.00445441
0.00510461
0.00504931
0.00420826
0.00402301
0.00431507
0.00419261
0.00367476
0.00349983
0.00400842
0.00511073
0.00680796
0.00336752
0.00439956
0.00494123
0.00469159
0.00503363
0.00524493
0.00519056
0.0047025
0.00443279
0.0050036
0.00505863
0.00426425
0.00396228
0.00419157
0.00413305
0.00368671
0.0034693
0.00391742
0.00503548
0.00681666
0.0034788
0.00442547
0.00490419
0.00474668
0.00508911
0.00523899
0.0051987
0.0047655
0.00442465
0.00490241
0.00505023
0.00432411
0.00391773
0.0040705
0.00406138
0.00369804
0.00345875
0.00384853
0.0049685
0.00681604
0.00358998
0.00445718
0.0048719
0.00479166
0.00514209
0.00523951
0.00520415
0.00482455
0.00442878
0.00480397
0.00502367
0.00438216
0.00389028
0.00396185
0.00397925
0.00369644
0.00346828
0.00380745
0.00490474
0.00680778
0.00370063
0.00449496
0.00484539
0.00482745
0.00519045
0.00524487
0.00520571
0.00487827
0.00444526
0.00471379
0.00498085
0.00443467
0.00387992
0.00386653
0.00388908
0.00368307
0.0034883
0.00378599
0.00485767
0.00680672
0.00381064
0.0045389
0.00482573
0.00485436
0.00523299
0.00525166
0.0052074
0.00492945
0.00447501
0.00463375
0.00492326
0.00447868
0.00388324
0.00378531
0.00379933
0.00365333
0.0035048
0.00379152
0.00484263
0.00681173
0.00391991
0.00458879
0.00481361
0.00487396
0.00526995
0.00525611
0.00520085
0.00498135
0.0045166
0.00456778
0.00485511
0.00451149
0.00389767
0.00371962
0.00371229
0.00361072
0.00352092
0.00381817
0.00485075
0.0068271
0.00402786
0.0046452
0.00480989
0.00488865
0.00529711
0.00525401
0.0051957
0.00503405
0.00457615
0.00451829
0.00478018
0.00453003
0.0039208
0.00366827
0.00363288
0.00356392
0.00352848
0.00385027
0.0048815
0.00685989
0.004135
0.00470522
0.0048166
0.00489876
0.00531056
0.00525298
0.00519269
0.00508164
0.00463646
0.00448494
0.0047019
0.0045336
0.00394881
0.00363167
0.00356501
0.0035138
0.00352542
0.00388486
0.00492888
0.00690766
0.00424132
0.00476751
0.00483397
0.00490508
0.00531249
0.0052543
0.005191
0.00512269
0.00470001
0.00446792
0.00462552
0.00452245
0.00397801
0.00360879
0.0035072
0.00346513
0.00351746
0.00391585
0.00498122
0.0069664
0.00434675
0.0048315
0.00485982
0.00491084
0.00530679
0.00525601
0.00518963
0.00515722
0.00476392
0.00446534
0.00455405
0.00449796
0.0040052
0.00359621
0.00345998
0.00342447
0.00350723
0.00393948
0.00503169
0.00703178
0.00445148
0.00489586
0.00489276
0.00491903
0.00529582
0.00525623
0.00518801
0.00518491
0.00482537
0.00447467
0.00449169
0.00446405
0.00402756
0.00359233
0.00342361
0.00339211
0.00349783
0.00395849
0.00507747
0.00709793
0.00455542
0.00496064
0.00493102
0.00493078
0.00528271
0.00525491
0.00518557
0.00520529
0.00488323
0.0044952
0.00444034
0.00442316
0.00404394
0.00359725
0.00339606
0.00336608
0.00349222
0.00397585
0.00511685
0.00715995
0.00465866
0.00502519
0.00497336
0.00494695
0.00526936
0.0052516
0.00518139
0.00521896
0.00493745
0.00452471
0.00439946
0.00437833
0.00405492
0.00360988
0.00337542
0.00334326
0.00348961
0.00399394
0.00515342
0.00721908
0.00476115
0.00508962
0.00501897
0.00496775
0.00525686
0.00524655
0.00517574
0.00522676
0.00498662
0.00456055
0.00436989
0.00433335
0.00405926
0.00362651
0.00336078
0.0033227
0.00348997
0.00401675
0.00519257
0.00727542
0.00486288
0.00515392
0.00506707
0.00499297
0.00524612
0.00524057
0.00516909
0.00522874
0.00502926
0.00460161
0.00435253
0.00428962
0.00405532
0.00364505
0.00335519
0.00330637
0.00349187
0.0040421
0.00523233
0.00732899
0.00496378
0.00521815
0.00511704
0.00502223
0.00523812
0.00523429
0.00516123
0.00522519
0.00506527
0.0046465
0.00434623
0.00424793
0.00404376
0.00366474
0.00335943
0.00329382
0.00349193
0.00406565
0.00527381
0.00738585
0.00506377
0.00528237
0.00516835
0.00505494
0.00523342
0.00522846
0.00515251
0.00521684
0.00509432
0.00469282
0.00434986
0.00421062
0.00402617
0.0036827
0.00337115
0.00328618
0.00349095
0.00408827
0.00531911
0.00744571
0.0051628
0.00534665
0.00522053
0.00509057
0.00523221
0.00522383
0.00514358
0.00520407
0.00511541
0.00473856
0.00436355
0.00418063
0.00400376
0.00369572
0.00338833
0.00328552
0.00349072
0.00410905
0.00536295
0.00750415
0.00526074
0.00541112
0.00527326
0.00512842
0.00523453
0.00522105
0.00513512
0.0051876
0.00512818
0.0047821
0.00438665
0.00415978
0.00397795
0.00370129
0.00340781
0.00329205
0.00349253
0.00412626
0.00540205
0.00756059
0.00535747
0.00547583
0.00532634
0.00516801
0.00524035
0.00522043
0.00512798
0.00516857
0.00513277
0.00482148
0.00441632
0.00414879
0.00395176
0.00369898
0.00342651
0.00330483
0.00349762
0.00414058
0.00543602
0.00761346
0.00545286
0.00554088
0.00537944
0.00520878
0.0052496
0.00522201
0.00512272
0.00514825
0.0051295
0.00485457
0.00444952
0.00414782
0.00392909
0.0036903
0.003441
0.00332056
0.00350596
0.00415338
0.005465
0.0076616
0.00554676
0.00560626
0.00543261
0.00525027
0.0052617
0.00522573
0.00511976
0.0051279
0.00511913
0.00488007
0.0044839
0.00415545
0.00391238
0.00367709
0.0034485
0.00333587
0.00351708
0.0041662
0.00549042
0.00770517
0.00563902
0.00567193
0.00548574
0.00529237
0.00527639
0.00523157
0.00511918
0.00510843
0.00510296
0.00489724
0.00451717
0.00416912
0.0039024
0.00366221
0.00344912
0.00334839
0.00352925
0.00417902
0.0055123
0.0077433
0.00572951
0.00573784
0.0055388
0.00533455
0.00529327
0.0052396
0.00512076
0.00509091
0.00508283
0.00490507
0.00454721
0.0041867
0.00389873
0.00364839
0.00344396
0.00335572
0.00353968
0.00419064
0.00553065
0.0077761
0.00581804
0.00580385
0.00559198
0.00537626
0.00531167
0.00524931
0.00512435
0.00507599
0.00506071
0.00490348
0.00457187
0.00420604
0.00390012
0.00363716
0.0034343
0.00335673
0.00354633
0.0042002
0.00554587
0.00780341
0.00590447
0.00586979
0.00564534
0.00541747
0.00533118
0.00526056
0.00512985
0.00506326
0.0050381
0.00489351
0.00458871
0.004225
0.00390448
0.00362892
0.00342188
0.00335169
0.00354803
0.00420659
0.00555764
0.00782491
0.0059887
0.00593539
0.00569888
0.00545843
0.00535125
0.0052729
0.00513722
0.00505216
0.00501635
0.00487714
0.00459581
0.00424165
0.00390942
0.00362235
0.00340732
0.00334042
0.0035431
0.00420759
0.00556505
0.00784125
0.00607065
0.00600044
0.00575241
0.0054991
0.00537181
0.00528561
0.00514625
0.00504223
0.00499575
0.00485756
0.00459185
0.00425308
0.00391413
0.00361712
0.00339178
0.0033231
0.00352968
0.00420003
0.00556476
0.00785002
0.00615016
0.0060647
0.00580579
0.00553952
0.00539259
0.00529827
0.00515701
0.00503311
0.00497509
0.00483755
0.00457737
0.00425488
0.00391586
0.00361213
0.00337674
0.00330215
0.00350952
0.00418399
0.00555531
0.00784879
0.00622719
0.00612793
0.00585864
0.00557996
0.00541374
0.00530987
0.00516912
0.00502589
0.0049524
0.00481821
0.00455671
0.00424485
0.00390941
0.003602
0.0033593
0.00327711
0.00348313
0.00416015
0.00553799
0.00783972
0.0063015
0.00618987
0.005911
0.00562046
0.00543552
0.00531967
0.00518091
0.00502204
0.00492667
0.00479794
0.0045347
0.00422566
0.00389433
0.00358444
0.00333633
0.00324484
0.00344603
0.00412324
0.00550723
0.00781865
0.00637288
0.00625029
0.00596255
0.00566108
0.00545851
0.00532807
0.00519022
0.00502163
0.0048986
0.004773
0.00451181
0.00419952
0.00387163
0.00356072
0.0033095
0.00320767
0.00339962
0.00407193
0.00545809
0.00777794
0.00644116
0.00630908
0.00601324
0.00570114
0.00548233
0.0053361
0.00519534
0.00502375
0.00487129
0.00474134
0.00448725
0.00416769
0.00383842
0.00352611
0.00327426
0.00316441
0.00334565
0.00400943
0.00539348
0.00771886
0.00650606
0.00636603
0.00606301
0.00574132
0.0055066
0.0053436
0.00519491
0.00502501
0.00484736
0.00470334
0.00445963
0.00413407
0.00379832
0.00348068
0.00322694
0.0031109
0.00328095
0.00393384
0.00531139
0.00763759
0.00656757
0.00642071
0.00611078
0.00578217
0.00553381
0.00535284
0.00519006
0.00502241
0.00482703
0.0046598
0.00442393
0.00409675
0.00375313
0.00342721
0.00316749
0.00304575
0.00320589
0.00384821
0.00521501
0.00753363
0.00662361
0.00647462
0.00615796
0.00582318
0.00556193
0.00536416
0.0051827
0.00501405
0.00481061
0.00461698
0.00438061
0.00405459
0.00370091
0.00336208
0.00309053
0.00296182
0.00311398
0.00374598
0.00510218
0.00741359
0.00666755
0.0065209
0.00619809
0.00585834
0.00558343
0.00536978
0.00517205
0.00499811
0.00479252
0.00457692
0.00433244
0.00400811
0.003644
0.00328784
0.00299722
0.00285536
0.00299644
0.00361702
0.00496211
0.00726701
0.00672671
0.00657725
0.00626184
0.0059084
0.00560422
0.00537
0.00515801
0.00497827
0.00477138
0.00453821
0.00428057
0.00395627
0.00358144
0.00320668
0.00289283
0.00272646
0.00284212
0.00344213
0.00477362
0.00707289
0.00669515
0.00660811
0.0063331
0.00597619
0.00563214
0.00536859
0.00514481
0.00495977
0.00475868
0.00452415
0.00425564
0.00392122
0.00352944
0.00313019
0.00278134
0.00257262
0.00264337
0.00320041
0.00449072
0.00675175
0.00682495
0.0066773
0.00634328
0.00596352
0.00563242
0.00535043
0.00509693
0.00490734
0.00473498
0.00453466
0.00427708
0.0039479
0.00356615
0.00317807
0.00282524
0.00258361
0.00259096
0.00305195
0.00422551
0.00635325
0.00676837
0.00669926
0.00636322
0.0060918
0.0057767
0.00538615
0.00500882
0.00478141
0.00457929
0.00438109
0.00409714
0.00376139
0.00337773
0.00302507
0.0027593
0.00266325
0.00281315
0.00337386
0.00458561
0.00671515
0.00692544
0.00669367
0.00639494
0.00603487
0.00567199
0.00538759
0.00516706
0.0050393
0.00489272
0.00466924
0.00434186
0.00395302
0.00347882
0.00291132
0.00229259
0.00173842
0.0014295
0.00160247
0.0025305
0.00445033
0.00717192
0.00664223
0.0062307
0.00586206
0.00557778
0.00519166
0.00484301
0.00468279
0.00452803
0.00425626
0.00393113
0.00364231
0.00357898
0.00385017
0.00449527
0.00542645
0.00646212
0.0073008
0.00757497
0.00695395
0.0071716
0.00667683
0.00625885
0.00598094
0.0058498
0.00576486
0.00557916
0.00537264
0.00510797
0.00470016
0.00417791
0.00352902
0.00276563
0.00192101
0.00105514
0.000265883
-0.00028128
-0.000356654
0.000315947
0.00198281
0.00734277
0.00665396
0.00620119
0.00590249
0.00573265
0.00544175
0.0051139
0.00467654
0.00433248
0.00413453
0.00390794
0.00357928
0.00329828
0.00319974
0.003408
0.00393669
0.00468292
0.00535127
0.00554549
0.00490089
0.00734386
0.00663469
0.00618015
0.00599092
0.00604789
0.00613952
0.0060876
0.00592814
0.00559364
0.00495578
0.00404046
0.00283731
0.00137651
-0.000197567
-0.0016612
-0.00281186
-0.00349268
-0.00352836
-0.00269897
-0.000808705
0.0119292
0.00276027
-0.000313392
0.00156398
0.00397893
0.00606274
0.00789034
0.00947113
0.0107912
0.0121327
0.0138513
0.015637
0.016973
0.0181308
0.0193542
0.0204429
0.0217742
0.0235738
0.0252762
0.0268909
0.0286409
0.0302344
0.0317715
0.033515
0.0354472
0.0373349
0.0392354
0.0413719
0.0436471
0.0458723
0.0480877
0.0504859
0.0529775
0.0555769
0.0582321
0.0610024
0.0638419
0.0668096
0.069887
0.0730406
0.0763391
0.0796535
0.0831773
0.0867489
0.0904781
0.0943475
0.0982577
0.102397
0.106327
0.110459
0.0117854
0.002818
-0.000273827
0.00157913
0.00398647
0.0060674
0.00789394
0.00947432
0.010794
0.012135
0.0138531
0.0156387
0.0169746
0.0181321
0.0193554
0.020444
0.0217752
0.0235747
0.0252771
0.0268916
0.0286415
0.030235
0.0317721
0.0335154
0.0354477
0.0373353
0.0392358
0.0413722
0.0436474
0.0458726
0.0480879
0.0504861
0.0529777
0.0555771
0.0582322
0.0610026
0.063842
0.0668098
0.0698872
0.0730407
0.0763393
0.0796536
0.0831774
0.086749
0.0904782
0.0943476
0.0982578
0.102397
0.106327
0.110459
0.0115768
0.00290745
-0.000209119
0.00160006
0.00399605
0.00607286
0.00789756
0.00947725
0.0107965
0.012137
0.0138549
0.0156403
0.0169761
0.0181333
0.0193565
0.0204449
0.0217759
0.0235755
0.0252779
0.0268923
0.0286422
0.0302356
0.0317725
0.0335158
0.035448
0.0373357
0.0392361
0.0413724
0.0436477
0.0458728
0.0480881
0.0504863
0.0529779
0.0555773
0.0582324
0.0610027
0.0638422
0.0668099
0.0698873
0.0730408
0.0763394
0.0796537
0.0831775
0.0867491
0.0904783
0.0943476
0.0982579
0.102397
0.106327
0.11046
0.0113845
0.0030324
-0.000110448
0.00163334
0.00401097
0.00608097
0.00790214
0.0094804
0.0107991
0.0121393
0.0138568
0.0156421
0.0169777
0.0181346
0.0193576
0.0204458
0.0217766
0.0235764
0.0252787
0.0268929
0.0286428
0.0302362
0.031773
0.0335162
0.0354484
0.037336
0.0392364
0.0413727
0.0436479
0.045873
0.0480883
0.0504865
0.0529781
0.0555775
0.0582326
0.0610029
0.0638423
0.06681
0.0698874
0.073041
0.0763395
0.0796538
0.0831776
0.0867491
0.0904784
0.0943477
0.0982579
0.102397
0.106327
0.11046
0.0112143
0.00318285
1.67182e-05
0.00167961
0.00403263
0.00609306
0.0079086
0.00948426
0.0108022
0.0121421
0.0138591
0.0156441
0.0169794
0.018136
0.0193589
0.0204468
0.0217773
0.0235773
0.0252796
0.0268936
0.0286436
0.0302369
0.0317735
0.0335166
0.0354488
0.0373364
0.0392367
0.041373
0.0436482
0.0458733
0.0480885
0.0504867
0.0529783
0.0555777
0.0582328
0.061003
0.0638425
0.0668102
0.0698875
0.0730411
0.0763396
0.0796539
0.0831777
0.0867492
0.0904784
0.0943478
0.098258
0.102397
0.106327
0.11046
0.0110494
0.00334507
0.000160345
0.00173463
0.00405971
0.00610902
0.00791732
0.00948927
0.0108061
0.0121455
0.0138618
0.0156462
0.0169811
0.0181375
0.0193604
0.0204479
0.0217781
0.0235783
0.0252806
0.0268943
0.0286445
0.0302376
0.031774
0.0335171
0.0354493
0.0373368
0.039237
0.0413733
0.0436485
0.0458736
0.0480888
0.0504869
0.0529785
0.0555778
0.0582329
0.0610032
0.0638426
0.0668103
0.0698877
0.0730412
0.0763397
0.079654
0.0831778
0.0867493
0.0904785
0.0943479
0.0982581
0.102398
0.106328
0.11046
0.0108808
0.00351231
0.000313657
0.00179466
0.00409002
0.00612773
0.00792808
0.00949566
0.010811
0.0121498
0.0138648
0.0156481
0.0169828
0.0181391
0.019362
0.0204493
0.0217791
0.0235795
0.0252816
0.0268951
0.0286454
0.0302385
0.0317746
0.0335177
0.0354499
0.0373373
0.0392374
0.0413736
0.0436489
0.0458739
0.048089
0.0504872
0.0529787
0.055578
0.0582331
0.0610034
0.0638428
0.0668105
0.0698878
0.0730413
0.0763398
0.0796541
0.0831779
0.0867494
0.0904786
0.094348
0.0982582
0.102398
0.106328
0.11046
0.0107081
0.00368316
0.0004746
0.00185799
0.00412203
0.00614811
0.00794035
0.00950338
0.010817
0.0121549
0.013868
0.0156498
0.016984
0.0181404
0.0193637
0.020451
0.0217805
0.023581
0.0252827
0.0268957
0.0286464
0.0302395
0.0317754
0.0335183
0.0354505
0.0373379
0.0392378
0.041374
0.0436493
0.0458743
0.0480893
0.0504874
0.052979
0.0555783
0.0582333
0.0610036
0.063843
0.0668107
0.069888
0.0730415
0.07634
0.0796542
0.083178
0.0867495
0.0904787
0.0943481
0.0982583
0.102398
0.106328
0.110461
0.0105336
0.00385759
0.000642901
0.00192408
0.00415503
0.00616951
0.00795365
0.00951214
0.010824
0.0121606
0.0138714
0.015651
0.0169847
0.0181413
0.0193652
0.0204528
0.0217826
0.0235831
0.025284
0.0268963
0.0286474
0.0302405
0.0317762
0.0335191
0.0354513
0.0373386
0.0392383
0.0413745
0.0436498
0.0458747
0.0480896
0.0504877
0.0529792
0.0555785
0.0582336
0.0610038
0.0638432
0.0668108
0.0698882
0.0730417
0.0763402
0.0796544
0.0831781
0.0867497
0.0904788
0.0943482
0.0982584
0.102398
0.106328
0.110461
0.0103592
0.00403515
0.000818602
0.00199297
0.00418874
0.00619168
0.00796772
0.0095217
0.0108318
0.0121669
0.0138746
0.0156517
0.0169847
0.0181416
0.0193662
0.0204547
0.0217852
0.0235861
0.0252857
0.0268968
0.0286482
0.0302415
0.031777
0.03352
0.0354522
0.0373393
0.0392389
0.0413751
0.0436504
0.0458752
0.04809
0.050488
0.0529795
0.0555787
0.0582338
0.061004
0.0638434
0.066811
0.0698884
0.0730419
0.0763403
0.0796545
0.0831783
0.0867498
0.0904789
0.0943483
0.0982585
0.102398
0.106329
0.110462
0.010186
0.00421498
0.00100174
0.00206484
0.00422307
0.00621453
0.00798246
0.00953189
0.0108401
0.0121736
0.0138778
0.0156518
0.0169842
0.0181413
0.0193666
0.0204561
0.021788
0.02359
0.0252881
0.0268973
0.0286488
0.0302422
0.0317778
0.033521
0.0354532
0.0373402
0.0392397
0.0413758
0.0436511
0.0458758
0.0480905
0.0504884
0.0529798
0.055579
0.058234
0.0610042
0.0638436
0.0668112
0.0698886
0.0730421
0.0763405
0.0796547
0.0831784
0.08675
0.0904791
0.0943484
0.0982586
0.102398
0.106329
0.110462
0.0100144
0.00439621
0.00119229
0.00213998
0.00425797
0.00623801
0.00799789
0.00954268
0.010849
0.0121806
0.0138807
0.0156514
0.016983
0.0181404
0.0193664
0.0204569
0.0217905
0.0235945
0.0252912
0.0268978
0.0286491
0.0302426
0.0317784
0.0335219
0.0354542
0.0373412
0.0392406
0.0413766
0.0436519
0.0458765
0.0480911
0.0504889
0.0529802
0.0555793
0.0582343
0.0610045
0.0638438
0.0668114
0.0698888
0.0730423
0.0763408
0.0796549
0.0831786
0.0867501
0.0904792
0.0943486
0.0982588
0.102399
0.10633
0.110463
0.00984499
0.00457801
0.00139019
0.00221862
0.00429337
0.00626208
0.00801404
0.00955413
0.0108586
0.0121879
0.0138836
0.0156504
0.0169814
0.018139
0.0193657
0.0204569
0.0217925
0.0235992
0.0252948
0.0268983
0.0286489
0.0302426
0.0317788
0.0335228
0.0354553
0.0373422
0.0392416
0.0413776
0.0436527
0.0458773
0.0480918
0.0504895
0.0529807
0.0555796
0.0582347
0.0610048
0.063844
0.0668116
0.069889
0.0730425
0.076341
0.0796552
0.0831789
0.0867503
0.0904794
0.0943488
0.098259
0.102399
0.106331
0.110464
0.00967814
0.00475958
0.00159525
0.00230107
0.00432921
0.00628667
0.00803098
0.00956632
0.0108688
0.0121958
0.0138863
0.0156487
0.0169791
0.0181372
0.0193646
0.0204564
0.0217935
0.0236032
0.0252987
0.0268987
0.0286482
0.030242
0.0317788
0.0335236
0.0354563
0.0373432
0.0392427
0.0413787
0.0436536
0.0458781
0.0480926
0.0504903
0.0529813
0.05558
0.058235
0.0610051
0.0638443
0.0668118
0.0698892
0.0730427
0.0763412
0.0796554
0.0831791
0.0867506
0.0904796
0.094349
0.0982592
0.102399
0.106332
0.110465
0.00951431
0.00494008
0.00180731
0.00238769
0.00436548
0.00631174
0.00804877
0.00957932
0.0108798
0.0122043
0.0138893
0.0156464
0.0169763
0.0181352
0.0193635
0.0204554
0.0217935
0.0236062
0.0253024
0.0268987
0.0286469
0.0302408
0.0317784
0.0335243
0.0354573
0.0373442
0.0392438
0.0413799
0.0436547
0.0458789
0.0480935
0.0504913
0.052982
0.0555804