/*--------------------------------*- C++ -*----------------------------------*\
| =========                 |                                                 |
| \\      /  F ield         | OpenFOAM: The Open Source CFD Toolbox           |
|  \\    /   O peration     | Version:  v2012                                 |
|   \\  /    A nd           | Website:  www.openfoam.com                      |
|    \\/     M anipulation  |                                                 |
\*---------------------------------------------------------------------------*/
FoamFile
{
    version     2.0;
    format      ascii;
    class       surfaceScalarField;
    location    "4";
    object      phi;
}
// * * * * * * * * * * * * * * * * * * * * * * * * * * * * * * * * * * * * * //

dimensions      [0 3 -1 0 0 0 0];
oriented        oriented;


internalField   nonuniform List<scalar> 
13830
(
1.0044e-06
-2.3189e-07
9.02724e-07
8.15447e-07
8.79033e-07
-5.76712e-07
9.98754e-07
-6.67467e-07
9.57849e-07
9.1939e-07
8.62621e-07
2.329e-07
9.34006e-07
-1.21367e-07
9.11291e-07
-9.73314e-07
9.45333e-07
-5.7001e-07
9.3677e-07
-2.91626e-07
9.53104e-07
1.64793e-07
9.27234e-07
1.26863e-07
9.32155e-07
2.44884e-07
9.27982e-07
1.83037e-07
9.28253e-07
1.63639e-07
9.30629e-07
1.92678e-07
9.2744e-07
1.69695e-07
9.27997e-07
1.99656e-07
9.21377e-07
1.57393e-07
1.74487e-07
9.11919e-07
1.04147e-06
-3.00831e-07
9.47086e-07
9.09834e-07
9.21398e-07
-5.51024e-07
1.03565e-06
-7.81715e-07
9.92837e-07
9.622e-07
9.04736e-07
3.21001e-07
9.69225e-07
-1.85856e-07
9.44619e-07
-9.48708e-07
9.81357e-07
-6.06748e-07
9.70926e-07
-2.81196e-07
9.88227e-07
1.47492e-07
9.62449e-07
1.52641e-07
9.6605e-07
2.41284e-07
9.6445e-07
1.84637e-07
9.61326e-07
1.66763e-07
9.69507e-07
1.84497e-07
9.58216e-07
1.80986e-07
9.68982e-07
1.88889e-07
9.4827e-07
1.78105e-07
1.62302e-07
9.60455e-07
1.07624e-06
-3.67619e-07
9.99252e-07
9.86822e-07
9.68665e-07
-5.20436e-07
1.06962e-06
-8.82671e-07
1.03121e-06
1.00061e-06
9.55533e-07
3.96674e-07
1.00708e-06
-2.37406e-07
9.85129e-07
-9.26754e-07
1.01718e-06
-6.38803e-07
1.01243e-06
-2.76436e-07
1.02171e-06
1.38204e-07
1.00744e-06
1.6691e-07
9.98563e-07
2.50163e-07
1.00854e-06
1.74659e-07
9.93956e-07
1.81349e-07
1.01005e-06
1.68401e-07
9.91749e-07
1.99289e-07
1.00354e-06
1.77095e-07
9.85137e-07
1.96511e-07
1.58993e-07
9.88447e-07
1.1094e-06
-4.29242e-07
1.0542e-06
1.04202e-06
1.01796e-06
-4.84198e-07
1.10195e-06
-9.66659e-07
1.07264e-06
1.02993e-06
1.0118e-06
4.57508e-07
1.04624e-06
-2.71837e-07
1.03051e-06
-9.11029e-07
1.05344e-06
-6.61732e-07
1.05758e-06
-2.80574e-07
1.0576e-06
1.38182e-07
1.05455e-06
1.69957e-07
1.03617e-06
2.68545e-07
1.05079e-06
1.60035e-07
1.03305e-06
1.99098e-07
1.04627e-06
1.55174e-07
1.0316e-06
2.13964e-07
1.03658e-06
1.72114e-07
1.02537e-06
2.07718e-07
1.61836e-07
1.02253e-06
1.14111e-06
-4.82801e-07
1.10813e-06
1.07501e-06
1.06769e-06
-4.43757e-07
1.1331e-06
-1.03207e-06
1.11628e-06
1.04675e-06
1.07011e-06
5.03678e-07
1.0865e-06
-2.88232e-07
1.0777e-06
-9.02223e-07
1.09018e-06
-6.74213e-07
1.10282e-06
-2.93217e-07
1.09758e-06
1.43419e-07
1.10068e-06
1.66859e-07
1.08049e-06
2.88738e-07
1.09257e-06
1.47956e-07
1.07837e-06
2.133e-07
1.08493e-06
1.48608e-07
1.07536e-06
2.23535e-07
1.07507e-06
1.72405e-07
1.0677e-06
2.15088e-07
1.66956e-07
1.06258e-06
1.17215e-06
-5.26104e-07
1.15843e-06
1.08872e-06
1.1173e-06
-4.02623e-07
1.16405e-06
-1.07882e-06
1.16048e-06
1.05031e-06
1.12732e-06
5.36842e-07
1.12858e-06
-2.89492e-07
1.12445e-06
-8.98095e-07
1.12814e-06
-6.77897e-07
1.14634e-06
-3.11417e-07
1.14171e-06
1.48042e-07
1.14658e-06
1.61989e-07
1.12979e-06
3.05535e-07
1.13706e-06
1.40681e-07
1.12696e-06
2.23406e-07
1.1286e-06
1.46965e-07
1.12132e-06
2.30814e-07
1.11866e-06
1.75066e-07
1.11244e-06
2.21306e-07
1.72556e-07
1.10684e-06
1.20379e-06
-5.58192e-07
1.2045e-06
1.08801e-06
1.16696e-06
-3.65088e-07
1.19601e-06
-1.10786e-06
1.20358e-06
1.04273e-06
1.18156e-06
5.58863e-07
1.17307e-06
-2.81005e-07
1.1705e-06
-8.95521e-07
1.16786e-06
-6.75253e-07
1.18832e-06
-3.31877e-07
1.18798e-06
1.48376e-07
1.19335e-06
1.5662e-07
1.18064e-06
3.18245e-07
1.18438e-06
1.36944e-07
1.17612e-06
2.31668e-07
1.1755e-06
1.47578e-07
1.16857e-06
2.37748e-07
1.16509e-06
1.78542e-07
1.15921e-06
2.27193e-07
1.78055e-07
1.15371e-06
1.2375e-06
-5.79511e-07
1.24753e-06
1.07798e-06
1.21714e-06
-3.34696e-07
1.23015e-06
-1.12087e-06
1.24472e-06
1.02816e-06
1.23244e-06
5.71144e-07
1.21992e-06
-2.68487e-07
1.2168e-06
-8.92399e-07
1.20933e-06
-6.6778e-07
1.22954e-06
-3.5209e-07
1.23394e-06
1.4397e-07
1.24059e-06
1.4997e-07
1.23056e-06
3.28282e-07
1.23269e-06
1.34814e-07
1.2246e-06
2.39753e-07
1.22329e-06
1.48895e-07
1.21641e-06
2.44626e-07
1.21261e-06
1.82342e-07
1.2072e-06
2.32602e-07
1.83331e-07
1.20192e-06
1.27446e-06
-5.91613e-07
1.28958e-06
1.06285e-06
1.26815e-06
-3.13265e-07
1.26737e-06
-1.12009e-06
1.28443e-06
1.01109e-06
1.28083e-06
5.74749e-07
1.26862e-06
-2.56279e-07
1.26445e-06
-8.88223e-07
1.25252e-06
-6.55851e-07
1.27078e-06
-3.70352e-07
1.2784e-06
1.36344e-07
1.28727e-06
1.411e-07
1.27867e-06
3.36882e-07
1.28039e-06
1.33096e-07
1.27213e-06
2.48018e-07
1.27063e-06
1.50391e-07
1.26432e-06
2.50936e-07
1.26031e-06
1.86353e-07
1.25577e-06
2.37146e-07
1.88309e-07
1.25079e-06
1.31522e-06
-5.96558e-07
1.33256e-06
1.04551e-06
1.32012e-06
-3.00822e-07
1.30822e-06
-1.10819e-06
1.3244e-06
9.94915e-07
1.32833e-06
5.70817e-07
1.31873e-06
-2.46676e-07
1.31407e-06
-8.83563e-07
1.29772e-06
-6.39505e-07
1.31284e-06
-3.85471e-07
1.32161e-06
1.2758e-07
1.33281e-06
1.29899e-07
1.32516e-06
3.44534e-07
1.32687e-06
1.3138e-07
1.31883e-06
2.5606e-07
1.31725e-06
1.51967e-07
1.31216e-06
2.56033e-07
1.30805e-06
1.90459e-07
1.3047e-06
2.40493e-07
1.92832e-07
1.30018e-06
1.35976e-06
-5.96301e-07
1.37767e-06
1.02761e-06
1.37304e-06
-2.96197e-07
1.35286e-06
-1.08801e-06
1.36652e-06
9.81255e-07
1.37659e-06
5.60751e-07
1.37009e-06
-2.40178e-07
1.36575e-06
-8.79218e-07
1.34534e-06
-6.19097e-07
1.35655e-06
-3.96682e-07
1.36458e-06
1.19549e-07
1.37742e-06
1.17064e-07
1.37065e-06
3.51303e-07
1.37234e-06
1.29691e-07
1.3651e-06
2.63301e-07
1.36345e-06
1.53616e-07
1.3601e-06
2.59379e-07
1.35613e-06
1.94433e-07
1.35418e-06
2.4244e-07
1.96672e-07
1.35034e-06
1.40767e-06
-5.92322e-07
1.42537e-06
1.00991e-06
1.42692e-06
-2.9775e-07
1.40111e-06
-1.0622e-06
1.41212e-06
9.70255e-07
1.42678e-06
5.46085e-07
1.4228e-06
-2.36195e-07
1.41923e-06
-8.75653e-07
1.39553e-06
-5.95392e-07
1.40253e-06
-4.03686e-07
1.40848e-06
1.13605e-07
1.4219e-06
1.03644e-07
1.41603e-06
3.57166e-07
1.41751e-06
1.28217e-07
1.41153e-06
2.6928e-07
1.40977e-06
1.55373e-07
1.40851e-06
2.60634e-07
1.40495e-06
1.97992e-07
1.40451e-06
2.42887e-07
1.99607e-07
1.40157e-06
1.4585e-06
-5.85576e-07
1.4757e-06
9.92711e-07
1.48178e-06
-3.03829e-07
1.45258e-06
-1.033e-06
1.46161e-06
9.61221e-07
1.47946e-06
5.28245e-07
1.47703e-06
-2.33772e-07
1.47423e-06
-8.72848e-07
1.44817e-06
-5.69334e-07
1.45113e-06
-4.06643e-07
1.45424e-06
1.10487e-07
1.46726e-06
9.06272e-08
1.46232e-06
3.62104e-07
1.46335e-06
1.27186e-07
1.45893e-06
2.73707e-07
1.45693e-06
1.57369e-07
1.45788e-06
2.59681e-07
1.45497e-06
2.00908e-07
1.45601e-06
2.41847e-07
2.01485e-07
1.45413e-06
1.51195e-06
-5.76654e-07
1.52864e-06
9.76026e-07
1.53769e-06
-3.12882e-07
1.50685e-06
-1.00216e-06
1.51488e-06
9.53185e-07
1.53471e-06
5.08415e-07
1.53297e-06
-2.32022e-07
1.53054e-06
-8.70428e-07
1.50302e-06
-5.41806e-07
1.50243e-06
-4.06054e-07
1.50257e-06
1.10343e-07
1.51445e-06
7.87537e-08
1.51052e-06
3.66034e-07
1.51091e-06
1.26792e-07
1.5082e-06
2.7642e-07
1.50577e-06
1.59791e-07
1.5088e-06
2.56655e-07
1.50663e-06
2.03075e-07
1.50901e-06
2.39469e-07
2.02271e-07
1.50823e-06
1.56797e-06
-5.66013e-07
1.58424e-06
9.59762e-07
1.59474e-06
-3.23385e-07
1.56363e-06
-9.71053e-07
1.57163e-06
9.45189e-07
1.59248e-06
4.87558e-07
1.59072e-06
-2.30262e-07
1.58817e-06
-8.67874e-07
1.55988e-06
-5.13513e-07
1.55645e-06
-4.02624e-07
1.55395e-06
1.12837e-07
1.56419e-06
6.85161e-08
1.56147e-06
3.68759e-07
1.56109e-06
1.27167e-07
1.56016e-06
2.77349e-07
1.55719e-06
1.62762e-07
1.56192e-06
2.51927e-07
1.56048e-06
2.04517e-07
1.56392e-06
2.36026e-07
2.02054e-07
1.56414e-06
1.62667e-06
-5.54144e-07
1.64269e-06
9.43744e-07
1.65309e-06
-3.33783e-07
1.62283e-06
-9.40792e-07
1.63163e-06
9.36383e-07
1.6527e-06
4.66489e-07
1.65041e-06
-2.27965e-07
1.64723e-06
-8.64701e-07
1.6187e-06
-4.84979e-07
1.61322e-06
-3.97146e-07
1.60878e-06
1.17282e-07
1.61705e-06
6.02395e-08
1.61584e-06
3.69969e-07
1.61461e-06
1.28396e-07
1.61551e-06
2.76451e-07
1.61194e-06
1.66337e-07
1.61787e-06
2.45998e-07
1.61704e-06
2.05344e-07
1.62119e-06
2.31874e-07
2.01023e-07
1.62222e-06
1.68822e-06
-5.41611e-07
1.70421e-06
9.27746e-07
1.71301e-06
-3.42574e-07
1.6845e-06
-9.12286e-07
1.69482e-06
9.2606e-07
1.71538e-06
4.45932e-07
1.71212e-06
-2.24705e-07
1.70797e-06
-8.60552e-07
1.67957e-06
-4.5658e-07
1.67283e-06
-3.90401e-07
1.66735e-06
1.22762e-07
1.67344e-06
5.41435e-08
1.67412e-06
3.69296e-07
1.67202e-06
1.30493e-07
1.67471e-06
2.73764e-07
1.67056e-06
1.70479e-07
1.67716e-06
2.39403e-07
1.6768e-06
2.05707e-07
1.68128e-06
2.27387e-07
1.9942e-07
1.68289e-06
1.7527e-06
-5.2899e-07
1.76892e-06
9.11526e-07
1.77484e-06
-3.485e-07
1.74878e-06
-8.86225e-07
1.76114e-06
9.13698e-07
1.78057e-06
4.26507e-07
1.776e-06
-2.20137e-07
1.77068e-06
-8.55231e-07
1.74269e-06
-4.28592e-07
1.73534e-06
-3.83049e-07
1.72986e-06
1.2824e-07
1.73366e-06
5.03435e-08
1.73654e-06
3.66412e-07
1.73361e-06
1.33425e-07
1.73796e-06
2.69418e-07
1.73337e-06
1.7507e-07
1.74011e-06
2.32655e-07
1.74007e-06
2.05748e-07
1.74456e-06
2.22904e-07
1.97501e-07
1.74648e-06
1.82009e-06
-5.16746e-07
1.83674e-06
8.94873e-07
1.839e-06
-3.50753e-07
1.8158e-06
-8.63025e-07
1.83049e-06
8.99004e-07
1.84833e-06
4.08672e-07
1.84222e-06
-2.14031e-07
1.83567e-06
-8.48679e-07
1.8083e-06
-4.01228e-07
1.80078e-06
-3.75522e-07
1.79634e-06
1.32678e-07
1.79787e-06
4.88135e-08
1.8032e-06
3.61084e-07
1.79947e-06
1.37148e-07
1.80527e-06
2.63627e-07
1.80039e-06
1.7995e-07
1.80685e-06
2.2619e-07
1.80701e-06
2.05587e-07
1.81123e-06
2.18691e-07
1.95484e-07
1.81324e-06
1.89029e-06
-5.05141e-07
1.90753e-06
8.77641e-07
1.90585e-06
-3.49077e-07
1.88562e-06
-8.42793e-07
1.9027e-06
8.81922e-07
1.91872e-06
3.92654e-07
1.91099e-06
-2.06302e-07
1.90324e-06
-8.40924e-07
1.87669e-06
-3.74679e-07
1.86911e-06
-3.6795e-07
1.86662e-06
1.35168e-07
1.86608e-06
4.93562e-08
1.87397e-06
3.53196e-07
1.8695e-06
1.41614e-07
1.87646e-06
2.56672e-07
1.87147e-06
1.84937e-07
1.87732e-06
2.20338e-07
1.8776e-06
2.05309e-07
1.88137e-06
2.14918e-07
1.93534e-07
1.88332e-06
1.96317e-06
-4.94211e-07
1.98106e-06
8.59751e-07
1.97571e-06
-3.43723e-07
1.95826e-06
-8.25346e-07
1.97757e-06
8.62613e-07
1.99179e-06
3.78431e-07
1.98252e-06
-1.97031e-07
1.97362e-06
-8.32019e-07
1.9481e-06
-3.4916e-07
1.94031e-06
-3.60157e-07
1.94041e-06
1.35067e-07
1.93814e-06
5.16237e-08
1.94855e-06
3.42781e-07
1.94342e-06
1.46745e-07
1.95122e-06
2.4887e-07
1.94631e-06
1.89851e-07
1.95135e-06
2.15302e-07
1.95169e-06
2.04964e-07
1.95496e-06
2.11655e-07
1.91749e-07
1.95674e-06
2.03865e-06
-4.83811e-07
2.05723e-06
8.41171e-07
2.04878e-06
-3.35273e-07
2.03372e-06
-8.10283e-07
2.05494e-06
8.41392e-07
2.0676e-06
3.65766e-07
2.05702e-06
-1.86451e-07
2.04699e-06
-8.21981e-07
2.02277e-06
-3.24944e-07
2.01435e-06
-3.51739e-07
2.01734e-06
1.32075e-07
2.01374e-06
5.52288e-08
2.0265e-06
3.30025e-07
2.02084e-06
1.52397e-07
2.02917e-06
2.40545e-07
2.02452e-06
1.94503e-07
2.02866e-06
2.11156e-07
2.02905e-06
2.04574e-07
2.03184e-06
2.08871e-07
1.90165e-07
2.03342e-06
2.11674e-06
-4.73709e-07
2.13603e-06
8.21881e-07
2.12518e-06
-3.2443e-07
2.11198e-06
-7.97083e-07
2.13472e-06
8.18655e-07
2.14619e-06
3.54299e-07
2.13467e-06
-1.74933e-07
2.12344e-06
-8.10756e-07
2.10086e-06
-3.0236e-07
2.09132e-06
-3.42198e-07
2.09715e-06
1.26242e-07
2.09253e-06
5.98511e-08
2.10729e-06
3.15265e-07
2.10132e-06
1.58367e-07
2.10986e-06
2.32e-07
2.10567e-06
1.98696e-07
2.10896e-06
2.07865e-07
2.10939e-06
2.04146e-07
2.1118e-06
2.06458e-07
1.88763e-07
2.1132e-06
2.19754e-06
-4.63662e-07
2.21758e-06
8.01839e-07
2.205e-06
-3.11855e-07
2.19311e-06
-7.85188e-07
2.21694e-06
7.94824e-07
2.22758e-06
3.43655e-07
2.2156e-06
-1.62948e-07
2.20304e-06
-7.98202e-07
2.18248e-06
-2.81795e-07
2.17134e-06
-3.31059e-07
2.17968e-06
1.17899e-07
2.17424e-06
6.52945e-08
2.19051e-06
2.98996e-07
2.18447e-06
1.64406e-07
2.19294e-06
2.23528e-07
2.1894e-06
2.02241e-07
2.19193e-06
2.05333e-07
2.19239e-06
2.03688e-07
2.1946e-06
2.04245e-07
1.8748e-07
2.19588e-06
2.2812e-06
-4.53468e-07
2.30207e-06
7.80972e-07
2.2883e-06
-2.98089e-07
2.27717e-06
-7.7406e-07
2.3017e-06
7.70295e-07
2.31183e-06
3.33527e-07
2.2999e-06
-1.51021e-07
2.28581e-06
-7.84111e-07
2.26766e-06
-2.63647e-07
2.25461e-06
-3.18001e-07
2.26495e-06
1.07558e-07
2.25877e-06
7.14762e-08
2.27593e-06
2.81831e-07
2.27007e-06
1.70261e-07
2.2782e-06
2.15407e-07
2.27544e-06
2.05001e-07
2.27734e-06
2.03429e-07
2.27776e-06
2.03263e-07
2.28002e-06
2.01991e-07
1.86225e-07
2.28127e-06
2.3679e-06
-4.42979e-07
2.38969e-06
7.59178e-07
2.37514e-06
-2.83544e-07
2.36429e-06
-7.63201e-07
2.38917e-06
7.45414e-07
2.39898e-06
3.23712e-07
2.38765e-06
-1.39687e-07
2.37177e-06
-7.6823e-07
2.35637e-06
-2.48255e-07
2.3413e-06
-3.02922e-07
2.35306e-06
9.57943e-08
2.34619e-06
7.83464e-08
2.36357e-06
2.64456e-07
2.35813e-06
1.75696e-07
2.36564e-06
2.07901e-07
2.36371e-06
2.06923e-07
2.36508e-06
2.02058e-07
2.36532e-06
2.03031e-07
2.36796e-06
1.99349e-07
1.84909e-07
2.36928e-06
2.45779e-06
-4.32088e-07
2.48062e-06
7.36341e-07
2.46561e-06
-2.68532e-07
2.45457e-06
-7.52162e-07
2.47953e-06
7.2046e-07
2.48912e-06
3.14123e-07
2.47886e-06
-1.2943e-07
2.46096e-06
-7.50327e-07
2.44854e-06
-2.35842e-07
2.43155e-06
-2.85928e-07
2.4442e-06
8.31384e-08
2.43675e-06
8.58017e-08
2.45365e-06
2.47555e-07
2.44883e-06
1.80515e-07
2.45548e-06
2.01256e-07
2.45438e-06
2.0802e-07
2.45479e-06
2.01648e-07
2.45492e-06
2.02896e-07
2.45849e-06
1.95778e-07
1.83471e-07
2.45993e-06
2.55103e-06
-4.20718e-07
2.57502e-06
7.12349e-07
2.55979e-06
-2.53299e-07
2.54817e-06
-7.40539e-07
2.57301e-06
6.95619e-07
2.58236e-06
3.04772e-07
2.57358e-06
-1.20649e-07
2.55349e-06
-7.3024e-07
2.54415e-06
-2.26498e-07
2.52545e-06
-2.67234e-07
2.53856e-06
7.00302e-08
2.53073e-06
9.36366e-08
2.54656e-06
2.31716e-07
2.54249e-06
1.84594e-07
2.5481e-06
1.9564e-07
2.54767e-06
2.08449e-07
2.55195e-06
1.97368e-07
2.55413e-06
2.00722e-07
2.55182e-06
1.98081e-07
1.81897e-07
2.5534e-06
2.64778e-06
-4.08813e-07
2.67301e-06
6.87113e-07
2.65775e-06
-2.38039e-07
2.6452e-06
-7.27983e-07
2.66985e-06
6.70965e-07
2.67887e-06
2.95756e-07
2.67186e-06
-1.13638e-07
2.64954e-06
-7.0792e-07
2.64319e-06
-2.20148e-07
2.6231e-06
-2.47149e-07
2.63628e-06
5.68526e-08
2.62843e-06
1.01487e-07
2.6427e-06
2.17447e-07
2.63945e-06
1.87835e-07
2.6443e-06
1.90791e-07
2.64276e-06
2.09994e-07
2.64269e-06
1.97436e-07
2.64322e-06
2.00193e-07
2.64824e-06
1.93056e-07
1.80151e-07
2.64999e-06
2.74818e-06
-3.9634e-07
2.77471e-06
6.60585e-07
2.75957e-06
-2.22907e-07
2.7458e-06
-7.14212e-07
2.77031e-06
6.46463e-07
2.77886e-06
2.872e-07
2.77375e-06
-1.08527e-07
2.74929e-06
-6.83459e-07
2.74566e-06
-2.16517e-07
2.72462e-06
-2.26109e-07
2.73742e-06
4.40524e-08
2.73022e-06
1.08687e-07
2.74227e-06
2.0539e-07
2.74034e-06
1.89773e-07
2.74395e-06
1.87176e-07
2.74209e-06
2.11859e-07
2.74088e-06
1.98646e-07
2.74106e-06
2.00005e-07
2.74831e-06
1.85816e-07
1.78488e-07
2.74997e-06
2.85241e-06
-3.83289e-07
2.88022e-06
6.32777e-07
2.86533e-06
-2.0802e-07
2.85012e-06
-6.99007e-07
2.87463e-06
6.21954e-07
2.88256e-06
2.7927e-07
2.87936e-06
-1.05323e-07
2.85291e-06
-6.57006e-07
2.85162e-06
-2.15227e-07
2.83012e-06
-2.04613e-07
2.8421e-06
3.20711e-08
2.83628e-06
1.14505e-07
2.8456e-06
1.96071e-07
2.84524e-06
1.90135e-07
2.84834e-06
1.84083e-07
2.85427e-06
2.05928e-07
2.85828e-06
1.94635e-07
2.86026e-06
1.98021e-07
2.85237e-06
1.93708e-07
1.77248e-07
2.85361e-06
2.96064e-06
-3.69687e-07
2.98965e-06
6.0377e-07
2.97509e-06
-1.93466e-07
2.9583e-06
-6.82213e-07
2.98308e-06
5.97174e-07
2.9902e-06
2.72145e-07
2.98879e-06
-1.0391e-07
2.96057e-06
-6.28786e-07
2.96119e-06
-2.15842e-07
2.93966e-06
-1.83082e-07
2.95054e-06
2.11847e-08
2.94663e-06
1.18418e-07
2.95333e-06
1.89368e-07
2.95502e-06
1.88444e-07
2.95517e-06
1.83932e-07
2.95333e-06
2.07769e-07
2.94973e-06
1.98237e-07
2.94918e-06
1.98575e-07
2.9602e-06
1.82683e-07
1.75937e-07
2.96151e-06
3.07306e-06
-3.55592e-07
3.10312e-06
5.73716e-07
3.08896e-06
-1.79309e-07
3.07048e-06
-6.63732e-07
3.09585e-06
5.71807e-07
3.10203e-06
2.65964e-07
3.10217e-06
-1.04055e-07
3.07248e-06
-5.99095e-07
3.0745e-06
-2.17857e-07
3.05333e-06
-1.61913e-07
3.06301e-06
1.1502e-08
3.0609e-06
1.20529e-07
3.06598e-06
1.84288e-07
3.06787e-06
1.86553e-07
3.07093e-06
1.80871e-07
3.07925e-06
1.99457e-07
3.08281e-06
1.94669e-07
3.08435e-06
1.97038e-07
3.07248e-06
1.94552e-07
1.74758e-07
3.07366e-06
3.18987e-06
-3.41102e-07
3.22074e-06
5.42844e-07
3.20708e-06
-1.65642e-07
3.1868e-06
-6.4346e-07
3.21314e-06
5.45468e-07
3.21823e-06
2.60875e-07
3.21971e-06
-1.0553e-07
3.1888e-06
-5.68184e-07
3.19184e-06
-2.20901e-07
3.17114e-06
-1.41217e-07
3.17992e-06
2.72704e-09
3.17825e-06
1.222e-07
3.18455e-06
1.77986e-07
3.18509e-06
1.86013e-07
3.18868e-06
1.77278e-07
3.18037e-06
2.07768e-07
3.17746e-06
1.97584e-07
3.17885e-06
1.95647e-07
3.18844e-06
1.8496e-07
1.72496e-07
3.1907e-06
3.31125e-06
-3.26338e-07
3.34267e-06
5.11423e-07
3.32956e-06
-1.5253e-07
3.30749e-06
-6.21393e-07
3.33503e-06
5.1793e-07
3.33911e-06
2.56794e-07
3.34146e-06
-1.07881e-07
3.30993e-06
-5.36649e-07
3.31311e-06
-2.2409e-07
3.29383e-06
-1.21928e-07
3.30075e-06
-4.19517e-09
3.30099e-06
1.21957e-07
3.30611e-06
1.72869e-07
3.30094e-06
1.91179e-07
3.29943e-06
1.78786e-07
3.29984e-06
2.07356e-07
3.29815e-06
1.99275e-07
3.29882e-06
1.94977e-07
3.3099e-06
1.73883e-07
1.70134e-07
3.31226e-06
3.43739e-06
-3.11449e-07
3.46906e-06
4.79753e-07
3.4566e-06
-1.40062e-07
3.43274e-06
-5.97539e-07
3.46158e-06
4.89093e-07
3.46489e-06
2.53482e-07
3.46756e-06
-1.10552e-07
3.43623e-06
-5.05315e-07
3.43841e-06
-2.26269e-07
3.42188e-06
-1.05397e-07
3.42538e-06
-7.69305e-09
3.42904e-06
1.18293e-07
3.42934e-06
1.7257e-07
3.43924e-06
1.8128e-07
3.44221e-06
1.75816e-07
3.4499e-06
1.9966e-07
3.45446e-06
1.94715e-07
3.4545e-06
1.94946e-07
3.43715e-06
1.91229e-07
1.69066e-07
3.43822e-06
3.5685e-06
-2.96602e-07
3.60008e-06
4.48174e-07
3.58849e-06
-1.2847e-07
3.56266e-06
-5.71716e-07
3.59304e-06
4.58716e-07
3.59552e-06
2.50998e-07
3.59857e-06
-1.13598e-07
3.56716e-06
-4.73903e-07
3.56907e-06
-2.28186e-07
3.55306e-06
-8.93811e-08
3.55714e-06
-1.17796e-08
3.55875e-06
1.16682e-07
3.56419e-06
1.6713e-07
3.55966e-06
1.85811e-07
3.55684e-06
1.78635e-07
3.55453e-06
2.01976e-07
3.55339e-06
1.95853e-07
3.55566e-06
1.92677e-07
3.56715e-06
1.79737e-07
1.66378e-07
3.56984e-06
3.70471e-06
-2.81929e-07
3.73594e-06
4.16943e-07
3.72534e-06
-1.17866e-07
3.69763e-06
-5.44009e-07
3.72932e-06
4.27029e-07
3.73146e-06
2.48861e-07
3.73415e-06
-1.1629e-07
3.70382e-06
-4.43572e-07
3.70406e-06
-2.28434e-07
3.69016e-06
-7.54732e-08
3.69275e-06
-1.4377e-08
3.69518e-06
1.14253e-07
3.7013e-06
1.61011e-07
3.69261e-06
1.94507e-07
3.69152e-06
1.79724e-07
3.6898e-06
2.03698e-07
3.68845e-06
1.972e-07
3.69011e-06
1.91019e-07
3.70347e-06
1.66372e-07
1.6383e-07
3.70602e-06
3.84621e-06
-2.67552e-07
3.87686e-06
3.86291e-07
3.86738e-06
-1.08378e-07
3.83794e-06
-5.14572e-07
3.8705e-06
3.94469e-07
3.87293e-06
2.46427e-07
3.87429e-06
-1.17643e-07
3.84671e-06
-4.15995e-07
3.84313e-06
-2.24851e-07
3.83397e-06
-6.63201e-08
3.82986e-06
-1.02624e-08
3.83841e-06
1.05699e-07
3.83409e-06
1.65338e-07
3.85198e-06
1.76617e-07
3.85688e-06
1.7482e-07
3.86494e-06
1.95638e-07
3.87043e-06
1.91705e-07
3.86856e-06
1.92898e-07
3.84662e-06
1.88311e-07
1.63716e-07
3.84673e-06
3.9932e-06
-2.53596e-07
4.02295e-06
3.56536e-07
4.01504e-06
-1.00466e-07
3.98352e-06
-4.83047e-07
4.01712e-06
3.60862e-07
4.01948e-06
2.44069e-07
4.02053e-06
-1.18693e-07
3.99299e-06
-3.88452e-07
3.99081e-06
-2.22668e-07
3.97793e-06
-5.34441e-08
3.98074e-06
-1.30683e-08
3.98581e-06
1.00628e-07
3.99209e-06
1.59049e-07
3.97848e-06
1.90229e-07
3.97688e-06
1.76428e-07
3.97525e-06
1.97264e-07
3.97503e-06
1.91925e-07
3.97805e-06
1.89877e-07
3.99095e-06
1.75408e-07
1.60753e-07
3.99392e-06
4.14578e-06
-2.40097e-07
4.17454e-06
3.27775e-07
4.16816e-06
-9.40827e-08
4.13505e-06
-4.49941e-07
4.16889e-06
3.27023e-07
4.17206e-06
2.40906e-07
4.17134e-06
-1.17975e-07
4.14615e-06
-3.63267e-07
4.14248e-06
-2.1899e-07
4.12982e-06
-4.07882e-08
4.13301e-06
-1.62578e-08
4.1264e-06
1.07239e-07
4.12737e-06
1.5808e-07
4.12765e-06
1.89943e-07
4.12811e-06
1.75972e-07
4.12689e-06
1.98487e-07
4.12607e-06
1.92745e-07
4.12875e-06
1.87191e-07
4.1433e-06
1.60858e-07
1.58249e-07
4.14581e-06
4.30419e-06
-2.27099e-07
4.33182e-06
3.0014e-07
4.32696e-06
-8.92201e-08
4.2928e-06
-4.15775e-07
4.32595e-06
2.9387e-07
4.33118e-06
2.35678e-07
4.32593e-06
-1.12728e-07
4.30734e-06
-3.4468e-07
4.29653e-06
-2.08182e-07
4.29197e-06
-3.62201e-08
4.28132e-06
-5.6071e-09
4.30081e-06
8.77425e-08
4.30438e-06
1.54513e-07
4.31424e-06
1.80082e-07
4.31871e-06
1.71502e-07
4.32939e-06
1.87805e-07
4.33484e-06
1.87296e-07
4.3311e-06
1.90934e-07
4.30421e-06
1.8775e-07
1.60308e-07
4.30215e-06
4.46868e-06
-2.14691e-07
4.49486e-06
2.73961e-07
4.49187e-06
-8.62303e-08
4.4565e-06
-3.8041e-07
4.48933e-06
2.6104e-07
4.49527e-06
2.29741e-07
4.48964e-06
-1.07099e-07
4.46983e-06
-3.24874e-07
4.46186e-06
-2.00213e-07
4.4532e-06
-2.75601e-08
4.44474e-06
2.85339e-09
4.44596e-06
8.65252e-08
4.44676e-06
1.53718e-07
4.44707e-06
1.79764e-07
4.4467e-06
1.71877e-07
4.44898e-06
1.85521e-07
4.44667e-06
1.89609e-07
4.44983e-06
1.8777e-07
4.46444e-06
1.73144e-07
1.58182e-07
4.46657e-06
4.63936e-06
-2.0284e-07
4.66418e-06
2.49141e-07
4.66264e-06
-8.46939e-08
4.62703e-06
-3.44803e-07
4.65848e-06
2.29591e-07
4.66598e-06
2.22241e-07
4.6594e-06
-1.00521e-07
4.63798e-06
-3.03452e-07
4.63381e-06
-1.96045e-07
4.61986e-06
-1.36103e-08
4.61633e-06
6.38749e-09
4.61411e-06
8.87411e-08
4.61698e-06
1.50849e-07
4.61504e-06
1.81707e-07
4.61654e-06
1.70373e-07
4.61774e-06
1.8432e-07
4.62066e-06
1.86688e-07
4.62497e-06
1.83462e-07
4.6324e-06
1.65718e-07
1.5397e-07
4.63661e-06
4.81652e-06
-1.91573e-07
4.83988e-06
2.25786e-07
4.83969e-06
-8.45064e-08
4.80452e-06
-3.09635e-07
4.8336e-06
2.00515e-07
4.84395e-06
2.1189e-07
4.83445e-06
-9.10239e-08
4.81444e-06
-2.83446e-07
4.80868e-06
-1.90283e-07
4.79739e-06
-2.31713e-09
4.78739e-06
1.63866e-08
4.7896e-06
8.65358e-08
4.79214e-06
1.48302e-07
4.79116e-06
1.82691e-07
4.79168e-06
1.69849e-07
4.79558e-06
1.80422e-07
4.80295e-06
1.79319e-07
4.81104e-06
1.75376e-07
4.80832e-06
1.68434e-07
1.49682e-07
4.81261e-06
5.00044e-06
-1.80938e-07
5.02217e-06
2.04053e-07
5.02334e-06
-8.568e-08
4.98894e-06
-2.75229e-07
5.01536e-06
1.74095e-07
5.02832e-06
1.98928e-07
5.01703e-06
-7.97365e-08
4.99692e-06
-2.63334e-07
4.99016e-06
-1.83522e-07
4.98104e-06
6.79882e-09
4.96981e-06
2.76244e-08
4.97125e-06
8.50908e-08
4.9743e-06
1.45249e-07
4.97435e-06
1.82642e-07
4.97444e-06
1.69764e-07
4.97884e-06
1.76014e-07
4.98069e-06
1.77478e-07
4.98159e-06
1.74471e-07
4.99106e-06
1.58962e-07
1.45479e-07
4.99526e-06
5.19128e-06
-1.70907e-07
5.21161e-06
1.83725e-07
5.2136e-06
-8.76718e-08
5.18099e-06
-2.42615e-07
5.20346e-06
1.51624e-07
5.21958e-06
1.82808e-07
5.20662e-06
-6.67794e-08
5.18641e-06
-2.43118e-07
5.17821e-06
-1.75331e-07
5.17137e-06
1.3647e-08
5.15929e-06
3.96966e-08
5.1603e-06
8.40868e-08
5.16332e-06
1.42226e-07
5.16471e-06
1.81252e-07
5.1643e-06
1.70175e-07
5.1691e-06
1.71214e-07
5.17486e-06
1.71722e-07
5.18288e-06
1.66444e-07
5.18122e-06
1.60627e-07
1.41964e-07
5.18473e-06
5.3894e-06
-1.61529e-07
5.40825e-06
1.64878e-07
5.41096e-06
-9.03833e-08
5.38068e-06
-2.12338e-07
5.39856e-06
1.33743e-07
5.41685e-06
1.64517e-07
5.40407e-06
-5.39921e-08
5.38246e-06
-2.21507e-07
5.37381e-06
-1.66687e-07
5.36828e-06
1.91788e-08
5.35677e-06
5.12029e-08
5.35646e-06
8.44028e-08
5.35983e-06
1.38853e-07
5.36232e-06
1.78762e-07
5.3618e-06
1.70692e-07
5.36547e-06
1.67548e-07
5.3684e-06
1.6879e-07
5.37041e-06
1.64432e-07
5.37833e-06
1.52712e-07
1.38671e-07
5.38162e-06
5.59501e-06
-1.52803e-07
5.61255e-06
1.47343e-07
5.61559e-06
-9.34221e-08
5.58872e-06
-1.8547e-07
5.60116e-06
1.21299e-07
5.62079e-06
1.44885e-07
5.60892e-06
-4.21214e-08
5.58619e-06
-1.98771e-07
5.57681e-06
-1.5731e-07
5.5729e-06
2.30862e-08
5.56193e-06
6.21745e-08
5.5603e-06
8.60325e-08
5.5639e-06
1.35253e-07
5.56725e-06
1.75408e-07
5.56692e-06
1.71028e-07
5.56998e-06
1.64481e-07
5.57395e-06
1.64825e-07
5.57801e-06
1.60369e-07
5.58306e-06
1.47662e-07
1.3562e-07
5.58611e-06
5.8084e-06
-1.4472e-07
5.82479e-06
1.30949e-07
5.82781e-06
-9.64378e-08
5.80533e-06
-1.62997e-07
5.81219e-06
1.14448e-07
5.83188e-06
1.25193e-07
5.82126e-06
-3.15032e-08
5.79829e-06
-1.75802e-07
5.78744e-06
-1.46455e-07
5.78534e-06
2.51822e-08
5.77485e-06
7.26597e-08
5.77242e-06
8.84643e-08
5.77581e-06
1.31862e-07
5.77993e-06
1.71286e-07
5.77995e-06
1.71014e-07
5.78275e-06
1.61675e-07
5.7888e-06
1.58784e-07
5.79531e-06
1.53855e-07
5.79559e-06
1.4738e-07
1.32779e-07
5.79843e-06
6.02989e-06
-1.37311e-07
6.04508e-06
1.15759e-07
6.04808e-06
-9.94335e-08
6.02943e-06
-1.44355e-07
6.03257e-06
1.11307e-07
6.04981e-06
1.07957e-07
6.04181e-06
-2.35022e-08
6.01832e-06
-1.52308e-07
6.00658e-06
-1.34721e-07
6.00551e-06
2.62495e-08
5.99625e-06
8.19222e-08
5.99281e-06
9.19087e-08
5.99603e-06
1.28641e-07
6.00038e-06
1.66934e-07
6.00137e-06
1.70029e-07
6.00313e-06
1.59909e-07
6.00662e-06
1.55301e-07
6.00852e-06
1.5195e-07
6.01611e-06
1.39788e-07
1.29799e-07
6.01909e-06
6.25974e-06
-1.30547e-07
6.27387e-06
1.01624e-07
6.27658e-06
-1.0214e-07
6.2614e-06
-1.29178e-07
6.2618e-06
1.10912e-07
6.27633e-06
9.34217e-08
6.27023e-06
-1.74034e-08
6.24716e-06
-1.2923e-07
6.23435e-06
-1.21912e-07
6.23393e-06
2.66631e-08
6.2261e-06
8.97549e-08
6.22185e-06
9.61602e-08
6.22461e-06
1.25882e-07
6.2291e-06
1.62439e-07
6.23113e-06
1.67998e-07
6.23254e-06
1.58503e-07
6.23808e-06
1.49765e-07
6.24404e-06
1.4599e-07
6.24513e-06
1.38697e-07
1.26821e-07
6.2481e-06
6.49829e-06
-1.24436e-07
6.51127e-06
8.86444e-08
6.51377e-06
-1.04636e-07
6.50142e-06
-1.16825e-07
6.5003e-06
1.1203e-07
6.51182e-06
8.18961e-08
6.50722e-06
-1.2799e-08
6.48492e-06
-1.0693e-07
6.47095e-06
-1.0794e-07
6.47092e-06
2.66903e-08
6.46477e-06
9.59085e-08
6.45988e-06
1.01044e-07
6.4621e-06
1.23665e-07
6.46664e-06
1.57895e-07
6.46961e-06
1.65035e-07
6.47065e-06
1.57456e-07
6.47354e-06
1.4688e-07
6.47595e-06
1.43578e-07
6.4827e-06
1.31951e-07
1.23656e-07
6.48586e-06
6.74586e-06
-1.18952e-07
6.75758e-06
7.69209e-08
6.75993e-06
-1.06983e-07
6.75004e-06
-1.06941e-07
6.74845e-06
1.1362e-07
6.75691e-06
7.3441e-08
6.75303e-06
-8.91865e-09
6.73178e-06
-8.56832e-08
6.71689e-06
-9.30518e-08
6.7169e-06
2.66828e-08
6.71242e-06
1.00389e-07
6.70712e-06
1.06346e-07
6.7088e-06
1.2198e-07
6.71314e-06
1.53555e-07
6.71689e-06
1.61289e-07
6.71813e-06
1.56213e-07
6.72231e-06
1.42702e-07
6.72775e-06
1.38144e-07
6.72953e-06
1.30165e-07
1.20318e-07
6.73287e-06
7.00278e-06
-1.1408e-07
7.01308e-06
6.66211e-08
7.01544e-06
-1.09347e-07
7.00771e-06
-9.92127e-08
7.00633e-06
1.15007e-07
7.01203e-06
6.77409e-08
7.00828e-06
-5.1706e-09
6.98813e-06
-6.55367e-08
6.97255e-06
-7.7475e-08
6.9722e-06
2.70361e-08
6.96936e-06
1.03231e-07
6.96401e-06
1.11693e-07
6.96513e-06
1.20859e-07
6.96916e-06
1.49528e-07
6.97347e-06
1.56979e-07
6.97502e-06
1.54658e-07
6.97702e-06
1.40704e-07
6.97973e-06
1.35433e-07
6.98569e-06
1.24212e-07
1.1688e-07
6.98912e-06
7.26938e-06
-1.09768e-07
7.27825e-06
5.77452e-08
7.28062e-06
-1.11716e-07
7.27487e-06
-9.34549e-08
7.27477e-06
1.15098e-07
7.27759e-06
6.49286e-08
7.2733e-06
-8.87376e-10
7.25423e-06
-4.64675e-08
7.2382e-06
-6.1439e-08
7.23722e-06
2.80168e-08
7.23592e-06
1.04529e-07
7.23081e-06
1.16805e-07
7.2314e-06
1.20272e-07
7.23498e-06
1.45943e-07
7.23949e-06
1.52473e-07
7.24183e-06
1.52313e-07
7.24485e-06
1.37683e-07
7.24951e-06
1.30776e-07
7.25163e-06
1.2209e-07
1.13283e-07
7.25523e-06
7.54602e-06
-1.05962e-07
7.55368e-06
5.00941e-08
7.55587e-06
-1.1391e-07
7.55188e-06
-8.94673e-08
7.5529e-06
1.14078e-07
7.55372e-06
6.41154e-08
7.54864e-06
4.19186e-09
7.53049e-06
-2.83194e-08
7.51429e-06
-4.52409e-08
7.5125e-06
2.98094e-08
7.51252e-06
1.04506e-07
7.50789e-06
1.21432e-07
7.50791e-06
1.20255e-07
7.51112e-06
1.42737e-07
7.51565e-06
1.47933e-07
7.51859e-06
1.49376e-07
7.5202e-06
1.36077e-07
7.52271e-06
1.28267e-07
7.52778e-06
1.17014e-07
1.09522e-07
7.53154e-06
7.83306e-06
-1.02565e-07
7.83975e-06
4.34009e-08
7.84136e-06
-1.15517e-07
7.8392e-06
-8.73067e-08
7.84132e-06
1.11953e-07
7.84092e-06
6.45181e-08
7.8345e-06
1.06176e-08
7.81723e-06
-1.10532e-08
7.80117e-06
-2.91774e-08
7.79837e-06
3.26043e-08
7.7994e-06
1.03475e-07
7.79552e-06
1.25317e-07
7.79507e-06
1.20703e-07
7.798e-06
1.39803e-07
7.80215e-06
1.43784e-07
7.80577e-06
1.45759e-07
7.80831e-06
1.3354e-07
7.81212e-06
1.24456e-07
7.81447e-06
1.14658e-07
1.05735e-07
7.81826e-06
8.13087e-06
-9.94733e-08
8.13683e-06
3.74371e-08
8.13751e-06
-1.16191e-07
8.1371e-06
-8.69028e-08
8.14128e-06
1.07776e-07
8.14249e-06
6.33083e-08
8.13121e-06
2.18925e-08
8.11487e-06
5.29394e-09
8.09922e-06
-1.35333e-08
8.09542e-06
3.64106e-08
8.09707e-06
1.01823e-07
8.09416e-06
1.28229e-07
8.09328e-06
1.21578e-07
8.09594e-06
1.3714e-07
8.09971e-06
1.4002e-07
8.10381e-06
1.41662e-07
8.106e-06
1.31346e-07
8.10849e-06
1.21968e-07
8.11218e-06
1.10962e-07
1.02075e-07
8.11584e-06
8.43986e-06
-9.65679e-08
8.44541e-06
3.18835e-08
8.44447e-06
-1.15252e-07
8.44592e-06
-8.83555e-08
8.45249e-06
1.01209e-07
8.44693e-06
6.88691e-08
8.4384e-06
3.04242e-08
8.4239e-06
1.97942e-08
8.40884e-06
1.52826e-09
8.40401e-06
4.1239e-08
8.40592e-06
9.99131e-08
8.40406e-06
1.30084e-07
8.40291e-06
1.22734e-07
8.40544e-06
1.34606e-07
8.40872e-06
1.36739e-07
8.41294e-06
1.37447e-07
8.41557e-06
1.28717e-07
8.41858e-06
1.18956e-07
8.42138e-06
1.08162e-07
9.87381e-08
8.42471e-06
8.76038e-06
-9.36671e-08
8.76619e-06
2.6074e-08
8.7619e-06
-1.10956e-07
8.76536e-06
-9.18168e-08
8.76632e-06
1.00242e-07
8.76293e-06
7.22685e-08
8.75732e-06
3.60279e-08