/*--------------------------------*- C++ -*----------------------------------*\
| =========                 |                                                 |
| \\      /  F ield         | OpenFOAM: The Open Source CFD Toolbox           |
|  \\    /   O peration     | Version:  v2012                                 |
|   \\  /    A nd           | Website:  www.openfoam.com                      |
|    \\/     M anipulation  |                                                 |
\*---------------------------------------------------------------------------*/
FoamFile
{
    version     2.0;
    format      ascii;
    class       volVectorField;
    location    "4";
    object      U;
}
// * * * * * * * * * * * * * * * * * * * * * * * * * * * * * * * * * * * * * //

dimensions      [0 1 -1 0 0 0 0];


internalField   nonuniform List<vector> 
7000
(
(0.870008 -0.00141835 0)
(1.25476 0.00674221 0)
(0.7031 -0.00609653 0)
(1.1446 -0.0066058 0)
(1.00184 0.0117435 0)
(1.03923 0.00226874 0)
(0.81155 -0.00107712 0)
(1.16548 -0.0184567 0)
(0.797112 -0.0114987 0)
(1.20241 -0.00705578 0)
(0.812897 0.00467645 0)
(1.20711 0.00332381 0)
(0.787262 0.00834885 0)
(1.18777 0.00706257 0)
(0.806138 0.00698632 0)
(1.16373 0.00977582 0)
(0.831984 0.00908348 0)
(1.13799 0.0129283 0)
(0.847263 0.0105418 0)
(1.10979 0.014154 0)
(0.875634 -0.00212851 0)
(1.24581 0.00765103 0)
(0.732189 -0.00572607 0)
(1.13584 -0.0083044 0)
(1.00475 0.0119954 0)
(1.03553 0.00409273 0)
(0.83376 -0.0025092 0)
(1.14471 -0.0179298 0)
(0.814165 -0.0123502 0)
(1.18515 -0.00679677 0)
(0.828965 0.00419435 0)
(1.18643 0.0041742 0)
(0.811193 0.00830884 0)
(1.15774 0.00715033 0)
(0.841508 0.00712771 0)
(1.12164 0.00936019 0)
(0.883605 0.00964981 0)
(1.0774 0.0121381 0)
(0.92148 0.0119564 0)
(1.02483 0.0129634 0)
(0.886918 -0.00270768 0)
(1.22704 0.00859275 0)
(0.778963 -0.00544315 0)
(1.11734 -0.00965774 0)
(1.01131 0.0126676 0)
(1.03085 0.00534078 0)
(0.868591 -0.00361247 0)
(1.11605 -0.0174548 0)
(0.848021 -0.0131725 0)
(1.15264 -0.00657011 0)
(0.866293 0.00376723 0)
(1.14599 0.00492715 0)
(0.862633 0.00835481 0)
(1.10454 0.00697607 0)
(0.902462 0.00756499 0)
(1.06052 0.00861342 0)
(0.944644 0.0106174 0)
(1.01799 0.0112725 0)
(0.970192 0.0134101 0)
(0.983044 0.0124701 0)
(0.902953 -0.00321018 0)
(1.19911 0.009216 0)
(0.834158 -0.00511633 0)
(1.09099 -0.0107044 0)
(1.01993 0.013206 0)
(1.02718 0.0063126 0)
(0.907783 -0.00432065 0)
(1.0832 -0.0171037 0)
(0.891283 -0.0137634 0)
(1.1102 -0.00655955 0)
(0.915863 0.00364765 0)
(1.097 0.00518204 0)
(0.921824 0.00881155 0)
(1.05169 0.00644906 0)
(0.95631 0.00830376 0)
(1.01532 0.00785358 0)
(0.980823 0.0115436 0)
(0.989816 0.0108137 0)
(0.986352 0.0143721 0)
(0.973492 0.0126709 0)
(0.922009 -0.00366952 0)
(1.16434 0.00959949 0)
(0.8889 -0.0047153 0)
(1.06171 -0.0115552 0)
(1.02749 0.0135073 0)
(1.02537 0.00709865 0)
(0.94383 -0.00471377 0)
(1.05242 -0.0169007 0)
(0.932338 -0.01411 0)
(1.06828 -0.0067938 0)
(0.961728 0.00376079 0)
(1.0562 0.00511128 0)
(0.968388 0.00952987 0)
(1.01919 0.0058853 0)
(0.988281 0.00903288 0)
(0.997611 0.00738934 0)
(0.994676 0.0121987 0)
(0.985412 0.0107474 0)
(0.989109 0.0149694 0)
(0.976609 0.0131331 0)
(0.941876 -0.00405617 0)
(1.12636 0.00980445 0)
(0.936101 -0.00428789 0)
(1.03508 -0.0121996 0)
(1.03108 0.0136365 0)
(1.02507 0.00768426 0)
(0.971781 -0.0048295 0)
(1.02924 -0.0168017 0)
(0.962467 -0.014254 0)
(1.03594 -0.00719676 0)
(0.993081 0.00393222 0)
(1.03263 0.00496516 0)
(0.99602 0.0102042 0)
(1.00863 0.00551685 0)
(1.00262 0.00956409 0)
(0.997667 0.00722614 0)
(0.998819 0.0126565 0)
(0.99014 0.0108639 0)
(0.989934 0.0154392 0)
(0.982596 0.0136033 0)
(0.960408 -0.00435299 0)
(1.08941 0.00985546 0)
(0.971989 -0.00388178 0)
(1.015 -0.0126261 0)
(1.02935 0.0136165 0)
(1.02488 0.00808252 0)
(0.990351 -0.00473828 0)
(1.01562 -0.016747 0)
(0.979799 -0.0142553 0)
(1.01561 -0.00767367 0)
(1.00858 0.00401572 0)
(1.02367 0.0048246 0)
(1.00908 0.0107068 0)
(1.00992 0.00533361 0)
(1.00815 0.00994142 0)
(1.00296 0.00722465 0)
(1.0008 0.0130445 0)
(0.995666 0.0110498 0)
(0.991861 0.0158735 0)
(0.987927 0.0140359 0)
(0.976069 -0.00456017 0)
(1.05711 0.00979371 0)
(0.996199 -0.00353493 0)
(1.00271 -0.0128509 0)
(1.02292 0.0134676 0)
(1.02333 0.00832292 0)
(1.00106 -0.00453974 0)
(1.00989 -0.0166897 0)
(0.987652 -0.0141497 0)
(1.00421 -0.00815861 0)
(1.01265 0.00395542 0)
(1.02142 0.00465744 0)
(1.01402 0.0110776 0)
(1.01345 0.00523804 0)
(1.01026 0.0102786 0)
(1.00689 0.00727611 0)
(1.00243 0.0134225 0)
(0.999263 0.0112754 0)
(0.994266 0.0162693 0)
(0.991746 0.0144508 0)
(0.988208 -0.00468801 0)
(1.03155 0.00966696 0)
(1.01068 -0.00327308 0)
(0.997141 -0.0129033 0)
(1.01383 0.0132459 0)
(1.01993 0.0084259 0)
(1.00649 -0.00432193 0)
(1.00879 -0.0166116 0)
(0.990703 -0.0139472 0)
(0.997414 -0.00861344 0)
(1.01059 0.0037772 0)
(1.01966 0.00442403 0)
(1.01494 0.0113849 0)
(1.01467 0.00516533 0)
(1.01064 0.0106322 0)
(1.00786 0.00733857 0)
(1.00323 0.0137901 0)
(1.00071 0.0115296 0)
(0.996025 0.0166098 0)
(0.994089 0.0148574 0)
(0.996968 -0.00475191 0)
(1.01299 0.00951085 0)
(1.01827 -0.00310451 0)
(0.996018 -0.0128158 0)
(1.00451 0.0130132 0)
(1.01533 0.00840954 0)
(1.00897 -0.00413838 0)
(1.00952 -0.0165195 0)
(0.992322 -0.0136486 0)
(0.992546 -0.00901001 0)
(1.00609 0.00354137 0)
(1.01592 0.00411308 0)
(1.0135 0.0116602 0)
(1.01287 0.00509377 0)
(1.00936 0.0109974 0)
(1.00636 0.00740808 0)
(1.00263 0.0141144 0)
(1.00051 0.0117991 0)
(0.996629 0.0168799 0)
(0.995234 0.0152423 0)
(1.00296 -0.00476796 0)
(1.00037 0.0093462 0)
(1.02159 -0.00302216 0)
(0.997084 -0.0126216 0)
(0.99671 0.0128089 0)
(1.01074 0.00829631 0)
(1.01008 -0.00400769 0)
(1.01045 -0.0164303 0)
(0.993941 -0.0132585 0)
(0.988729 -0.00932361 0)
(1.00108 0.00330602 0)
(1.01025 0.00373912 0)
(1.01031 0.0119086 0)
(1.00882 0.00502215 0)
(1.00643 0.0113445 0)
(1.00323 0.0074869 0)
(1.00062 0.0143531 0)
(0.999157 0.012068 0)
(0.996154 0.0170623 0)
(0.995491 0.0155816 0)
(1.00689 -0.00474951 0)
(0.992101 0.00918295 0)
(1.02251 -0.00301096 0)
(0.998739 -0.0123518 0)
(0.991181 0.0126453 0)
(1.00705 0.00810864 0)
(1.01065 -0.00392564 0)
(1.01096 -0.0163558 0)
(0.995657 -0.0127902 0)
(0.985898 -0.00953875 0)
(0.996375 0.00311436 0)
(1.00368 0.00333192 0)
(1.00587 0.0121284 0)
(1.00358 0.00495553 0)
(1.00221 0.0116448 0)
(0.999187 0.00757434 0)
(0.997532 0.0144743 0)
(0.997052 0.0123178 0)
(0.994907 0.017144 0)
(0.995116 0.0158539 0)
(1.0093 -0.00470573 0)
(0.986762 0.00902466 0)
(1.02212 -0.00305403 0)
(1.00012 -0.0120326 0)
(0.987803 0.0125164 0)
(1.00457 0.00786669 0)
(1.011 -0.00387714 0)
(1.011 -0.0162984 0)
(0.997067 -0.0122631 0)
(0.98405 -0.00965337 0)
(0.992232 0.00299312 0)
(0.997193 0.00292365 0)
(1.00078 0.0123185 0)
(0.998076 0.0049011 0)
(0.997342 0.011879 0)
(0.994826 0.00767311 0)
(0.993893 0.0144668 0)
(0.994517 0.0125312 0)
(0.993207 0.0171203 0)
(0.994288 0.0160447 0)
(1.01051 -0.00464235 0)
(0.983469 0.00887177 0)
(1.02095 -0.00313523 0)
(1.0009 -0.0116854 0)
(0.986076 0.0124084 0)
(1.00318 0.00758789 0)
(1.01119 -0.00384586 0)
(1.0107 -0.0162528 0)
(0.997808 -0.0116962 0)
(0.983028 -0.00967631 0)
(0.988699 0.00295321 0)
(0.991469 0.00254081 0)
(0.995645 0.0124761 0)
(0.993028 0.00486937 0)
(0.992535 0.0120351 0)
(0.990695 0.00779005 0)
(0.99024 0.014338 0)
(0.99187 0.0126966 0)
(0.991344 0.0169964 0)
(0.993164 0.0161471 0)
(1.01067 -0.00456334 0)
(0.98183 0.00872341 0)
(1.01924 -0.00323894 0)
(1.001 -0.0113275 0)
(0.985504 0.0123075 0)
(1.00261 0.00728735 0)
(1.0112 -0.00381921 0)
(1.01018 -0.0162093 0)
(0.997758 -0.0111059 0)
(0.982587 -0.00962298 0)
(0.985804 0.00299108 0)
(0.986859 0.0022018 0)
(0.99093 0.0125956 0)
(0.988916 0.00486941 0)
(0.988369 0.0121072 0)
(0.987253 0.00793178 0)
(0.98706 0.0141059 0)
(0.989438 0.0128113 0)
(0.989598 0.0167869 0)
(0.991931 0.0161636 0)
(1.0099 -0.00447249 0)
(0.98171 0.0085781 0)
(1.01716 -0.00334916 0)
(1.0005 -0.0109729 0)
(0.985754 0.0122013 0)
(1.00264 0.00697807 0)
(1.01101 -0.0037876 0)
(1.00953 -0.016158 0)
(0.997022 -0.0105049 0)
(0.982488 -0.00951217 0)
(0.983614 0.00309203 0)
(0.983489 0.00191813 0)
(0.98698 0.0126685 0)
(0.985995 0.00490488 0)
(0.985227 0.0120954 0)
(0.984813 0.00810196 0)
(0.98472 0.0137934 0)
(0.987513 0.0128816 0)
(0.988229 0.0165169 0)
(0.990805 0.0161057 0)
(1.00837 -0.00437417 0)
(0.982968 0.00843395 0)
(1.01487 -0.00344976 0)
(0.999563 -0.0106334 0)
(0.986639 0.0120796 0)
(1.0031 0.00667138 0)
(1.01064 -0.00374307 0)
(1.00878 -0.0160911 0)
(0.995834 -0.00990299 0)
(0.982548 -0.00936359 0)
(0.982206 0.00323364 0)
(0.98135 0.00169767 0)
(0.984017 0.0126814 0)
(0.984328 0.00497707 0)
(0.983283 0.0120039 0)
(0.983508 0.00830091 0)
(0.983417 0.0134272 0)
(0.986297 0.0129147 0)
(0.987426 0.0162162 0)
(0.989984 0.0159936 0)
(1.00636 -0.00427309 0)
(0.985295 0.00828883 0)
(1.01258 -0.0035262 0)
(0.998362 -0.0103186 0)
(0.98802 0.0119341 0)
(1.00388 0.0063773 0)
(1.01015 -0.00367901 0)
(1.00794 -0.0160042 0)
(0.994471 -0.00930682 0)
(0.982655 -0.00919443 0)
(0.981598 0.00338921 0)
(0.980341 0.0015465 0)
(0.982158 0.0126188 0)
(0.983843 0.00508423 0)
(0.982532 0.0118371 0)
(0.983301 0.00852721 0)
(0.983168 0.0130406 0)
(0.985868 0.0129143 0)
(0.987274 0.0159072 0)
(0.989599 0.0158489 0)
(1.0042 -0.00417353 0)
(0.988209 0.00814073 0)
(1.01048 -0.00356787 0)
(0.99709 -0.0100353 0)
(0.989738 0.0117593 0)
(1.00481 0.00610403 0)
(1.00963 -0.00359071 0)
(1.00706 -0.015895 0)
(0.993182 -0.00872204 0)
(0.982752 -0.00901788 0)
(0.9817 0.00353197 0)
(0.980288 0.00146912 0)
(0.981414 0.0124711 0)
(0.984359 0.00522269 0)
(0.982846 0.0115994 0)
(0.984027 0.00877154 0)
(0.983843 0.012668 0)
(0.986187 0.0128896 0)
(0.987743 0.0156055 0)
(0.989699 0.0156896 0)
(1.00221 -0.00407838 0)
(0.991173 0.0079881 0)
(1.0087 -0.00356965 0)
(0.995909 -0.00978661 0)
(0.991599 0.0115528 0)
(1.00576 0.00585627 0)
(1.00916 -0.00347544 0)
(1.00617 -0.0157637 0)
(0.992148 -0.00815058 0)
(0.982833 -0.00884238 0)
(0.982327 0.0036312 0)
(0.980948 0.00146062 0)
(0.981675 0.0122344 0)
(0.985617 0.00539172 0)
(0.984005 0.0113031 0)
(0.985441 0.00901907 0)
(0.98522 0.0123309 0)
(0.987127 0.0128538 0)
(0.988723 0.0153238 0)
(0.990259 0.0155302 0)
(1.00061 -0.00398872 0)
(0.99375 0.00782991 0)
(1.0073 -0.00353197 0)
(0.99493 -0.009572 0)
(0.993402 0.011316 0)
(1.00659 0.00563511 0)
(1.00882 -0.00333322 0)
(1.00531 -0.0156105 0)
(0.991466 -0.00759916 0)
(0.982932 -0.00866381 0)
(0.983255 0.00366462 0)
(0.982037 0.00151208 0)
(0.982715 0.0119086 0)
(0.987303 0.00558786 0)
(0.985733 0.0109668 0)
(0.987261 0.00926147 0)
(0.987032 0.0120432 0)
(0.988503 0.0128208 0)
(0.990053 0.015068 0)
(0.991192 0.0153783 0)
(0.999481 -0.00390399 0)
(0.995708 0.00766565 0)
(1.00628 -0.00345955 0)
(0.994205 -0.00938765 0)
(0.994987 0.011052 0)
(1.00721 0.00543879 0)
(1.00865 -0.00316663 0)
(1.00451 -0.0154366 0)
(0.991149 -0.00707336 0)
(0.983111 -0.00847525 0)
(0.984286 0.00361983 0)
(0.983282 0.00161269 0)
(0.984221 0.0114978 0)
(0.989093 0.00580461 0)
(0.987724 0.0106051 0)
(0.989196 0.00948862 0)
(0.989005 0.011806 0)
(0.990097 0.0128 0)
(0.991551 0.0148502 0)
(0.992363 0.0152402 0)
(0.998767 -0.0038225 0)
(0.997025 0.00749505 0)
(1.00559 -0.00335943 0)
(0.993739 -0.00922771 0)
(0.996261 0.0107656 0)
(1.00757 0.00526258 0)
(1.00865 -0.00298091 0)
(1.00382 -0.0152418 0)
(0.991142 -0.0065776 0)
(0.983435 -0.00826559 0)
(0.98529 0.00349028 0)
(0.984469 0.00174956 0)
(0.985859 0.0110146 0)
(0.990706 0.00603779 0)
(0.989677 0.0102347 0)
(0.990989 0.0096905 0)
(0.99089 0.0116077 0)
(0.99169 0.0127761 0)
(0.993028 0.0146697 0)
(0.993603 0.0151263 0)
(0.998354 -0.00374231 0)
(0.997823 0.00731794 0)
(1.00515 -0.0032389 0)
(0.993512 -0.00908565 0)
(0.997195 0.0104629 0)
(1.00766 0.00510044 0)
(1.00876 -0.00278242 0)
(1.00325 -0.0150243 0)
(0.991353 -0.00612039 0)
(0.983947 -0.00801617 0)
(0.986207 0.00328623 0)
(0.985484 0.00190825 0)
(0.987352 0.0104687 0)
(0.99195 0.00627558 0)
(0.991343 0.00987209 0)
(0.992444 0.00986898 0)
(0.992482 0.0114525 0)
(0.993089 0.0127455 0)
(0.994321 0.0145027 0)
(0.994745 0.0150233 0)
(0.998117 -0.00366174 0)
(0.99827 0.0071339 0)
(1.0049 -0.0031035 0)
(0.993492 -0.00895558 0)
(0.99781 0.0101493 0)
(1.0075 0.00494785 0)
(1.00893 -0.00258074 0)
(1.00281 -0.0147761 0)
(0.991682 -0.00571517 0)
(0.984653 -0.00772637 0)
(0.98703 0.00302877 0)
(0.986305 0.00209189 0)
(0.98853 0.00987681 0)
(0.992756 0.00650103 0)
(0.992576 0.00951714 0)
(0.993459 0.0100135 0)
(0.993656 0.011337 0)
(0.994157 0.0127199 0)
(0.995307 0.0143525 0)
(0.995652 0.0149258 0)
(0.997957 -0.00357933 0)
(0.998513 0.0069418 0)
(1.00479 -0.00295819 0)
(0.993643 -0.00883087 0)
(0.99815 0.00982844 0)
(1.00715 0.00480148 0)
(1.00909 -0.00238542 0)
(1.0025 -0.014499 0)
(0.992047 -0.005357 0)
(0.985519 -0.00739234 0)
(0.987775 0.00271375 0)
(0.986977 0.00230654 0)
(0.989348 0.00928104 0)
(0.993159 0.0067207 0)
(0.99334 0.00918687 0)
(0.994033 0.0101127 0)
(0.994376 0.01124 0)
(0.994844 0.0126826 0)
(0.995934 0.0141941 0)
(0.996251 0.0148292 0)
(0.997814 -0.00349409 0)
(0.998651 0.0067412 0)
(1.00478 -0.00280774 0)
(0.993928 -0.00870559 0)
(0.998269 0.00950517 0)
(1.00665 0.00465943 0)
(1.00918 -0.00220642 0)
(1.0023 -0.0141807 0)
(0.992397 -0.00507677 0)
(0.986481 -0.00698249 0)
(0.98846 0.00236117 0)
(0.987574 0.00252309 0)
(0.989857 0.00868523 0)
(0.99327 0.00691579 0)
(0.993698 0.00890724 0)
(0.99424 0.0101927 0)
(0.994692 0.0111691 0)
(0.995175 0.0126576 0)
(0.996222 0.0140234 0)
(0.996543 0.014709 0)
(0.997662 -0.00340519 0)
(0.998736 0.00652996 0)
(1.00484 -0.00265156 0)
(0.99431 -0.00857763 0)
(0.998222 0.00918221 0)
(1.00604 0.00452669 0)
(1.00919 -0.00204999 0)
(1.00215 -0.0138171 0)
(0.992703 -0.00485883 0)
(0.987473 -0.00657298 0)
(0.989092 0.0020376 0)
(0.988156 0.00274561 0)
(0.990156 0.0081349 0)
(0.993226 0.007042 0)
(0.993775 0.0086629 0)
(0.994206 0.0102297 0)
(0.99471 0.011112 0)
(0.995232 0.0126271 0)
(0.996231 0.0138748 0)
(0.996575 0.0145895 0)
(0.997495 -0.00331197 0)
(0.998793 0.00630648 0)
(1.00495 -0.00249356 0)
(0.994747 -0.00844271 0)
(0.998062 0.00886868 0)
(1.0054 0.00437904 0)
(1.0091 -0.00190241 0)
(1.00204 -0.0134416 0)
(0.992953 -0.00466426 0)
(0.988429 -0.00612545 0)
(0.989677 0.00168411 0)
(0.988754 0.00298718 0)
(0.990342 0.00765014 0)
(0.993143 0.00716273 0)
(0.993707 0.00844056 0)
(0.994063 0.0102647 0)
(0.994559 0.0110319 0)
(0.995137 0.0126174 0)
(0.996086 0.0137189 0)
(0.996449 0.0144608 0)
(0.99732 -0.00321617 0)
(0.998833 0.0060775 0)
(1.00509 -0.00234572 0)
(0.995198 -0.00828093 0)
(0.997837 0.00853501 0)
(1.00476 0.00427097 0)
(1.00891 -0.00184876 0)
(1.00193 -0.0129533 0)
(0.993155 -0.00462067 0)
(0.989295 -0.00557753 0)
(0.990209 0.00127112 0)
(0.989374 0.00326241 0)
(0.990498 0.00713839 0)
(0.993101 0.007318 0)
(0.993613 0.00818478 0)
(0.993919 0.0103338 0)
(0.994362 0.0109275 0)
(0.994987 0.012651 0)
(0.995865 0.0135443 0)
(0.996248 0.0143054 0)
(0.997152 -0.00311039 0)
(0.998864 0.00582389 0)
(1.00523 -0.00218024 0)
(0.995627 -0.00813292 0)
(0.997592 0.00824064 0)
(1.00418 0.00412037 0)
(1.00863 -0.00173624 0)
(1.00182 -0.0125236 0)
(0.993306 -0.00452831 0)
(0.990046 -0.00512645 0)
(0.990693 0.000979437 0)
(0.989996 0.00344447 0)
(0.990667 0.00679323 0)
(0.993135 0.00734324 0)
(0.993571 0.00805745 0)
(0.993848 0.010288 0)
(0.994211 0.0108834 0)
(0.99486 0.0125497 0)
(0.995643 0.0134206 0)
(0.996033 0.0141876 0)
(0.997006 -0.00300737 0)
(0.99889 0.00557589 0)
(1.00535 -0.00204248 0)
(0.996006 -0.00793212 0)
(0.997355 0.00789935 0)
(1.0037 0.00403613 0)
(1.00829 -0.00173413 0)
(1.0017 -0.0119736 0)
(0.993423 -0.00454302 0)
(0.99066 -0.0045636 0)
(0.991123 0.000632953 0)
(0.990597 0.00358783 0)
(0.99087 0.00656344 0)
(0.993249 0.00729858 0)
(0.99362 0.00799581 0)
(0.993875 0.0102019 0)
(0.994153 0.0108822 0)
(0.994827 0.0124439 0)
(0.995547 0.0133444 0)
(0.995902 0.014097 0)
(0.996899 -0.00289824 0)
(0.998916 0.00531342 0)
(1.00543 -0.00190009 0)
(0.996312 -0.00772561 0)
(0.997154 0.00756754 0)
(1.00331 0.00395665 0)
(1.00792 -0.00175218 0)
(1.00158 -0.0114145 0)
(0.993514 -0.00461071 0)
(0.991145 -0.00405028 0)
(0.991505 0.000407888 0)
(0.991163 0.00358167 0)
(0.991099 0.0064559 0)
(0.993417 0.00715288 0)
(0.993768 0.00798229 0)
(0.99401 0.0100256 0)
(0.994218 0.0109258 0)
(0.994878 0.012255 0)
(0.99553 0.0132858 0)
(0.995825 0.0140276 0)
(0.99684 -0.00277261 0)
(0.998947 0.0050108 0)
(1.00544 -0.00172574 0)
(0.996546 -0.00754723 0)
(0.99699 0.0072932 0)
(1.00304 0.00380376 0)
(1.00751 -0.00164127 0)
(1.00148 -0.0109841 0)
(0.993606 -0.00452948 0)
(0.991512 -0.00370631 0)
(0.991837 0.000319862 0)
(0.991669 0.00355568 0)
(0.991359 0.00634293 0)
(0.993612 0.00712169 0)
(0.994002 0.00793554 0)
(0.994229 0.00994362 0)
(0.99439 0.0109589 0)
(0.995044 0.0121845 0)
(0.995694 0.0131897 0)
(0.99587 0.0139159 0)
(0.996832 -0.00267101 0)
(0.998991 0.00476308 0)
(1.00539 -0.00163379 0)
(0.996712 -0.00724414 0)
(0.996874 0.00686062 0)
(1.00286 0.00382812 0)
(1.00712 -0.00183602 0)
(1.00138 -0.0101918 0)
(0.993714 -0.00476105 0)
(0.991773 -0.00303573 0)
(0.992152 -0.000124388 0)
(0.992095 0.00387231 0)
(0.991642 0.00585584 0)
(0.993801 0.00740127 0)
(0.99429 0.00763749 0)
(0.994512 0.0101559 0)
(0.994659 0.0108343 0)
(0.995268 0.0123955 0)
(0.99591 0.0129441 0)
(0.996002 0.0136445 0)
(0.996865 -0.00254817 0)
(0.999063 0.00446913 0)
(1.00526 -0.00148993 0)
(0.996835 -0.00699378 0)
(0.996793 0.00651561 0)
(1.00276 0.00373983 0)
(1.00674 -0.00184574 0)
(1.00131 -0.00967615 0)
(0.99385 -0.00477967 0)
(0.991962 -0.00261689 0)
(0.992449 -0.000232169 0)
(0.992452 0.00366069 0)
(0.991922 0.00584609 0)
(0.993986 0.00723623 0)
(0.994623 0.00769854 0)
(0.994832 0.00998704 0)
(0.99499 0.0109028 0)
(0.995522 0.0121957 0)
(0.996108 0.0128793 0)
(0.996156 0.013544 0)
(0.996932 -0.00241529 0)
(0.999166 0.00414899 0)
(1.00508 -0.00132314 0)
(0.996928 -0.0067661 0)
(0.996743 0.00621649 0)
(1.0027 0.00361317 0)
(1.00636 -0.00171306 0)
(1.00126 -0.00928079 0)
(0.994025 -0.00465559 0)
(0.99211 -0.00247938 0)
(0.992704 -8.3751e-05 0)
(0.992777 0.00333043 0)
(0.992203 0.00601165 0)
(0.994132 0.00699744 0)
(0.994948 0.00786097 0)
(0.995159 0.00979462 0)
(0.995333 0.0110261 0)
(0.995819 0.0120558 0)
(0.996469 0.0128294 0)
(0.996393 0.0134662 0)
(0.997025 -0.00231954 0)
(0.999286 0.00392039 0)
(1.00485 -0.00127761 0)
(0.997004 -0.00637507 0)
(0.996723 0.00568493 0)
(1.00265 0.00372599 0)
(1.00602 -0.00203117 0)
(1.00122 -0.00839431 0)
(0.994252 -0.00491934 0)
(0.992236 -0.00183805 0)
(0.99297 -0.000508857 0)
(0.993039 0.00368943 0)
(0.992472 0.00545315 0)
(0.994247 0.00736146 0)
(0.995269 0.00762221 0)
(0.995469 0.0101138 0)
(0.995688 0.0107925 0)
(0.996086 0.01232 0)
(0.996751 0.0125063 0)
(0.996626 0.0131075 0)
(0.997124 -0.00219479 0)
(0.99943 0.00362062 0)
(1.00459 -0.00115047 0)
(0.997083 -0.00606842 0)
(0.996734 0.0052936 0)
(1.00259 0.00363849 0)
(1.00569 -0.00197313 0)
(1.00121 -0.00796706 0)
(0.994507 -0.00482117 0)
(0.99235 -0.0016122 0)
(0.993248 -0.000386996 0)
(0.993278 0.0034183 0)
(0.992733 0.00553491 0)
(0.994363 0.00719116 0)
(0.995566 0.00769745 0)
(0.995757 0.00982208 0)
(0.996011 0.0108176 0)
(0.99632 0.011961 0)
(0.996915 0.0124721 0)
(0.996824 0.0130658 0)
(0.997226 -0.00205968 0)
(0.999584 0.00330458 0)
(1.00431 -0.00101473 0)
(0.997175 -0.00579823 0)
(0.996764 0.00499231 0)
(1.00252 0.00348924 0)
(1.00535 -0.00177097 0)
(1.0012 -0.00770593 0)
(0.994799 -0.00452051 0)
(0.992507 -0.00163765 0)
(0.993491 -8.18645e-05 0)
(0.993536 0.00287829 0)
(0.992986 0.00582076 0)
(0.994442 0.00689806 0)
(0.995816 0.00786806 0)
(0.996043 0.00955077 0)
(0.996303 0.0109058 0)
(0.996567 0.0117704 0)
(0.997253 0.012496 0)
(0.997034 0.0130319 0)
(0.997337 -0.00199201 0)
(0.999717 0.00312262 0)
(1.00406 -0.0010364 0)
(0.997264 -0.00528607 0)
(0.996839 0.00434689 0)
(1.00242 0.00368047 0)
(1.00503 -0.00217495 0)
(1.00119 -0.00679857 0)
(0.995126 -0.00480362 0)
(0.99265 -0.000976587 0)
(0.993747 -0.000604183 0)
(0.993803 0.00325672 0)
(0.993267 0.00522666 0)
(0.99453 0.00742293 0)
(0.996072 0.00750338 0)
(0.996308 0.00997856 0)
(0.996596 0.0105461 0)
(0.996788 0.012236 0)
(0.997441 0.0121512 0)
(0.997219 0.0125916 0)
(0.997434 -0.00185428 0)
(0.999848 0.00280895 0)
(1.00381 -0.000907222 0)
(0.997365 -0.00498991 0)
(0.996936 0.00402543 0)
(1.00229 0.00346211 0)
(1.00472 -0.00189768 0)
(1.00116 -0.00658157 0)
(0.995446 -0.00454911 0)
(0.992827 -0.000854894 0)
(0.99403 -0.000383017 0)
(0.99408 0.00303496 0)
(0.993557 0.00525407 0)
(0.99463 0.00721771 0)
(0.996282 0.00749386 0)
(0.99655 0.0095667 0)
(0.996861 0.0104978 0)
(0.996946 0.0118897 0)
(0.997424 0.0122965 0)
(0.997296 0.0126908 0)
(0.997527 -0.00174937 0)
(0.999972 0.00255799 0)
(1.00357 -0.000865867 0)
(0.99748 -0.00460615 0)
(0.997057 0.00365759 0)
(1.00218 0.00334502 0)
(1.00438 -0.00167549 0)
(1.00115 -0.00641954 0)
(0.995782 -0.00410879 0)
(0.993026 -0.000926824 0)
(0.99426 0.000136039 0)
(0.994412 0.00246046 0)
(0.99386 0.00552013 0)
(0.99476 0.00677197 0)
(0.996504 0.00765736 0)
(0.996856 0.00904767 0)
(0.997159 0.0105725 0)
(0.997239 0.0114598 0)
(0.997719 0.0125536 0)
(0.997417 0.0128795 0)
(0.997634 -0.00169175 0)
(1.00005 0.0023978 0)
(1.00336 -0.000916871 0)
(0.997575 -0.0040943 0)
(0.997214 0.00307225 0)
(1.00204 0.00343358 0)
(1.00405 -0.00184037 0)
(1.00112 -0.00576314 0)
(0.996117 -0.00425289 0)
(0.993257 -0.000439858 0)
(0.994492 5.55649e-05 0)
(0.994743 0.00262512 0)
(0.994189 0.00520477 0)
(0.994901 0.00697731 0)
(0.996713 0.00738903 0)
(0.997149 0.00904775 0)
(0.997461 0.0102692 0)
(0.997518 0.0114945 0)
(0.997914 0.0122254 0)
(0.997478 0.0124871 0)
(0.997739 -0.00154542 0)
(1.00011 0.00209953 0)
(1.00318 -0.000831575 0)
(0.997679 -0.00379699 0)
(0.997382 0.0028173 0)
(1.00189 0.00311816 0)
(1.00374 -0.00153511 0)
(1.00107 -0.00548141 0)
(0.996452 -0.00409131 0)
(0.9935 -0.000152909 0)
(0.994724 0.00021696 0)
(0.995097 0.00268807 0)
(0.994547 0.00507669 0)
(0.995067 0.00709845 0)
(0.996909 0.0073113 0)
(0.997454 0.00891814 0)
(0.997774 0.0100793 0)
(0.997781 0.0113164 0)
(0.998041 0.0119154 0)
(0.997526 0.0121097 0)
(0.997842 -0.00149531 0)
(1.00016 0.00193768 0)
(1.003 -0.00086589 0)
(0.997787 -0.00333602 0)
(0.99755 0.00239546 0)
(1.00177 0.00303599 0)
(1.00343 -0.00139476 0)
(1.001 -0.00513114 0)
(0.996784 -0.0039135 0)
(0.993769 4.10268e-05 0)
(0.994946 0.000608346 0)
(0.995453 0.00257999 0)
(0.994933 0.00497402 0)
(0.995268 0.00709239 0)
(0.997099 0.0073271 0)
(0.997765 0.00875373 0)
(0.998089 0.00996582 0)
(0.998043 0.0110866 0)
(0.998174 0.0116721 0)
(0.997569 0.0117977 0)
(0.997944 -0.00140816 0)
(1.0002 0.00176131 0)
(1.00285 -0.000903625 0)
(0.997885 -0.00294995 0)
(0.997731 0.00206199 0)
(1.00165 0.00283159 0)
(1.00312 -0.00123653 0)
(1.00094 -0.00468614 0)
(0.997108 -0.00380809 0)
(0.994072 0.000258378 0)
(0.995148 0.00091185 0)
(0.995793 0.00247227 0)
(0.995352 0.00491114 0)
(0.995504 0.00708603 0)
(0.997291 0.00737635 0)
(0.99809 0.00856728 0)
(0.99842 0.00977495 0)
(0.998299 0.0107755 0)
(0.998286 0.0113481 0)
(0.997601 0.0114584 0)
(0.998046 -0.00130556 0)
(1.00022 0.00153709 0)
(1.0027 -0.000897573 0)
(0.997992 -0.0026171 0)
(0.997892 0.00186516 0)
(1.00154 0.00246957 0)
(1.00284 -0.000912887 0)
(1.00085 -0.00435627 0)
(0.997429 -0.00362039 0)
(0.994394 0.000407508 0)
(0.995337 0.00121881 0)
(0.996142 0.00250249 0)
(0.995799 0.00488427 0)
(0.995768 0.00698788 0)
(0.997469 0.00741598 0)
(0.998386 0.00830838 0)
(0.998734 0.00952722 0)
(0.998551 0.0104197 0)
(0.998425 0.0110331 0)
(0.997647 0.0111903 0)
(0.998147 -0.00127604 0)
(1.00024 0.00142845 0)
(1.00258 -0.00095909 0)
(0.99809 -0.00223569 0)
(0.998051 0.00159817 0)
(1.00145 0.00232104 0)
(1.00256 -0.000810344 0)
(1.00076 -0.003921 0)
(0.997747 -0.00342748 0)
(0.994741 0.000530367 0)
(0.995533 0.0015303 0)
(0.996465 0.00257822 0)
(0.996234 0.00467897 0)
(0.996056 0.00681269 0)
(0.997645 0.00741591 0)
(0.99868 0.00814869 0)
(0.999072 0.00928801 0)
(0.998819 0.0101664 0)
(0.99859 0.0107616 0)
(0.997704 0.0109583 0)
(0.998246 -0.00117221 0)
(1.00025 0.00124278 0)
(1.00246 -0.000966359 0)
(0.998195 -0.00200029 0)
(0.998193 0.00156243 0)
(1.00137 0.00191478 0)
(1.00231 -0.000604011 0)
(1.00067 -0.00345529 0)
(0.998052 -0.00321019 0)
(0.995107 0.000574564 0)
(0.995725 0.00182153 0)
(0.996756 0.00261378 0)
(0.996676 0.0045257 0)
(0.996397 0.00669907 0)
(0.997845 0.00750149 0)
(0.998943 0.00804931 0)
(0.99939 0.0090024 0)
(0.999087 0.00985727 0)
(0.998755 0.0104265 0)
(0.997762 0.0106951 0)
(0.998342 -0.0011269 0)
(1.00026 0.0011068 0)
(1.00236 -0.00101306 0)
(0.998307 -0.00174311 0)
(0.998317 0.00144763 0)
(1.0013 0.00170553 0)
(1.00209 -0.000412478 0)
(1.00057 -0.00306358 0)
(0.998339 -0.00297964 0)
(0.995495 0.000609203 0)
(0.99593 0.0021224 0)
(0.997029 0.00271632 0)
(0.997122 0.00442852 0)
(0.996769 0.00655902 0)
(0.99804 0.00747141 0)
(0.999159 0.00788299 0)
(0.999694 0.00869727 0)
(0.999364 0.00959066 0)
(0.998959 0.0101675 0)
(0.997851 0.0105122 0)
(0.998437 -0.00107321 0)
(1.00026 0.000987725 0)
(1.00227 -0.00103265 0)
(0.998414 -0.00155525 0)
(0.998441 0.00145587 0)
(1.00123 0.00146389 0)
(1.00187 -0.000371714 0)
(1.00047 -0.00261061 0)
(0.998619 -0.00270849 0)
(0.995902 0.000636446 0)
(0.996143 0.0023425 0)
(0.997267 0.00281759 0)
(0.997548 0.00432769 0)
(0.997156 0.00638327 0)
(0.998248 0.00739285 0)
(0.999364 0.00781143 0)
(1.00001 0.00845272 0)
(0.999676 0.00937379 0)
(0.999182 0.0098967 0)
(0.997934 0.0102503 0)
(0.998529 -0.00100909 0)
(1.00026 0.000850546 0)
(1.00219 -0.00106035 0)
(0.998536 -0.00141239 0)
(0.998543 0.00145893 0)
(1.00116 0.00125047 0)
(1.00171 -0.000234411 0)
(1.00039 -0.0021697 0)
(0.998871 -0.00242931 0)
(0.996314 0.000619973 0)
(0.996371 0.0025071 0)
(0.997496 0.00296507 0)
(0.997968 0.00425978 0)
(0.997564 0.00619768 0)
(0.998487 0.00727967 0)
(0.999544 0.00775343 0)
(1.0003 0.00823354 0)
(0.999966 0.00910909 0)
(0.999387 0.00955611 0)
(0.998031 0.00998451 0)
(0.99862 -0.000975679 0)
(1.00026 0.000746072 0)
(1.00211 -0.00108723 0)
(0.998653 -0.00127474 0)
(0.998652 0.00146822 0)
(1.00112 0.00114541 0)
(1.00155 -0.000182677 0)
(1.0003 -0.001795 0)
(0.999106 -0.00212954 0)
(0.996736 0.000621161 0)
(0.996624 0.00267007 0)
(0.997701 0.00315433 0)
(0.99835 0.00419056 0)
(0.997971 0.00600415 0)
(0.998748 0.00711982 0)
(0.999728 0.00773034 0)
(1.00057 0.00803618 0)
(1.00026 0.00882784 0)
(0.999636 0.00928751 0)
(0.998173 0.00976461 0)
(0.998708 -0.000924908 0)
(1.00025 0.000641142 0)
(1.00204 -0.00109734 0)
(0.998783 -0.00118678 0)
(0.998744 0.00150988 0)
(1.00104 0.00100972 0)
(1.00144 -0.000135626 0)
(1.00024 -0.00139572 0)
(0.999321 -0.0017885 0)
(0.99716 0.000620878 0)
(0.996901 0.00276048 0)
(0.997892 0.00330317 0)
(0.998712 0.00412454 0)
(0.998387 0.00584007 0)
(0.999057 0.00697572 0)
(0.999904 0.00768148 0)
(1.00078 0.00784089 0)
(1.00054 0.00858227 0)
(0.99989 0.0090024 0)
(0.998303 0.00945726 0)
(0.998794 -0.00089452 0)
(1.00024 0.000562143 0)
(1.00198 -0.00114101 0)
(0.998908 -0.00110514 0)
(0.998843 0.00149147 0)
(1.001 0.000983929 0)
(1.00133 -4.31979e-05 0)
(1.00018 -0.00103228 0)
(0.999512 -0.00146609 0)
(0.997575 0.000626473 0)
(0.997198 0.00280927 0)
(0.998073 0.00347081 0)
(0.999046 0.00410043 0)
(0.998804 0.00571241 0)
(0.999373 0.00677291 0)
(1.00008 0.00756689 0)
(1.001 0.00771694 0)
(1.00082 0.00834159 0)
(1.00013 0.00868874 0)
(0.998466 0.00917735 0)
(0.998878 -0.000855909 0)
(1.00023 0.00047836 0)
(1.00191 -0.0011431 0)
(0.999044 -0.00105178 0)
(0.998932 0.00151297 0)
(1.00093 0.000928109 0)
(1.00125 1.38573e-05 0)
(1.00014 -0.000700655 0)
(0.999684 -0.00112657 0)
(0.997987 0.000665437 0)
(0.997527 0.00282872 0)
(0.998258 0.00362713 0)
(0.99936 0.00410837 0)
(0.999199 0.0055811 0)
(0.999712 0.00656471 0)
(1.0003 0.00746882 0)
(1.00117 0.00760318 0)
(1.00104 0.00809359 0)
(1.00039 0.00843953 0)
(0.998654 0.00890154 0)
(0.998959 -0.000838341 0)
(1.00021 0.000431637 0)
(1.00185 -0.00118552 0)
(0.999173 -0.00100869 0)
(0.999026 0.00145014 0)
(1.00089 0.000966041 0)
(1.00119 0.000117704 0)
(1.00011 -0.000366239 0)
(0.999836 -0.000777805 0)
(0.998376 0.000713796 0)
(0.997869 0.00278809 0)
(0.998443 0.00374972 0)
(0.999641 0.00409851 0)
(0.999582 0.0054446 0)
(1.00006 0.00636864 0)
(1.00052 0.00728489 0)
(1.00133 0.00747545 0)
(1.00128 0.00791687 0)
(1.00063 0.00820171 0)
(0.998832 0.00858278 0)
(0.999037 -0.000801165 0)
(1.00019 0.000356678 0)
(1.00179 -0.00117472 0)
(0.999312 -0.00100974 0)
(0.99912 0.00145936 0)
(1.00083 0.000925302 0)
(1.00114 0.000253427 0)
(1.00009 -4.96276e-05 0)
(0.999967 -0.00044987 0)
(0.998747 0.000786479 0)
(0.998239 0.00275306 0)
(0.998643 0.00386156 0)
(0.999906 0.00412602 0)
(0.99995 0.00535091 0)
(1.00041 0.00619149 0)
(1.00077 0.00710247 0)
(1.00152 0.00739545 0)
(1.00146 0.00773668 0)
(1.00083 0.00796128 0)
(0.999018 0.00827886 0)
(0.999112 -0.000784232 0)
(1.00016 0.000317834 0)
(1.00173 -0.00119403 0)
(0.999445 -0.000998211 0)
(0.999214 0.00135846 0)
(1.0008 0.00094872 0)
(1.00111 0.000444218 0)
(1.00008 0.000259143 0)
(1.00008 -0.000108824 0)
(0.999093 0.000911789 0)
(0.998616 0.00270372 0)
(0.998854 0.00393206 0)
(1.00015 0.00416534 0)
(1.0003 0.00523768 0)
(1.00076 0.00603931 0)
(1.00105 0.00690295 0)
(1.00169 0.00725312 0)
(1.00163 0.00754863 0)
(1.00101 0.00777273 0)
(0.999198 0.00800464 0)
(0.999185 -0.000763599 0)
(1.00013 0.000271678 0)
(1.00166 -0.00116936 0)
(0.999577 -0.00102521 0)
(0.999316 0.00129275 0)
(1.00077 0.00103064 0)
(1.00109 0.000558303 0)
(1.00008 0.000513279 0)
(1.00017 0.000202059 0)
(0.999406 0.00103186 0)
(0.999001 0.00264084 0)
(0.999088 0.00397781 0)
(1.00038 0.00421767 0)
(1.00063 0.00514659 0)
(1.0011 0.00591496 0)
(1.00134 0.00668428 0)
(1.00189 0.00710866 0)
(1.0018 0.00739241 0)
(1.00117 0.00760475 0)
(0.99936 0.00775862 0)
(0.999254 -0.000733918 0)
(1.0001 0.00020676 0)
(1.00159 -0.00107734 0)
(0.999706 -0.00109369 0)
(0.99943 0.00127547 0)
(1.00075 0.00108322 0)
(1.00108 0.000648615 0)
(1.00009 0.000730335 0)
(1.00026 0.00050338 0)
(0.999691 0.00118308 0)
(0.999386 0.00259605 0)
(0.999338 0.003977 0)
(1.00059 0.00426244 0)
(1.00094 0.00504984 0)
(1.00142 0.00577782 0)