/*--------------------------------*- C++ -*----------------------------------*\
| =========                 |                                                 |
| \\      /  F ield         | OpenFOAM: The Open Source CFD Toolbox           |
|  \\    /   O peration     | Version:  v2012                                 |
|   \\  /    A nd           | Website:  www.openfoam.com                      |
|    \\/     M anipulation  |                                                 |
\*---------------------------------------------------------------------------*/
FoamFile
{
    version     2.0;
    format      ascii;
    class       volScalarField;
    location    "0.9";
    object      p;
}
// * * * * * * * * * * * * * * * * * * * * * * * * * * * * * * * * * * * * * //

dimensions      [0 2 -2 0 0 0 0];


internalField   nonuniform List<scalar> 
7000
(
-1.01584e-11
0.0065852
0.00571732
0.00670057
0.00714398
0.0074264
0.00265759
0.00437295
0.00308935
0.00671159
0.00899609
0.0107392
0.0127078
0.0148242
0.0176759
0.0210808
0.0231952
0.026991
0.0298292
0.0358416
-2.22858e-06
0.00659558
0.0057176
0.00670306
0.00713597
0.00741795
0.00267544
0.0043774
0.00308888
0.00672085
0.00899159
0.0107369
0.0127092
0.0148112
0.0176854
0.0210447
0.0232088
0.0269285
0.0298643
0.0355448
-4.86773e-06
0.00661073
0.00571408
0.00671
0.00712629
0.00741284
0.002699
0.00437661
0.00309859
0.00673297
0.00898383
0.010734
0.0127069
0.0147917
0.0176853
0.0209972
0.0232109
0.0268453
0.0298791
0.0350771
-6.12899e-06
0.00662161
0.00570792
0.00672429
0.00711633
0.00740809
0.00273585
0.00437256
0.00312172
0.0067414
0.00897491
0.0107287
0.0127022
0.0147674
0.0176794
0.0209453
0.0232029
0.0267549
0.0298075
0.0346084
-4.85519e-06
0.00662636
0.00570091
0.00674339
0.00710815
0.00740513
0.00278389
0.00436733
0.00315578
0.00674603
0.00896527
0.0107195
0.0126986
0.0147397
0.0176757
0.0208872
0.0231963
0.0266525
0.0297361
0.0341649
-4.26958e-07
0.00662592
0.00569343
0.0067646
0.0071026
0.00740312
0.00284154
0.00436304
0.00319735
0.00674841
0.00895512
0.0107068
0.0126974
0.0147105
0.0176735
0.0208228
0.0231904
0.0265349
0.0296378
0.0337406
7.27178e-06
0.00662152
0.00568584
0.00678693
0.00709912
0.00740146
0.00290619
0.00436022
0.00324337
0.00674958
0.00894494
0.0106908
0.0126985
0.0146797
0.0176712
0.0207526
0.0231802
0.0264035
0.029514
0.0333268
1.812e-05
0.0066145
0.00567917
0.00681005
0.00709568
0.0073995
0.00297645
0.00435847
0.0032919
0.00674984
0.00893511
0.0106712
0.0127012
0.0146467
0.0176682
0.0206759
0.0231624
0.0262609
0.0293635
0.0329178
3.20686e-05
0.00660656
0.00567467
0.0068337
0.00709022
0.00739685
0.00305179
0.00435728
0.00334231
0.00674906
0.00892588
0.0106479
0.0127044
0.0146107
0.0176641
0.020592
0.023135
0.026109
0.0291851
0.0325107
4.92152e-05
0.0065993
0.0056733
0.00685776
0.0070813
0.00739334
0.00313212
0.00435654
0.00339508
0.00674726
0.00891769
0.0106211
0.0127073
0.0145714
0.0176583
0.0205011
0.0230961
0.0259487
0.0289792
0.0321029
6.96462e-05
0.00659384
0.00567549
0.00688219
0.00706859
0.00738892
0.00321737
0.00435655
0.0034514
0.00674491
0.00891125
0.0105916
0.0127089
0.0145285
0.0176503
0.0204037
0.0230434
0.02578
0.0287472
0.0316923
9.32459e-05
0.00659059
0.00568109
0.00690682
0.0070527
0.00738362
0.00330731
0.00435777
0.00351273
0.00674292
0.00890755
0.0105604
0.0127087
0.014482
0.0176399
0.0203004
0.0229751
0.0256031
0.0284907
0.0312766
0.000119628
0.00658939
0.00568946
0.00693134
0.00703474
0.00737738
0.00340164
0.00436074
0.00358043
0.00674211
0.00890772
0.010529
0.0127066
0.0144311
0.0176262
0.0201928
0.0228899
0.0254177
0.0282118
0.0308541
0.000148218
0.00658972
0.00569975
0.00695523
0.00701583
0.00737001
0.00349995
0.00436595
0.00365555
0.0067446
0.00891284
0.0104985
0.0127025
0.0143782
0.0176086
0.0200822
0.0227867
0.0252236
0.0279126
0.0304234
0.00017842
0.00659101
0.00571116
0.00697788
0.00699674
0.00736119
0.00360176
0.00437373
0.0037388
0.00675107
0.00892375
0.0104698
0.0126967
0.0143235
0.0175855
0.0199692
0.0226651
0.0250199
0.0275953
0.0299832
0.00020976
0.00659277
0.00572314
0.00699871
0.00697781
0.00735055
0.00370649
0.00438415
0.00383035
0.00676216
0.008941
0.0104434
0.0126891
0.014268
0.0175555
0.0198545
0.0225252
0.0248046
0.0272616
0.0295336
0.000241957
0.00659473
0.00573546
0.00701735
0.00695913
0.00733774
0.00381358
0.00439695
0.00392986
0.00677802
0.0089647
0.0104196
0.0126795
0.0142126
0.0175168
0.0197385
0.0223672
0.0245772
0.0269131
0.0290748
0.000274914
0.00659678
0.0057481
0.00703355
0.00694075
0.00732252
0.00392257
0.00441165
0.00403647
0.00679829
0.00899444
0.0103985
0.0126669
0.0141584
0.0174681
0.0196211
0.0221916
0.0243369
0.026552
0.0286071
0.000308659
0.0065989
0.00576116
0.00704724
0.00692275
0.00730476
0.00403316
0.00442762
0.00414896
0.00682217
0.00902925
0.0103799
0.0126499
0.0141058
0.0174082
0.0195022
0.0219994
0.0240831
0.0261794
0.0281313
0.000343274
0.0066011
0.00577474
0.00705842
0.00690538
0.00728446
0.00414513
0.00444426
0.00426599
0.00684863
0.00906771
0.0103641
0.0126272
0.0140554
0.0173365
0.0193806
0.0217923
0.0238147
0.0257954
0.0276483
0.000378848
0.00660338
0.00578895
0.0070671
0.00688896
0.00726165
0.00425835
0.00446105
0.00438622
0.00687684
0.00910808
0.0103514
0.0125971
0.014007
0.0172528
0.0192549
0.021571
0.0235312
0.0254012
0.0271591
0.000415463
0.0066057
0.00580384
0.00707328
0.00687387
0.00723639
0.00437268
0.00447768
0.00450842
0.00690647
0.00914833
0.0103422
0.0125584
0.01396
0.0171573
0.0191229
0.021336
0.023233
0.0249984
0.0266647
0.000453184
0.00660801
0.0058195
0.00707692
0.00686046
0.00720881
0.00448791
0.00449403
0.0046315
0.0069377
0.00918631
0.0103367
0.0125106
0.0139129
0.0170511
0.0189828
0.0210877
0.0229205
0.0245876
0.0261665
0.00049207
0.00661021
0.00583601
0.00707792
0.00684899
0.00717905
0.00460381
0.0045102
0.00475435
0.00697132
0.0092201
0.0103352
0.0124532
0.0138644
0.0169357
0.0188332
0.0208262
0.0225933
0.0241696
0.0256657
0.000532177
0.00661222
0.00585345
0.00707616
0.00683967
0.00714721
0.00472004
0.00452664
0.00487577
0.00700849
0.00924822
0.0103376
0.0123866
0.0138124
0.016812
0.0186734
0.0205522
0.0222514
0.0237453
0.0251628
0.000573563
0.00661389
0.00587194
0.00707149
0.00683266
0.00711342
0.00483606
0.00454407
0.00499448
0.00705037
0.00926979
0.0103434
0.0123114
0.0137546
0.0166802
0.0185028
0.0202661
0.0218964
0.0233159
0.0246579
0.000616291
0.00661511
0.0058916
0.00706371
0.00682804
0.00707791
0.00495125
0.00456334
0.00510908
0.00709784
0.00928435
0.0103519
0.0122286
0.0136885
0.0165404
0.0183215
0.0199677
0.0215287
0.0228832
0.0241519
0.00066043
0.0066157
0.00591256
0.0070526
0.00682581
0.00704099
0.00506497
0.0045854
0.00521834
0.00715143
0.00929175
0.0103618
0.0121402
0.013612
0.0163913
0.0181301
0.0196575
0.0211474
0.0224477
0.0236463
0.000706056
0.00661552
0.00593497
0.00703796
0.00682585
0.00700303
0.00517638
0.00461142
0.00532122
0.00721132
0.00929204
0.0103717
0.0120486
0.0135243
0.016231
0.0179279
0.0193358
0.0207551
0.0220091
0.0231395
0.000753257
0.00661436
0.00595893
0.00701964
0.00682804
0.00696452
0.00528442
0.00464241
0.00541681
0.00727753
0.00928678
0.0103799
0.0119554
0.0134259
0.0160585
0.0177134
0.0190015
0.0203516
0.0215693
0.022632
0.000802126
0.00661204
0.00598456
0.00699748
0.00683218
0.00692609
0.00538813
0.00467894
0.00550459
0.00734988
0.00927681
0.0103838
0.0118622
0.0133166
0.0158734
0.0174876
0.0186548
0.0199259
0.0211216
0.0221325
0.000852769
0.00660834
0.00601199
0.00697134
0.00683798
0.00688852
0.00548657
0.00472142
0.00558455
0.00742708
0.00926551
0.0103786
0.0117717
0.0131954
0.0156767
0.0172505
0.0182988
0.0194726
0.0206419
0.0216496
0.000905303
0.00660305
0.00604128
0.00694124
0.00684496
0.00685286
0.00557877
0.00477
0.00565687
0.00750759
0.00925522
0.0103625
0.0116844
0.0130641
0.015469
0.0169985
0.0179331
0.0189901
0.0201245
0.0211861
0.000959844
0.00659593
0.00607249
0.00690729
0.00685245
0.00682009
0.00566419
0.00482445
0.00572174
0.00759016
0.00924713
0.0103355
0.011597
0.0129268
0.0152483
0.0167273
0.017547
0.0184831
0.0196018
0.0207414
0.00101652
0.00658674
0.00610566
0.00686968
0.00685979
0.00679094
0.00574262
0.00488433
0.00577978
0.00767293
0.00924208
0.0102984
0.0115054
0.0127849
0.0150068
0.0164299
0.017146
0.0179759
0.0190933
0.0203035
0.00107547
0.00657525
0.00614076
0.0068287
0.00686624
0.00676626
0.00581373
0.00494884
0.00583237
0.00775362
0.00924054
0.0102518
0.0114076
0.0126325
0.0147404
0.0161138
0.0167521
0.0174875
0.0185858
0.0198539
0.00113683
0.00656122
0.00617765
0.00678481
0.00687098
0.00674689
0.00587754
0.0050167
0.00588066
0.00783062
0.00924252
0.0101966
0.0112997
0.012464
0.0144584
0.0157882
0.0163669
0.0170145
0.0180734
0.019393
0.00120073
0.00654445
0.00621622
0.00673852
0.0068732
0.00673316
0.00593486
0.00508634
0.00592569
0.00790266
0.00924623
0.0101331
0.011179
0.0122823
0.0141677
0.0154555
0.0159836
0.0165465
0.0175627
0.0189305
0.00126732
0.00652472
0.00625634
0.00669045
0.00687217
0.00672507
0.00598676
0.00515606
0.00596849
0.00796812
0.00925111
0.010059
0.0110451
0.0120936
0.0138695
0.0151138
0.0156031
0.0160891
0.0170548
0.0184642
0.00133675
0.00650187
0.0062977
0.0066412
0.00686721
0.00672254
0.00603404
0.00522452
0.00600937
0.00802565
0.00925631
0.00997321
0.0108987
0.0119002
0.013568
0.0147629
0.0152217
0.0156415
0.0165497
0.0179959
0.0014091
0.00647581
0.00633991
0.00659148
0.00685792
0.00672503
0.0060779
0.00529082
0.00604794
0.00807414
0.00925943
0.00987946
0.0107402
0.011702
0.0132676
0.0144041
0.0148324
0.0151967
0.0160557
0.017535
0.00148451
0.00644641
0.00638245
0.00654207
0.00684417
0.00673141
0.00612
0.00535427
0.00608332
0.00811217
0.00925975
0.0097777
0.0105704
0.0114979
0.0129688
0.014038
0.0144338
0.0147606
0.0155763
0.0170784
0.00156313
0.00641359
0.0064248
0.00649376
0.0068259
0.00674052
0.00616133
0.00541482
0.00611437
0.00813868
0.00925683
0.00966561
0.0103909
0.0112844
0.0126709
0.0136692
0.01403
0.014335
0.0151069
0.0166238
0.00164501
0.00637746
0.00646642
0.00644707
0.00680341
0.00675124
0.006202
0.00547305
0.00613999
0.00815269
0.00924964
0.00956062
0.0102027
0.0110586
0.0123727
0.0133041
0.013623
0.0139087
0.0146476
0.0161791
0.00173024
0.00633814
0.00650668
0.00640243
0.00677731
0.00676254
0.00624161
0.00552952
0.00615991
0.00815256
0.00923752
0.00945683
0.0100065
0.0108208
0.012072
0.0129439
0.0132119
0.0134816
0.0142051
0.0157462
0.00181893
0.00629569
0.00654486
0.00636034
0.00674818
0.0067737
0.0062794
0.00558436
0.00617444
0.00813726
0.00921914
0.00935461
0.00980655
0.01057
0.011764
0.0125906
0.0128029
0.0130565
0.0137748
0.0153218
0.00191108
0.0062503
0.00658043
0.00632093
0.00671655
0.0067845
0.00631438
0.00563707
0.00618432
0.00810677
0.0091922
0.0092554
0.00960495
0.0103059
0.0114456
0.0122464
0.0124051
0.0126298
0.0133472
0.0149065
0.0020067
0.00620227
0.00661276
0.00628418
0.00668301
0.00679502
0.00634582
0.00568652
0.00619008
0.00806124
0.0091553
0.00915924
0.00940222
0.0100326
0.0111155
0.0119058
0.0120197
0.0122049
0.012925
0.0145003
0.00210576
0.00615191
0.00664124
0.00625004
0.00664783
0.00680542
0.0063738
0.00573157
0.00619128
0.00800217
0.00910689
0.00906501
0.009201
0.00975393
0.0107701
0.0115619
0.0116516
0.0117897
0.0125064
0.0141002
0.00220821
0.00609961
0.00666549
0.00621811
0.00661084
0.00681597
0.00639884
0.0057711
0.00618796
0.00793069
0.00904544
0.00897176
0.00900228
0.00947237
0.0104105
0.0112107
0.0113014
0.0113883
0.0120906
0.0137042
0.00231403
0.00604598
0.00668508
0.00618817
0.0065717
0.00682646
0.00642151
0.00580425
0.00618011
0.0078479
0.00896998
0.00887825
0.00880567
0.00919065
0.0100415
0.0108469
0.010963
0.0110064
0.0116828
0.0133119
0.0024231
0.00599169
0.0066997
0.00616019
0.00652983
0.00683598
0.0064426
0.00583095
0.00616724
0.00775567
0.00887927
0.00878316
0.00861149
0.00890991
0.00966756
0.0104673
0.0106306
0.0106473
0.0112885
0.0129251
0.00253521
0.00593711
0.00670925
0.00613384
0.00648445
0.00684364
0.00646283
0.0058513
0.00614936
0.00765497
0.00877257
0.00868496
0.00841998
0.00863104
0.00929392
0.0100719
0.0102953
0.0103105
0.0109165
0.0125469
0.00265021
0.00588282
0.00671349
0.00610875
0.00643514
0.00684849
0.00648262
0.0058657
0.00612575
0.00754715
0.00864962
0.00858128
0.00823295
0.00835329
0.00892305
0.00966502
0.00995278
0.00999289
0.0105691
0.0121805
0.00276779
0.00582951
0.00671226
0.00608477
0.00638182
0.00684889
0.00650204
0.00587498
0.00609587
0.00743396
0.00851083
0.00846924
0.00805057
0.00807609
0.00855686
0.0092519
0.00959943
0.00968713
0.0102476
0.011831
0.00288748
0.00577799
0.00670553
0.00606157
0.00632429
0.00684313
0.00652071
0.00588026
0.00605968
0.0073166
0.00835726
0.00834539
0.00787528
0.007801
0.00819506
0.00883655
0.00923402
0.00938606
0.00995017
0.0115017
0.00300886
0.00572908
0.00669328
0.00603856
0.0062625
0.0068295
0.00653779
0.00588332
0.00601694
0.00719512
0.00819115
0.00820725
0.0077063
0.00753052
0.00783635
0.00842162
0.00885911
0.0090842
0.0096704
0.0111925
0.00313158
0.00568347
0.00667573
0.00601543
0.00619631
0.00680599
0.00655217
0.00588606
0.0059678
0.00706913
0.00801578
0.00805258
0.00754066
0.00726823
0.00748111
0.00800785
0.00847704
0.00877788
0.00940084
0.0109009
0.00325525
0.00564147
0.00665329
0.00599152
0.00612561
0.00677058
0.00656202
0.00588941
0.00591336
0.00693853
0.0078343
0.00788031
0.00737399
0.00701713
0.00713196
0.00759575
0.00808894
0.00846503
0.00913538
0.010623
0.00337964
0.00560299
0.00662621
0.00596819
0.00605079
0.00672147
0.00656499
0.00589353
0.00585512
0.00680227
0.00764924
0.00769209
0.00720131
0.00677797
0.00679302
0.00718597
0.00769312
0.00814378
0.00886993
0.0103556
0.00350454
0.00556743
0.00659443
0.00594911
0.00597266
0.00665761
0.00655923
0.00589832
0.00579426
0.00665857
0.00746157
0.00749163
0.00701845
0.00654899
0.00646804
0.00678092
0.00728901
0.0078116
0.00860057
0.0100953
0.00362969
0.00553438
0.00655772
0.00593433
0.00589278
0.00657911
0.00654264
0.00590301
0.00573234
0.00650597
0.00727067
0.00728348
0.00682303
0.00632646
0.00615965
0.00638565
0.00687775
0.0074644
0.00832287
0.00983943
0.00375469
0.00550401
0.00651549
0.00592229
0.00581334
0.00648757
0.00651349
0.00590603
0.00567122
0.00634399
0.00707479
0.00707142
0.00661482
0.00610529
0.00586719
0.0060049
0.00646315
0.00710019
0.00803224
0.00958471
0.00387876
0.0054767
0.0064676
0.00591126
0.00573648
0.00638594
0.00647079
0.00590483
0.00561246
0.00617352
0.00687077
0.00685772
0.00639594
0.00588039
0.00558783
0.00564224
0.00605135
0.00672037
0.0077236
0.00932603
0.00400098
0.00545302
0.00641446
0.00589914
0.00566371
0.00627714
0.006414
0.00589613
0.00555677
0.00599717
0.00665517
0.00664282
0.00617035
0.00564945
0.00531757
0.00529905
0.005649
0.00632927
0.00739459
0.00905841
0.00412048
0.00543322
0.00635686
0.00588442
0.0055956
0.00616321
0.00634301
0.00587683
0.0055036
0.00581865
0.00642612
0.00642504
0.00594177
0.00541246
0.00505203
0.00497362
0.00526081
0.00593322
0.00704751
0.00877899
0.00423655
0.00541731
0.00629603
0.00586619
0.00553198
0.00604574
0.00625812
0.0058445
0.00545138
0.00564201
0.00618398
0.00620164
0.00571261
0.00517027
0.00478722
0.00466227
0.00488928
0.00553982
0.00668838
0.00848753
0.00434868
0.00540511
0.00623275
0.00584372
0.00547261
0.00592614
0.00616028
0.00579751
0.00539749
0.00547095
0.00593115
0.00596905
0.00548346
0.00492514
0.00452065
0.0043604
0.00453516
0.00515622
0.0063247
0.00818589
0.00445657
0.00539614
0.00616783
0.00581666
0.00541716
0.00580562
0.00605105
0.00573489
0.00533864
0.00530805
0.00567114
0.00572386
0.00525336
0.00467994
0.00425239
0.00406411
0.00419685
0.00478657
0.00596391
0.00787815
0.0045601
0.00539001
0.00610012
0.00578447
0.00536515
0.00568535
0.00593198
0.00565651
0.00527146
0.00515378
0.00540865
0.00546519
0.00502014
0.00443595
0.00398374
0.00377068
0.00387138
0.00443254
0.00561201
0.00756913
0.00465929
0.00538659
0.00602966
0.00574649
0.00531581
0.00556641
0.00580458
0.0055631
0.005193
0.00500678
0.0051486
0.00519384
0.00478053
0.00419317
0.00371686
0.00347947
0.00355567
0.00409337
0.00527197
0.00726271
0.00475394
0.00538557
0.00595704
0.00570223
0.00526802
0.00544931
0.00567011
0.00545621
0.00510118
0.00486411
0.00489488
0.00491221
0.00453214
0.00395072
0.00345328
0.00319102
0.00324717
0.00376726
0.00494462
0.00696146
0.00484353
0.00538657
0.00588323
0.0056516
0.00522045
0.00533398
0.00552973
0.00533775
0.00499493
0.00472221
0.00465047
0.00462415
0.00427344
0.00370662
0.00319359
0.00290656
0.0029447
0.00345194
0.00462916
0.00666646
0.00492726
0.00538918
0.00581023
0.00559497
0.00517165
0.00522024
0.00538428
0.00520905
0.00487431
0.00457788
0.00441664
0.00433373
0.00400412
0.0034582
0.00293737
0.00262765
0.00264867
0.00314537
0.00432295
0.00637675
0.00500446
0.00539287
0.00573969
0.005533
0.00512018
0.00510775
0.00523425
0.0050712
0.00474025
0.00442783
0.00419295
0.00404538
0.00372529
0.0032035
0.0026826
0.00235451
0.00235882
0.00284533
0.00402326
0.00609132
0.00507483
0.00539705
0.00567206
0.00546665
0.00506502
0.00499574
0.00508033
0.00492567
0.00459421
0.00426914
0.00397724
0.00376272
0.00343913
0.00294149
0.00242808
0.00208645
0.00207465
0.00255082
0.00372853
0.005809
0.00513835
0.00540087
0.00560714
0.00539714
0.00500567
0.00488354
0.00492297
0.0047734
0.00443838
0.00410004
0.00376589
0.00348823
0.00314928
0.0026717
0.00217181
0.00182172
0.0017957
0.00226188
0.0034382
0.00552881
0.00519523
0.00540381
0.00554478
0.0053251
0.00494171
0.00477093
0.00476271
0.00461452
0.00427491
0.00392043
0.00355521
0.00322298
0.00285993
0.00239437
0.00191012
0.00155806
0.0015212
0.00197809
0.00315157
0.00525001
0.0052457
0.00540557
0.00548422
0.00525068
0.00487304
0.00465792
0.0046005
0.00444912
0.00410516
0.00373157
0.0033418
0.0029651
0.00257431
0.00211189
0.00164129
0.00129321
0.00124967
0.00169885
0.00286878
0.00497265
0.0052899
0.00540567
0.00542498
0.00517424
0.00479973
0.00454433
0.00443731
0.00427728
0.00392971
0.00353531
0.00312368
0.00271203
0.00229358
0.00182705
0.00136677
0.00102578
0.000979441
0.00142325
0.00258954
0.00469636
0.00532802
0.00540381
0.00536689
0.00509621
0.00472164
0.00442967
0.00427409
0.00409939
0.00374864
0.00333408
0.00290046
0.00246104
0.00201741
0.00154232
0.00108763
0.000754384
0.000708272
0.00114903
0.00231237
0.00442082
0.00536009
0.00539974
0.00530988
0.00501699
0.00463867
0.0043132
0.00411169
0.00391655
0.00356139
0.00312934
0.00267317
0.00220993
0.00174499
0.00125941
0.00080514
0.000478126
0.000434155
0.000873959
0.00203561
0.00414535
0.00538605
0.00539319
0.00525399
0.00493711
0.0045509
0.00419432
0.00395084
0.00373052
0.00336724
0.00292084
0.00244359
0.00195782
0.00147433
0.000978767
0.000521434
0.000197566
0.000155868
0.000596082
0.00175733
0.00386833
0.00540628
0.00538397
0.00519905
0.00485682
0.00445884
0.00407292
0.00379087
0.00354275
0.00316701
0.00270819
0.00221342
0.00170566
0.00120348
0.000698645
0.000236813
-8.69041e-05
-0.000127107
0.000314314
0.00147626
0.00358839
0.00542123
0.00537199
0.00514501
0.0047765
0.00436316
0.00394923
0.00363094
0.00335392
0.00296199
0.00249045
0.00198265
0.00145547
0.000933598
0.000417572
-4.96025e-05
-0.000375056
-0.00041523
2.74602e-05
0.0011909
0.00330409
0.00543116
0.00535729
0.00509161
0.00469629
0.00426425
0.00382374
0.00347085
0.00316477
0.00275506
0.00226819
0.00174969
0.00120562
0.000664811
0.000137274
-0.000337336
-0.00066654
-0.00070803
-0.000264805
0.000899581
0.00301316
0.00543633
0.00533997
0.0050389
0.00461642
0.00416253
0.00369678
0.00330922
0.00297317
0.00254863
0.00204578
0.00151712
0.000957419
0.000395075
-0.000147447
-0.000629568
-0.000962005
-0.00100502
-0.000562885
0.000601031
0.00271328
0.00543694
0.00531995
0.00498715
0.00453775
0.00405892
0.00356985
0.00314802
0.00277791
0.00233969
0.0018211
0.00128435
0.000714355
0.000131683
-0.000432941
-0.000928256
-0.00126626
-0.00131185
-0.000872148
0.000289582
0.00240134
0.00543322
0.00529718
0.0049364
0.00446046
0.0039529
0.00344137
0.00298781
0.00258454
0.00213518
0.00159703
0.0010441
0.000467225
-0.000127728
-0.000710035
-0.0012247
-0.00157483
-0.00162858
-0.00119516
-3.87099e-05
0.00206931
0.00542542
0.00527327
0.00488746
0.00438588
0.00384446
0.0033075
0.00282261
0.00238813
0.00194022
0.00138958
0.00080874
0.000225817
-0.000387504
-0.000982177
-0.00151081
-0.00187883
-0.00194928
-0.00152801
-0.000378035
0.00172857
0.00541293
0.00524922
0.00484223
0.00431466
0.00373404
0.0031697
0.00265563
0.00218611
0.00173862
0.00119188
0.000563429
-7.6851e-05
-0.000683751
-0.00128776
-0.00182547
-0.00220314
-0.00228809
-0.00188591
-0.000753132
0.00134093
0.0053947
0.0052343
0.00481081
0.00424919
0.00362159
0.00303052
0.00249956
0.001996
0.00153143
0.00102911
0.000460826
-0.000168409
-0.000847556
-0.00149046
-0.00206385
-0.00247187
-0.0025849
-0.00221008
-0.0011091
0.00095028
0.00537095
0.00520308
0.00477466
0.00417602
0.00350354
0.00289228
0.0023608
0.0018333
0.0012869
0.000667709
3.40347e-05
-0.000579299
-0.00120756
-0.00182675
-0.00237904
-0.00277994
-0.00288717
-0.00251141
-0.00141286
0.000640298
0.00537866
0.00519641
0.00472262
0.00406162
0.00335058
0.00273122
0.00222485
0.00176027
0.00131019
0.000808314
0.000136368
-0.000574821
-0.00129308
-0.00200995
-0.00269076
-0.00322929
-0.0034708
-0.00321446
-0.00221754
-0.000250971
0.00532632
0.00522741
0.00472801
0.00399023
0.00323418
0.00261891
0.001965
0.00134804
0.00070859
0.000145458
-0.000371931
-0.000932407
-0.00148448
-0.00197092
-0.0023944
-0.00271076
-0.0028301
-0.00255946
-0.00164543
0.000181576
0.00542931
0.00512569
0.00455847
0.00386378
0.00317826
0.00263401
0.00211211
0.00160941
0.00110748
0.000565444
-0.000157357
-0.000952083
-0.00182938
-0.00277261
-0.00368332
-0.00446541
-0.00495108
-0.00492504
-0.00412775
-0.00232921
0.00561363
0.00498713
0.00444054
0.00378177
0.00310584
0.00232409
0.00151265
0.000666888
2.41137e-05
-0.000344176
-0.00062035
-0.000974207
-0.00124677
-0.00129069
-0.001009
-0.000434743
0.000246625
0.000768945
0.00079114
-1.41387e-05
0.00552771
0.00498946
0.0044109
0.00376812
0.00316431
0.00262914
0.0021294
0.00162222
0.00107948
0.000433494
-0.000390781
-0.00142559
-0.00261371
-0.00387002
-0.0051119
-0.00610948
-0.00684752
-0.00707519
-0.00653818
-0.00500575
0.00569923
0.00493401
0.00428742
0.00363131
0.00306705
0.00242379
0.00166233
0.000788129
4.41502e-05
-0.000481716
-0.000992208
-0.00159778
-0.00211061
-0.00239677
-0.00236734
-0.00214644
-0.0016896
-0.00131206
-0.00138215
-0.00224605
0.00567273
0.00488075
0.00423617
0.0036509
0.00324313
0.0029043
0.00249293
0.00196917
0.00135078
0.000473644
-0.000718451
-0.00226701
-0.00407912
-0.00598545
-0.00776476
-0.00924595
-0.0102215
-0.0105039
-0.00986891
-0.0081272
0.0445582
0.0194235
0.00897157
0.00706443
0.00659811
0.00598811
0.00523894
0.00458392
0.00397344
0.0033564
0.00280439
0.00235156
0.00199016
0.00160832
0.00117906
0.000812018
0.000477894
7.87476e-05
-0.000333871
-0.000684783
-0.00105184
-0.00141758
-0.00177
-0.00215128
-0.00259944
-0.00303845
-0.00342639
-0.0038273
-0.00421739
-0.00464964
-0.00516356
-0.00567161
-0.00617429
-0.00667887
-0.00717081
-0.00777511
-0.00834614
-0.00887095
-0.00943645
-0.0100519
-0.0106593
-0.0112668
-0.0119513
-0.0125621
-0.0133147
-0.0140104
-0.0148931
-0.0158436
-0.0166422
-0.0181554
0.043636
0.0194692
0.00901599
0.00708365
0.00660821
0.0059948
0.00524403
0.00458794
0.00397663
0.00335892
0.00280638
0.00235317
0.00199151
0.00160949
0.00118007
0.000812894
0.000478691
7.94886e-05
-0.000333194
-0.000684163
-0.00105127
-0.00141706
-0.00176953
-0.00215085
-0.00259904
-0.0030381
-0.00342608
-0.00382702
-0.00421713
-0.0046494
-0.00516334
-0.00567141
-0.00617411
-0.00667872
-0.00717068
-0.00777499
-0.00834604
-0.00887087
-0.00943638
-0.0100519
-0.0106592
-0.0112668
-0.0119513
-0.012562
-0.0133147
-0.0140104
-0.0148931
-0.0158436
-0.0166423
-0.0181554
0.0428672
0.0195737
0.00908559
0.00710654
0.00661955
0.00600164
0.0052488
0.00459169
0.00397963
0.00336126
0.00280821
0.00235465
0.00199275
0.00161056
0.00118097
0.000813674
0.000479403
8.01416e-05
-0.000332606
-0.000683618
-0.00105077
-0.0014166
-0.00176911
-0.00215046
-0.00259869
-0.00303779
-0.0034258
-0.00382677
-0.00421691
-0.00464918
-0.00516314
-0.00567124
-0.00617396
-0.00667859
-0.00717056
-0.00777488
-0.00834595
-0.00887079
-0.00943631
-0.0100518
-0.0106592
-0.0112667
-0.0119512
-0.012562
-0.0133147
-0.0140104
-0.0148931
-0.0158436
-0.0166423
-0.0181555
0.0421738
0.0197066
0.00918204
0.0071384
0.00663553
0.0060104
0.00525424
0.00459588
0.00398305
0.00336395
0.00281031
0.00235629
0.00199409
0.00161169
0.00118192
0.000814478
0.000480127
8.07886e-05
-0.000332031
-0.000683079
-0.00105026
-0.00141615
-0.00176869
-0.00215006
-0.00259834
-0.00303748
-0.00342552
-0.00382651
-0.00421668
-0.00464896
-0.00516294
-0.00567107
-0.00617381
-0.00667845
-0.00717043
-0.00777477
-0.00834586
-0.00887071
-0.00943624
-0.0100518
-0.0106591
-0.0112667
-0.0119512
-0.012562
-0.0133146
-0.0140103
-0.0148931
-0.0158436
-0.0166424
-0.0181555
0.0414744
0.0198446
0.00929736
0.00717928
0.00665774
0.00602255
0.00526119
0.00460105
0.00398737
0.00336747
0.00281309
0.00235843
0.00199576
0.00161305
0.00118303
0.000815413
0.000480931
8.14821e-05
-0.000331423
-0.00068251
-0.00104973
-0.00141565
-0.00176823
-0.00214963
-0.00259796
-0.00303716
-0.00342521
-0.00382624
-0.00421643
-0.00464872
-0.00516273
-0.00567088
-0.00617364
-0.0066783
-0.00717029
-0.00777465
-0.00834577
-0.00887063
-0.00943617
-0.0100517
-0.0106591
-0.0112666
-0.0119512
-0.012562
-0.0133146
-0.0140103
-0.0148931
-0.0158436
-0.0166424
-0.0181555
0.0407566
0.019982
0.00942357
0.00722541
0.00668487
0.00603822
0.00526999
0.00460739
0.00399275
0.00337207
0.00281686
0.00236132
0.00199792
0.00161475
0.00118443
0.000816558
0.000481867
8.22514e-05
-0.000330766
-0.000681905
-0.00104916
-0.00141512
-0.00176771
-0.00214915
-0.00259755
-0.00303679
-0.00342487
-0.00382593
-0.00421616
-0.00464847
-0.00516249
-0.00567066
-0.00617345
-0.00667814
-0.00717014
-0.00777452
-0.00834566
-0.00887053
-0.00943608
-0.0100516
-0.010659
-0.0112666
-0.0119511
-0.0125619
-0.0133146
-0.0140103
-0.0148931
-0.0158436
-0.0166425
-0.0181555
0.0400261
0.0201177
0.00955591
0.00727332
0.00671447
0.00605655
0.00528053
0.00461486
0.00399913
0.00337778
0.00282178
0.00236517
0.00200074
0.00161691
0.0011862
0.000817999
0.000482995
8.31436e-05
-0.00033003
-0.000681258
-0.00104856
-0.00141453
-0.00176713
-0.0021486
-0.00259707
-0.00303638
-0.00342447
-0.00382559
-0.00421585
-0.00464819
-0.00516223
-0.00567041
-0.00617322
-0.00667794
-0.00716996
-0.00777436
-0.00834552
-0.0088704
-0.00943598
-0.0100516
-0.010659
-0.0112665
-0.0119511
-0.0125619
-0.0133145
-0.0140102
-0.014893
-0.0158435
-0.0166425
-0.0181555
0.039289
0.0202502
0.00969226
0.00732137
0.00674477
0.00607652
0.00529245
0.00462325
0.00400626
0.0033844
0.00282779
0.00237004
0.00200432
0.00161961
0.00118842
0.000819798
0.000484381
8.42249e-05
-0.000329163
-0.000680546
-0.00104792
-0.00141389
-0.00176647
-0.00214796
-0.00259651
-0.00303589
-0.00342402
-0.00382519
-0.00421552
-0.00464788
-0.00516192
-0.0056701
-0.00617294
-0.00667771
-0.00716975
-0.00777417
-0.00834535
-0.00887025
-0.00943585
-0.0100514
-0.0106589
-0.0112664
-0.011951
-0.0125618
-0.0133145
-0.0140102
-0.014893
-0.0158435
-0.0166426
-0.0181556
0.0385483
0.0203775
0.00983252
0.0073693
0.00677497
0.00609739
0.00530536
0.00463236
0.00401392
0.00339163
0.00283464
0.00237581
0.00200865
0.00162288
0.00119111
0.000821976
0.000486057
8.55549e-05
-0.000328098
-0.00067973
-0.00104725
-0.00141322
-0.00176574
-0.0021472
-0.00259582
-0.00303529
-0.00342348
-0.00382474
-0.00421514
-0.00464754
-0.00516157
-0.00566973
-0.0061726
-0.00667742
-0.0071695
-0.00777393
-0.00834513
-0.00887005
-0.00943569
-0.0100513
-0.0106587
-0.0112663
-0.0119509
-0.0125617
-0.0133144
-0.0140101
-0.0148929
-0.0158433
-0.0166425
-0.0181556
0.0378059
0.0204988
0.00997753
0.00741737
0.00680476
0.00611874
0.00531897
0.004642
0.00402193
0.00339923
0.00284206
0.00238228
0.00201361
0.00162668
0.00119424
0.000824503
0.000488007
8.7157e-05
-0.000326774
-0.000678751
-0.00104652
-0.00141253
-0.00176496
-0.00214634
-0.00259499
-0.00303455
-0.00342283
-0.00382422
-0.00421473
-0.00464716
-0.00516116
-0.00566928
-0.00617217
-0.00667706
-0.00716918
-0.00777363
-0.00834484
-0.0088698
-0.00943548
-0.0100511
-0.0106586
-0.0112662
-0.0119508
-0.0125616
-0.0133143
-0.01401
-0.0148928
-0.0158432
-0.0166425
-0.0181556
0.0370634
0.0206137
0.0101281
0.00746585
0.00683392
0.00614034
0.00533308
0.0046521
0.00403024
0.00340709
0.00284983
0.00238922
0.00201906
0.0016309
0.00119774
0.00082732
0.000490181
8.90066e-05
-0.000325169
-0.000677556
-0.00104569
-0.00141181
-0.00176417
-0.00214541
-0.00259401
-0.00303362
-0.00342204
-0.00382362
-0.00421429
-0.00464676
-0.00516068
-0.00566873
-0.00617164
-0.00667662
-0.0071688
-0.00777326
-0.00834447
-0.00886948
-0.00943522
-0.0100509
-0.0106584
-0.0112661
-0.0119507
-0.0125615
-0.0133142
-0.0140099
-0.0148927
-0.0158429
-0.0166424
-0.0181556
0.0363223
0.0207214
0.0102848
0.00751501
0.00686223
0.00616202
0.00534761
0.0046626
0.00403885
0.00341516
0.00285783
0.00239648
0.00202485
0.00163544
0.00120153
0.000830365
0.000492516
9.10459e-05
-0.000323304
-0.000676118
-0.00104471
-0.00141106
-0.00176342
-0.00214446
-0.00259289
-0.00303249
-0.00342107
-0.00382293
-0.00421383
-0.00464635
-0.00516014
-0.00566806
-0.006171
-0.00667608
-0.00716834
-0.00777279
-0.008344
-0.00886907
-0.00943489
-0.0100506
-0.0106581
-0.0112658
-0.0119505
-0.0125613
-0.0133141
-0.0140097
-0.0148925
-0.0158426
-0.0166422
-0.0181557
0.0355839
0.0208213
0.0104479
0.00756517
0.0068895
0.00618362
0.00536247
0.00467343
0.00404773
0.00342344
0.00286602
0.00240394
0.00203088
0.00164021
0.00120555
0.000833592
0.000494969
9.32136e-05
-0.000321233
-0.000674446
-0.00104356
-0.00141025
-0.00176271
-0.00214356
-0.0025917
-0.00303114
-0.00341988
-0.00382213
-0.00421335
-0.00464595
-0.00515955
-0.00566728
-0.00617023
-0.00667545
-0.00716779
-0.00777222
-0.00834341
-0.00886857
-0.00943447
-0.0100502
-0.0106578
-0.0112656
-0.0119503
-0.0125611
-0.0133139
-0.0140095
-0.0148923
-0.0158422
-0.016642
-0.0181557
0.0348492
0.0209123
0.0106174
0.00761674
0.0069155
0.00620495
0.0053776
0.00468452
0.00405686
0.00343195
0.00287438
0.00241157
0.0020371
0.00164516
0.00120973