/*--------------------------------*- C++ -*----------------------------------*\
| =========                 |                                                 |
| \\      /  F ield         | OpenFOAM: The Open Source CFD Toolbox           |
|  \\    /   O peration     | Version:  v2012                                 |
|   \\  /    A nd           | Website:  www.openfoam.com                      |
|    \\/     M anipulation  |                                                 |
\*---------------------------------------------------------------------------*/
FoamFile
{
    version     2.0;
    format      ascii;
    class       volScalarField;
    location    "3";
    object      p;
}
// * * * * * * * * * * * * * * * * * * * * * * * * * * * * * * * * * * * * * //

dimensions      [0 2 -2 0 0 0 0];


internalField   nonuniform List<scalar> 
7000
(
2.56712e-10
0.00856217
0.0176111
0.00610984
0.00518754
0.00972282
0.00685342
0.00538564
0.00399716
0.00551832
0.00199268
0.00364307
0.00208412
0.00367062
0.00291197
0.00437429
0.00429007
0.00569015
0.006397
0.00840574
6.30652e-06
0.00856494
0.0175212
0.00612058
0.00519854
0.00968664
0.00685452
0.00536286
0.00401126
0.00550769
0.00200535
0.0036437
0.00209183
0.00367212
0.00291461
0.00436881
0.00429547
0.00568014
0.00640338
0.00830515
1.36294e-05
0.00856556
0.017429
0.00613543
0.00520854
0.00963896
0.00685509
0.00534058
0.00402563
0.00549322
0.00202764
0.00363736
0.00211125
0.00366425
0.00293609
0.0043493
0.00431342
0.00565446
0.0064091
0.0081439
2.18461e-05
0.00856834
0.0173348
0.00615447
0.00521815
0.00958756
0.00685121
0.00532689
0.00403825
0.00547708
0.00205802
0.00362268
0.00214104
0.0036474
0.00296329
0.00431911
0.00433377
0.00561704
0.00640448
0.007963
3.32774e-05
0.00857417
0.017235
0.00617942
0.00523044
0.00953208
0.00684355
0.0053236
0.00405091
0.00545969
0.00209647
0.00359938
0.00217868
0.00362215
0.00299184
0.00428124
0.00435191
0.00557248
0.00638913
0.00778703
5.0057e-05
0.00858073
0.0171284
0.00621068
0.00524635
0.00947274
0.00683401
0.00532999
0.00406461
0.00544099
0.00214155
0.00356841
0.00222185
0.00358561
0.00302066
0.00423803
0.00436755
0.00552407
0.00636397
0.00762286
7.35701e-05
0.00858588
0.0170149
0.00624743
0.00526589
0.00941115
0.00682399
0.00534304
0.00407961
0.00542062
0.00219141
0.0035321
0.00226929
0.00354947
0.00304971
0.00419127
0.00438122
0.00547287
0.00632886
0.00746754
0.000104486
0.00858893
0.0168956
0.00628817
0.00528897
0.00934922
0.00681415
0.00535873
0.00409605
0.00539816
0.00224506
0.00349266
0.00232052
0.00351183
0.0030796
0.0041422
0.00439275
0.005419
0.00628338
0.00731657
0.000142825
0.00859004
0.0167712
0.00633114
0.00531555
0.00928846
0.00680465
0.00537335
0.00411402
0.00537312
0.00230214
0.00345128
0.00237551
0.00347389
0.0031109
0.00409208
0.00440128
0.00536306
0.00622789
0.00716782
0.000188037
0.00858965
0.0166429
0.00637477
0.00534555
0.00922983
0.00679539
0.00538424
0.00413365
0.00534513
0.00236251
0.00340834
0.00243424
0.00343647
0.00314389
0.00404246
0.00440592
0.00530655
0.0061636
0.00702126
0.000239193
0.0085882
0.016511
0.00641799
0.0053788
0.00917367
0.00678622
0.00538992
0.0041551
0.00531396
0.00242601
0.00336389
0.00249631
0.00340018
0.00317859
0.00399508
0.00440603
0.00525111
0.00609217
0.00687758
0.000295231
0.00858602
0.0163758
0.00646023
0.00541488
0.00911969
0.00677705
0.00538993
0.00417864
0.00527947
0.00249241
0.00331797
0.00256088
0.00336563
0.0032145
0.00395162
0.00440121
0.0051977
0.00601523
0.00673735
0.000355176
0.00858333
0.0162372
0.00650132
0.00545327
0.00906722
0.00676789
0.00538443
0.0042046
0.00524158
0.00256149
0.00327074
0.00262701
0.00333346
0.00325029
0.00391342
0.00439101
0.00514641
0.00593424
0.0066007
0.000418263
0.00858023
0.0160952
0.00654129
0.00549343
0.00901552
0.00675883
0.0053739
0.00423332
0.00520033
0.00263298
0.00322256
0.00269376
0.0033044
0.00328409
0.00388125
0.00437503
0.00509664
0.00585044
0.0064674
0.000483962
0.0085768
0.0159496
0.00658022
0.00553496
0.00896394
0.00675002
0.00535885
0.00426506
0.00515585
0.00270652
0.00317395
0.00276004
0.00327932
0.00331402
0.00385526
0.00435298
0.00504723
0.00576474
0.00633703
0.000551925
0.0085731
0.0158005
0.00661817
0.00557758
0.00891203
0.0067417
0.00533969
0.00429998
0.00510835
0.00278165
0.00312562
0.00282455
0.00325932
0.00333865
0.00383506
0.00432496
0.00499661
0.00567756
0.00620914
0.00062191
0.00856917
0.0156478
0.00665518
0.00562111
0.00885946
0.00673406
0.00531671
0.00433811
0.00505814
0.00285769
0.00307864
0.00288583
0.00324548
0.00335702
0.00381977
0.00429147
0.00494302
0.0055889
0.00608323
0.000693718
0.00856504
0.0154918
0.00669127
0.0056654
0.00880596
0.00672731
0.00529013
0.00437937
0.00500569
0.0029337
0.0030344
0.00294243
0.00323851
0.00336859
0.00380815
0.00425344
0.00488485
0.00549847
0.00595888
0.000767166
0.00856067
0.0153325
0.00672643
0.00571031
0.0087513
0.00672159
0.00526013
0.0044235
0.00495172
0.00300857
0.00299429
0.00299299
0.00323883
0.00337313
0.00379869
0.0042121
0.00482073
0.00540571
0.00583601
0.000842102
0.00855599
0.0151703
0.00676063
0.00575569
0.00869523
0.00671701
0.00522689
0.00447009
0.00489711
0.00308105
0.00295965
0.00303636
0.00324655
0.00337078
0.00378941
0.00416888
0.00475
0.00530964
0.0057146
0.000918436
0.00855087
0.0150054
0.00679377
0.00580143
0.00863756
0.00671363
0.00519061
0.00451859
0.00484293
0.00314977
0.00293171
0.00307167
0.00326122
0.00336224
0.00377811
0.00412497
0.00467305
0.00520957
0.00559426
0.000996154
0.00854516
0.0148381
0.00682576
0.00584745
0.00857819
0.00671147
0.00515156
0.00456824
0.00479049
0.0032133
0.00291133
0.00309832
0.00328186
0.0033487
0.0037625
0.00408084
0.00459083
0.00510559
0.005475
0.00107531
0.0085387
0.0146685
0.00685645
0.00589375
0.00851707
0.00671056
0.00511009
0.00461825
0.00474119
0.00327023
0.00289883
0.00311624
0.00330731
0.00333178
0.00374035
0.00403623
0.00450427
0.00499761
0.00535739
0.00115601
0.00853133
0.0144968
0.00688571
0.00594034
0.0084543
0.00671092
0.00506658
0.0046676
0.00469664
0.00331929
0.00289411
0.00312577
0.00333586
0.00331361
0.00371016
0.00399061
0.00441483
0.00488556
0.00524143
0.00123837
0.0085229
0.0143233
0.00691347
0.00598724
0.00838992
0.00671259
0.00502178
0.00471483
0.00465825
0.00335985
0.00289689
0.00312764
0.00336517
0.00329641
0.00367115
0.00394303
0.00432453
0.00477019
0.00512663
0.00132248
0.00851327
0.0141484
0.00693963
0.00603449
0.00832408
0.00671534
0.00497686
0.00475868
0.00462656
0.00339143
0.00290705
0.00312308
0.0033921
0.00328213
0.00362338
0.00389194
0.00423556
0.00465303
0.00501206
0.00140844
0.00850231
0.0139722
0.00696417
0.00608191
0.00825713
0.00671901
0.00493237
0.00479843
0.00460258
0.00341322
0.00292349
0.00311397
0.00341371
0.0032707
0.00356813
0.0038355
0.00414933
0.00453731
0.00489726
0.00149633
0.00848988
0.0137952
0.00698714
0.00612941
0.00818914
0.00672363
0.00488923
0.00483251
0.00458764
0.00342551
0.00294429
0.00310185
0.00342869
0.00326139
0.00350689
0.00377238
0.00406476
0.00442599
0.00478341
0.00158621
0.00847583
0.0136177
0.00700838
0.00617702
0.00812044
0.00672821
0.00484925
0.00485966
0.00458135
0.00342916
0.00296883
0.00308815
0.00343589
0.0032521
0.00344095
0.00370406
0.00398026
0.00431977
0.00467193
0.00167815
0.00846001
0.01344
0.00702806
0.00622398
0.00805216
0.00673213
0.00481204
0.00487983
0.00458374
0.00342424
0.00299559
0.00307455
0.00343579
0.00324049
0.0033704
0.00362697
0.00389599
0.00422514
0.00456293
0.00177222
0.00844221
0.0132624
0.00704617
0.00627016
0.00798428
0.00673512
0.00477853
0.00489148
0.00459539
0.00341241
0.003021
0.00306333
0.00342744
0.00322504
0.00329571
0.00354127
0.00380801
0.00414515
0.00445768
0.00186842
0.00842228
0.013085
0.00706268
0.00631531
0.00791711
0.00673605
0.00475033
0.00489384
0.00461424
0.00339781
0.0030411
0.00305988
0.0034081
0.00320454
0.00322399
0.00345481
0.00371189
0.00404348
0.00436227
0.00196677
0.00840012
0.012908
0.00707785
0.00635815
0.00785224
0.00673465
0.0047256
0.00488905
0.00463721
0.00338421
0.00305153
0.00306627
0.00337358
0.00318278
0.00314937
0.00334467
0.00360183
0.00394906
0.00428063
0.00206747
0.00837534
0.0127319
0.00709129
0.00639921
0.00778889
0.00673063
0.00470486
0.00487745
0.00466449
0.003372
0.00305295
0.00307716
0.0033353
0.0031587
0.00308195
0.0032361
0.00348253
0.00380366
0.00420746
0.0021703
0.00834791
0.0125562
0.00710392
0.00643713
0.00772796
0.00672325
0.00468997
0.00485594
0.00469753
0.00336201
0.00304989
0.00308592
0.00331263
0.0031199
0.00299262
0.00312342
0.00336839
0.00370322
0.0041374
0.00227516
0.00831786
0.012381
0.00711575
0.00647067
0.00767182
0.00671096
0.00468013
0.0048264
0.00473225
0.0033573
0.0030393
0.00309269
0.00325902
0.00306262
0.00289826
0.00300423
0.003255
0.00365552
0.00406997
0.00238251
0.00828457
0.012207
0.00712644
0.00650137
0.0076168
0.00669662
0.00467098
0.0047956
0.00476198
0.00336022
0.00301676
0.00309677
0.00323095
0.00301228
0.00280641
0.00289662
0.00313938
0.00348881
0.00400872
0.00249182
0.00824837
0.0120331
0.0071375
0.00652691
0.00756535
0.00667915
0.0046666
0.00475798
0.00479475
0.00336885
0.00299021
0.00309
0.00319105
0.00293402
0.00271504
0.00278588
0.00303425
0.00340275
0.00394869
0.00260283
0.00820953
0.0118594
0.00714862
0.00654691
0.00752029
0.00665611
0.00466843
0.00471436
0.00482747
0.00338553
0.00295558
0.00307498
0.00307109
0.00283908
0.00262138
0.00267283
0.00293814
0.00340936
0.00388669
0.00271645
0.00816716
0.0116864
0.00715958
0.00656403
0.00747312
0.0066353
0.00466301
0.00467519
0.00484605
0.00341205
0.0029119
0.003052
0.00309169
0.00275793
0.00251667
0.00257643
0.00282672
0.00320442
0.00383044
0.00283152
0.00812237
0.0115128
0.00717232
0.00657482
0.00742976
0.0066119
0.00466357
0.00462862
0.00487021
0.00344028
0.00286594
0.00301547
0.0029929
0.00266394
0.00240923
0.0024623
0.00272313
0.00312648
0.003782
0.00294812
0.00807531
0.0113384
0.00718629
0.00657988
0.00739155
0.00658455
0.00467354
0.00457219
0.00489843
0.00347297
0.00281024
0.00296018
0.0029027
0.00255796
0.00229301
0.00232199
0.00262546
0.00319524
0.00374415
0.00306708
0.00802513
0.0111642
0.00720015
0.00658408
0.00734583
0.00656613
0.00466735
0.00451991
0.00490414
0.00351779
0.00275315
0.0029114
0.00291202
0.0024792
0.0021562
0.00216836
0.00244706
0.00295158
0.00372675
0.00318677
0.00797357
0.0109882
0.00721623
0.00658356
0.00729991
0.00655127
0.00466429
0.00446421
0.00489509
0.00357125
0.00270049
0.00285611
0.00287351
0.00240293
0.00200665
0.00199019
0.00223674
0.00279489
0.00373528
0.00330796
0.00792041
0.0108108
0.00723313
0.00658034
0.00725328
0.00653453
0.004672
0.00439591
0.00487708
0.00362855
0.00265384
0.00277679
0.00283366
0.00234008
0.0018613
0.00179752
0.00205525
0.00269991
0.0037414
0.00343061
0.00786558
0.0106322
0.00724971
0.00657712
0.00720103
0.00651877
0.00468397
0.00432139
0.0048433
0.00368841
0.00261828
0.00268189
0.0027823
0.00228955
0.00172484
0.00161125
0.00189647
0.00260585
0.0037431
0.00355359
0.00781038
0.0104521
0.00726631
0.00657392
0.00714418
0.00650144
0.00470182
0.00424649
0.00478957
0.00374763
0.00259688
0.00257681
0.00271599
0.00225002
0.00160479
0.00143372
0.00173548
0.00252503
0.00374424
0.00367744
0.00775483
0.0102707
0.00728052
0.00657375
0.00708203
0.00647962
0.00472768
0.00416988
0.00471682
0.00380599
0.00258815
0.00246838
0.00263122
0.00221226
0.00150363
0.00127425
0.00159126
0.00243166
0.00374369
0.0038016
0.00769903
0.0100886
0.00729149
0.00657662
0.00701577
0.0064522
0.00475782
0.00409646
0.00462948
0.00385776
0.00259126
0.00236376
0.00252372
0.00216725
0.00143044
0.00113739
0.00144754
0.00233432
0.00373081
0.0039257
0.00764344
0.00990687
0.00729732
0.00658244
0.00694849
0.00641636
0.00479128
0.0040318
0.00452691
0.0038956
0.00260892
0.00223142
0.00239625
0.00211712
0.00138782
0.00102385
0.0013038
0.00222074
0.00369915
0.00404979
0.00758835
0.00972596
0.0072965
0.0065912
0.0068807
0.00637194
0.00482553
0.00397624
0.00441114
0.003919
0.00264145
0.00212907
0.00225616
0.00205742
0.00136279
0.000929685
0.00116211
0.00208938
0.00366145
0.00417337
0.00753378
0.00954689
0.00728856
0.0066004
0.00681524
0.00632014
0.0048584
0.003932
0.00428623
0.00392389
0.00268313
0.00205034
0.00211195
0.00198164
0.00134443
0.000855783
0.00102955
0.00196601
0.00362275
0.00429617
0.00748028
0.00937052
0.00727269
0.00660857
0.00675321
0.00626218
0.00488715
0.00389867
0.00415522
0.00390792
0.00273159
0.0019904
0.00196887
0.00188459
0.00132237
0.000804343
0.000923459
0.00184761
0.00357472
0.00441807
0.00742775
0.0091973
0.00724927
0.0066135
0.00669488
0.0061999
0.00490965
0.00387573
0.00402353
0.00387098
0.00278345
0.00194749
0.00182923
0.00176745
0.00129283
0.000777705
0.000842846
0.00174071
0.00352005
0.0045387
0.00737698
0.00902809
0.0072179
0.0066136
0.00664141
0.0061346
0.00492573
0.00386316
0.00389383
0.00381241
0.00283258
0.00192145
0.00169811
0.00163885
0.00125274
0.00076633
0.000787358
0.00164864
0.00346896
0.00465782
0.00732733
0.00886318
0.0071793
0.00660773
0.00659112
0.00606751
0.00493201
0.00385864
0.00377058
0.0037342
0.00287392
0.0019107
0.00158075
0.00150383
0.00119551
0.000759044
0.000756995
0.00158658
0.00342695
0.00477511
0.00727929
0.00870316
0.0071343
0.00659416
0.00654332
0.00600003
0.0049302
0.00386108
0.00365806
0.00363868
0.0029017
0.00191275
0.00147876
0.00136736
0.0011215
0.000750221
0.000750255
0.00155597
0.00339692
0.0048903
0.00723322
0.00854845
0.00708355
0.00657232
0.0064947
0.00593224
0.00492073
0.00386899
0.00355874
0.00352928
0.00291297
0.00192571
0.00139331
0.00123439
0.0010335
0.000734537
0.000758081
0.00155054
0.00338299
0.00500314
0.0071891
0.00839995
0.0070279
0.00654163
0.00644316
0.00586303
0.00490508
0.00388122
0.00347516
0.0034115
0.00290607
0.00194626
0.0013227
0.00110758
0.000936373
0.0007104
0.000772747
0.00156438
0.003387
0.00511338
0.00714714
0.00825806
0.0069681
0.00650191
0.00638754
0.00579139
0.00488581
0.00389665
0.00340696
0.00329022
0.00287948
0.00196914
0.0012666
0.000991676
0.000836888
0.000677628
0.000786879
0.00159103
0.00340779
0.00522082
0.00710702
0.00812244
0.00690645
0.00645206
0.00631628
0.00571996
0.00486378
0.00391291
0.00335308
0.00317106
0.00283321
0.00199076
0.00122691
0.000887918
0.000736717
0.000635273
0.000796345
0.00162542
0.0034418
0.00532558
0.00706788
0.00799477
0.00684361
0.00638976
0.00624359
0.00565265
0.00483814
0.00392615
0.00331139
0.00305739
0.00276898
0.00200812
0.00120153
0.00079434
0.000638004
0.000587033
0.000802064
0.00166227
0.00348283
0.0054275
0.00702924
0.00790073
0.00677971
0.00631794
0.00616914
0.00558866
0.00480789
0.00393319
0.00328379
0.00295296
0.00269027
0.00201625
0.00118877
0.000713993
0.000544096
0.000535293
0.000802673
0.00169467
0.00352395
0.00552618
0.0069907
0.0077838
0.0067161
0.00624086
0.00608957
0.0055259
0.00477378
0.00393287
0.00325816
0.00285972
0.00260037
0.00201171
0.00118871
0.000648834
0.000453851
0.000478927
0.000795897
0.00172073
0.00356477
0.00562152
0.00695217
0.00766929
0.00665395
0.00616052
0.00600481
0.00546338
0.00473725
0.00392518
0.00323463
0.00277727
0.002504
0.00199338
0.00119716
0.000599064
0.000368846
0.00041834
0.000783026
0.00174359
0.00360521
0.00571328
0.00691372
0.0075576
0.00659334
0.00607838
0.00591503
0.00539965
0.00469902
0.00391159
0.00321133
0.00270508
0.0024061
0.00195928
0.00120788
0.000567036
0.000292462
0.00035427
0.000764174
0.00176116
0.00364202
0.00580118
0.00687545
0.00744833
0.00653429
0.00599593
0.00582041
0.00533312
0.00465931
0.00389409
0.00318804
0.00264109
0.00230909
0.00190945
0.00121582
0.000552401
0.000228357
0.000288315
0.00073557
0.00177028
0.00367639
0.00588496
0.00683751
0.00734137
0.00647655
0.00591432
0.005721
0.00526229
0.00461772
0.00387388
0.00316394
0.00258325
0.00221509
0.00184715
0.00121636
0.000550973
0.000179467
0.000222094
0.000697111
0.00177311
0.00370945
0.00596438
0.00680002
0.00723673
0.00641987
0.00583425
0.00561838
0.00518664
0.00457401
0.00385128
0.00313914
0.00253073
0.0021254
0.00177562
0.00120531
0.000555846
0.00014603
0.000161157
0.000654555
0.00176894
0.00373672
0.00603922
0.00676317
0.00713424
0.0063639
0.00575659
0.0055137
0.00510568
0.00452748
0.00382653
0.00311398
0.00248311
0.00204043
0.00169717
0.0011808
0.000561226
0.000127896
0.00011136
0.000609709
0.00175378
0.00375577
0.00610924
0.00672702
0.00703392
0.00630824
0.00568185
0.00540803
0.00501916
0.00447659
0.00379934
0.0030887
0.00244004
0.00196074
0.00161397
0.00114395
0.000563039
0.000121175
7.29339e-05
0.000564123
0.00173087
0.00376905
0.00617426
0.00669171
0.00693571
0.00625242
0.00561033
0.00530282
0.00492739
0.00441985
0.00376946
0.00306341
0.00240106
0.00188719
0.0015282
0.00109597
0.00055701
0.000119867
4.57777e-05
0.000523929
0.00170636
0.00377668
0.00623413
0.00665737
0.0068396
0.00619591
0.00554212
0.00519945
0.00483086
0.00435649
0.00373645
0.0030376
0.00236581
0.00182069
0.00144167
0.00103756
0.000540659
0.000119733
2.92549e-05
0.000492189
0.00168191
0.00377851
0.00628875
0.00662402
0.00674567
0.0061383
0.00547696
0.00509899
0.00473076
0.00428583
0.00369895
0.00301089
0.0023333
0.00176105
0.00135661
0.000970431
0.000513498
0.00011706
2.01473e-05
0.000468416
0.00165942
0.00377717
0.00633801
0.00659182
0.006654
0.00607903
0.00541466
0.00500231
0.00462841
0.00420802
0.00365571
0.00298237
0.00230253
0.00170798
0.00127535
0.000896867
0.000475491
0.000108612
1.46753e-05
0.000451765
0.0016409
0.0037739
0.00638181
0.00656074
0.00656486
0.00601783
0.00535461
0.00491
0.00452536
0.00412359
0.00360556
0.00295093
0.00227301
0.00166068
0.00119882
0.000819237
0.000427223
9.22952e-05
9.61387e-06
0.000440837
0.00162649
0.00376942
0.00642012
0.00653082
0.00647838
0.00595448
0.00529629
0.00482232
0.00442324
0.00403349
0.00354781
0.00291546
0.00224326
0.00161781
0.00112789
0.0007401
0.000369839
6.65906e-05
1.80772e-06
0.000433019
0.0016158
0.00376423
0.00645291
0.00650206
0.00639493
0.00588882
0.0052389
0.00473947
0.00432307
0.0039387
0.00348258
0.00287431
0.00221155
0.00157865
0.00106292
0.000661455
0.000304606
3.03389e-05
-1.20227e-05
0.00042536
0.0016071
0.00375758
0.00648018
0.00647434
0.00631473
0.00582106
0.00518168
0.004661
0.00422631
0.00384037
0.00341007
0.00282691
0.00217627
0.00154164
0.00100319
0.00058466
0.000233535
-1.65326e-05
-3.44297e-05
0.000414248
0.00159746
0.00374848
0.006502
0.00644756
0.00623813
0.00575138
0.00512398
0.00458636
0.00413367
0.00373983
0.00333071
0.00277314
0.00213544
0.00150478
0.000947985
0.000510589
0.000158728
-7.33217e-05
-6.7373e-05
0.000396155
0.00158443
0.00373598
0.00651854
0.00642141
0.00616534
0.00568037
0.00506517
0.00451817
0.00404595
0.00363857
0.00324477
0.0027132
0.00208757
0.00146527
0.000896352
0.000439797
8.16429e-05
-0.000139594
-0.000112592
0.000368073
0.00156494
0.00371838
0.00653002
0.00639573
0.00609647
0.0056084
0.005005
0.00444967
0.00396311
0.00353853
0.00315227
0.00264783
0.00203237
0.0014189
0.000845274
0.000372623
4.99997e-06
-0.000212751
-0.000169883
0.000327326
0.00153493
0.00369244
0.00653663
0.00637029
0.00603169
0.00553619
0.00494334
0.00438289
0.00388445
0.00344146
0.00305401
0.00257681
0.00197136
0.00136361
0.000789878
0.000305784
-7.08597e-05
-0.000289967
-0.000237157
0.000273687
0.00149266
0.00365644
0.00653875
0.00634494
0.00597087
0.00546438
0.00488139
0.00431656
0.00380875
0.00334893
0.00295128
0.00249908
0.00190687
0.00130117
0.000728013
0.000234378
-0.000150096
-0.000372736
-0.00031446
0.000206914
0.00143691
0.00360904
0.00653662
0.0063195
0.00591404
0.00539374
0.00481742
0.00425038
0.00373421
0.00326157
0.00284622
0.00241268
0.0018389
0.00123338
0.000660732
0.000158452
-0.000234716
-0.000462864
-0.000403217
0.000125192
0.00136455
0.0035461
0.00653058
0.00629395
0.00586102
0.0053251
0.00475241
0.00418447
0.00365988
0.00317901
0.00274196
0.00231657
0.00176509
0.00116061
0.000587644
7.81355e-05
-0.000323819
-0.000560089
-0.000503645
2.74788e-05
0.00127357
0.00346453
0.00652097
0.00626825
0.00581177
0.00525933
0.00468681
0.00411897
0.0035848
0.00309923
0.00264178
0.00221242
0.00168337
0.00108305
0.000508113
-8.37263e-06
-0.000418797
-0.00066388
-0.000614559
-8.58155e-05
0.00116281
0.00336111
0.00650826
0.00624249
0.00576574
0.00519768
0.00462134
0.00405294
0.00350852
0.00301909
0.00254722
0.0021039
0.00159197
0.000999386
0.000421315
-0.000102285
-0.000521047
-0.000773516
-0.000733065
-0.000210323
0.00103566
0.00323552
0.00649266
0.00621753
0.00572328
0.00513964
0.0045576
0.00398736
0.0034316
0.00293646
0.00245729
0.00199545
0.00149191
0.000908533
0.00032616
-0.000206442
-0.000636376
-0.000896092
-0.000862774
-0.000345762
0.000894666
0.00309147
0.00647332
0.00619236
0.00568646
0.00508719
0.00449635
0.00392339
0.00335637
0.00285014
0.00236735
0.00189016
0.00138685
0.00081234
0.000224967
-0.000319023
-0.000764401
-0.0010356
-0.00101171
-0.000502516
0.000732698
0.00292717
0.00645137
0.00616862
0.00565155
0.00504031
0.00443398
0.00385706
0.00328246
0.00276199
0.00227374
0.00178627
0.00127866
0.000710744
0.000118452
-0.000439144
-0.000903942
-0.00119234
-0.00118167
-0.000682554
0.000544913
0.00273519
0.00643462
0.00615345
0.00562915
0.00500257
0.0043692
0.0037854
0.00320599
0.00267245
0.00217677
0.00168269
0.00116856
0.000604286
6.22875e-06
-0.000567542
-0.00105509
-0.0013689
-0.00138074
-0.000897597
0.000320151
0.00250636
0.00636147
0.00613097
0.00561465
0.00496663
0.00433444
0.0037316
0.00314219
0.00258996
0.00209031
0.00159817
0.00107818
0.000506369
-0.00010643
-0.000704152
-0.00122498
-0.00157748
-0.00162694
-0.0011797
4.05634e-06
0.00215913
0.00642941
0.00612094
0.00558134
0.00493064
0.00424195
0.00363295
0.00303813
0.00250432
0.00202751
0.00156638
0.00106404
0.00050147
-0.000100435
-0.000692806
-0.00123059
-0.00163195
-0.00176489
-0.00142682
-0.000362198
0.00166711
0.00633134
0.00610171
0.0055518
0.00497871
0.00433282
0.00356828
0.00284658
0.00227918
0.00178426
0.00133554
0.000817327
0.000257232
-0.000329472
-0.000852034
-0.00126393
-0.0014958
-0.00147586
-0.00104141
4.78644e-05
0.00205886
0.0064327
0.00604937
0.00554002
0.00486538
0.00418386
0.00356527
0.00298562
0.00250777
0.0020477
0.00157156
0.00101297
0.000388405
-0.000327001
-0.0011188
-0.00192169
-0.00262026
-0.00304213
-0.00296017
-0.00211377
-0.000261215
0.00663788
0.00595234
0.00533199
0.00465879
0.00401205
0.00329475
0.00261119
0.00209572
0.00164812
0.00111566
0.000567273
8.93041e-05
-0.000153208
-6.6948e-05
0.000403599
0.00117473
0.00205783
0.00274988
0.00289059
0.00214508
0.00659496
0.00596298
0.00531589
0.00473005
0.00424235
0.0037139
0.00321163
0.00268964
0.0021439
0.0015301
0.000797699
-9.52297e-05
-0.00111962
-0.00219149
-0.0032201
-0.00413539
-0.00479738
-0.00498198
-0.00440931
-0.00283138
0.0067499
0.00592288
0.00523665
0.00462825
0.00411455
0.0034929
0.00277346
0.00199673
0.00135293
0.000908417
0.000446405
-0.000107936
-0.000575082
-0.000820087
-0.000770424
-0.000414185
0.000169426
0.000701708
0.000787539
5.55663e-05
0.00673921
0.00589729
0.00523228
0.00475073
0.00441035
0.00402371
0.0036194
0.00313806
0.00254782
0.00169722
0.000563247
-0.000865996
-0.0025428
-0.00431651
-0.0059605
-0.00726836
-0.00807823
-0.00822002
-0.00748207
-0.00567388
0.0104781
1.00665e-05
-0.0039308
-0.00253652
-0.000515592
0.000974129
0.00215902
0.00317933
0.00400878
0.00474436
0.00564504
0.00670509
0.00763883
0.00842369
0.00921174
0.00998183
0.0107275
0.0115635
0.0125244
0.0135029
0.0145069
0.0155454
0.0165926
0.0176096
0.0187252
0.0199146
0.0210941
0.0222977
0.0235868
0.0249441
0.0263049
0.0276982
0.0291073
0.0306082
0.0322098
0.0339272
0.0356144
0.0373401
0.0391293
0.0409795
0.0429436
0.0448845
0.0469076
0.0489479
0.051099
0.0533707
0.0555894
0.0579732
0.0600061
0.0621198
0.010289
6.95547e-05
-0.00388958
-0.00252114
-0.00050737
0.000979644
0.00216317
0.00318274
0.00401168
0.00474674
0.00564695
0.00670672
0.0076403
0.00842499
0.00921289
0.00998286
0.0107284
0.0115643
0.0125251
0.0135035
0.0145074
0.0155458
0.0165931
0.01761
0.0187256
0.019915
0.0210944
0.022298
0.0235871
0.0249443
0.0263051
0.0276985
0.0291075
0.0306084
0.03221
0.0339274
0.0356146
0.0373403
0.0391295
0.0409796
0.0429437
0.0448846
0.0469077
0.048948
0.0510991
0.0533708
0.0555895
0.0579732
0.0600061
0.0621198
0.0100349
0.000157521
-0.00382282
-0.00249982
-0.000497723
0.000985625
0.00216733
0.00318598
0.00401436
0.00474892
0.00564871
0.00670824
0.00764166
0.00842617
0.00921393
0.00998379
0.0107292
0.011565
0.0125257
0.0135041
0.0145079
0.0155463
0.0165935
0.0176103
0.0187259
0.0199153
0.0210947
0.0222982
0.0235873
0.0249445
0.0263053
0.0276987
0.0291077
0.0306086
0.0322102
0.0339276
0.0356147
0.0373404
0.0391296
0.0409797
0.0429438
0.0448847
0.0469078
0.0489481
0.0510992
0.0533709
0.0555896
0.0579733
0.0600062
0.0621197
0.00979753
0.000276544
-0.00372085
-0.00246548
-0.000483702
0.000993617
0.00217247
0.00318964
0.00401727
0.00475134
0.0056507
0.00670992
0.00764309
0.00842738
0.00921501
0.00998475
0.01073
0.0115657
0.0125264
0.0135046
0.0145084
0.0155467
0.0165939
0.0176107
0.0187262
0.0199156
0.021095
0.0222985
0.0235875
0.0249448
0.0263055
0.0276989
0.0291079
0.0306088
0.0322104
0.0339277
0.0356149
0.0373406
0.0391297
0.0409798
0.0429439
0.0448848
0.0469079
0.0489482
0.0510993
0.053371
0.0555897
0.0579734
0.0600063
0.0621197
0.00957967
0.000419148
-0.0035886
-0.00241717
-0.000463982
0.00100465
0.00217934
0.00319422
0.00402078
0.00475435
0.00565322
0.00671193
0.0076447
0.00842873
0.00921624
0.00998585
0.0107309
0.0115665
0.0125272
0.0135053
0.014509
0.0155473
0.0165943
0.0176111
0.0187265
0.0199159
0.0210953
0.0222987
0.0235878
0.024945
0.0263057
0.0276991
0.0291081
0.030609
0.0322105
0.0339279
0.0356151
0.0373407
0.0391299
0.04098
0.042944
0.0448849
0.046908
0.0489482
0.0510994
0.0533711
0.0555897
0.0579735
0.0600064
0.0621197
0.00936572
0.000573199
-0.00343883
-0.00235932
-0.000439669
0.00101856
0.00218813
0.00320001
0.00402513
0.00475817
0.00565646
0.00671438
0.00764654
0.00843027
0.00921768
0.00998714
0.0107319
0.0115674
0.012528
0.0135061
0.0145097
0.0155479
0.0165949
0.0176115
0.0187269
0.0199163
0.0210956
0.022299
0.0235881
0.0249453
0.026306
0.0276993
0.0291083
0.0306091
0.0322107
0.0339281
0.0356152
0.0373409
0.03913
0.0409801
0.0429442
0.044885
0.0469081
0.0489483
0.0510995
0.0533711
0.0555898
0.0579736
0.0600066
0.0621196
0.00914673
0.000731524
-0.00327917
-0.0022959
-0.000412564
0.00103451
0.00219849
0.00320701
0.00403044
0.0047629
0.00566048
0.0067173
0.00764861
0.008432
0.00921934
0.00998869
0.0107332
0.0115685
0.0125291
0.013507
0.0145105
0.0155486
0.0165955
0.017612
0.0187273
0.0199167
0.021096
0.0222993
0.0235884
0.0249455
0.0263062
0.0276995
0.0291085
0.0306093
0.0322109
0.0339283
0.0356154
0.037341
0.0391302
0.0409802
0.0429443
0.0448852
0.0469083
0.0489484
0.0510996
0.0533712
0.0555899
0.0579737
0.0600068
0.0621196
0.0089216
0.00089205
-0.00311194
-0.00222869
-0.000383851
0.00105172
0.00220998
0.00321503
0.00403673
0.00476855
0.00566524
0.00672066
0.00765091
0.0084339
0.00922123
0.00999052
0.0107349
0.01157
0.0125304
0.013508
0.0145114
0.0155494
0.0165962
0.0176126
0.0187278
0.0199171
0.0210964
0.0222997
0.0235887
0.0249458
0.0263065
0.0276997
0.0291087
0.0306095
0.0322111
0.0339285
0.0356156
0.0373412
0.0391303
0.0409804
0.0429444
0.0448853
0.0469084
0.0489486
0.0510997
0.0533714
0.05559
0.0579738
0.0600071
0.0621196
0.00869277
0.00105466
-0.0029374
-0.00215828
-0.000354109
0.00106979
0.00222226
0.00322383
0.00404386
0.00477501
0.0056706
0.00672435
0.0076534
0.00843596
0.00922327
0.0099926
0.0107369
0.0115718
0.012532
0.0135092
0.0145125
0.0155503
0.016597
0.0176132
0.0187284
0.0199176
0.0210968
0.0223001
0.023589
0.0249462
0.0263068
0.0277
0.0291089
0.0306097
0.0322113
0.0339287
0.0356158
0.0373414
0.0391305
0.0409806
0.0429446
0.0448855
0.0469085
0.0489487
0.0510998
0.0533715
0.0555902
0.057974
0.0600075
0.0621196
0.00846337
0.001219
-0.00275578
-0.00208483
-0.000323607
0.00108855
0.00223522
0.00323323
0.00405163
0.00478211
0.0056764
0.00672827
0.00765604
0.00843816
0.0092254
0.00999482
0.0107392
0.0115742
0.012534
0.0135107
0.0145137
0.0155514
0.016598
0.017614
0.0187291
0.0199182
0.0210973
0.0223005
0.0235895
0.0249466
0.0263072
0.0277003
0.0291091
0.0306099
0.0322115
0.0339289
0.035616
0.0373415
0.0391307
0.0409807
0.0429448
0.0448856
0.0469087
0.0489488
0.0510999
0.0533716
0.0555903
0.0579742
0.0600079
0.0621196
0.00823599
0.00138403
-0.00256769
-0.0020084
-0.000292471
0.00110794
0.00224884
0.00324315
0.00405988
0.00478967
0.00568251
0.00673235
0.0076588
0.00844047
0.00922757
0.00999705
0.0107418
0.011577
0.0125365
0.0135123
0.0145149
0.0155524
0.016599
0.017615
0.0187299
0.0199189
0.0210979
0.022301
0.0235899
0.024947
0.0263076
0.0277006
0.0291094
0.0306101
0.0322117
0.0339291
0.0356162
0.0373417
0.0391309
0.0409809
0.042945
0.0448858
0.0469088
0.048949
0.0511
0.0533718
0.0555905
0.0579745
0.0600085
0.0621197
0.00801241
0.00154859
-0.00237374
-0.0019289
-0.000260775
0.0011279
0.00226314
0.00325359
0.00406851
0.00479758
0.00568885
0.00673655
0.00766167
0.0084429
0.00922977
0.0099992
0.0107444
0.0115803
0.0125395
0.0135143
0.0145163
0.0155535
0.0165999
0.0176159
0.0187308
0.0199197
0.0210986
0.0223017
0.0235904
0.0249475
0.0263081
0.027701
0.0291097
0.0306103
0.0322119
0.0339293
0.0356164
0.0373419
0.039131
0.0409811
0.0429452
0.044886
0.0469091
0.0489491
0.0511002
0.0533719
0.0555906
0.0579748
0.0600093
0.0621199
0.00779377
0.00171185
-0.00217431
-0.00184613
-0.000228583
0.00114838
0.00227815
0.00326458
0.00407752
0.00480581
0.00569542
0.00674084
0.00766466
0.00844543
0.00923201
0.0100013
0.0107469
0.0115837
0.0125429
0.0135166
0.0145177
0.0155545
0.0166008
0.0176169
0.0187318
0.0199206
0.0210994
0.0223024
0.023591
0.024948
0.0263086
0.0277016
0.0291101
0.0306106
0.0322121
0.0339296
0.0356166
0.0373421
0.0391312
0.0409813
0.0429454
0.0448863
0.0469093
0.0489494
0.0511004
0.0533721
0.0555909
0.0579751
0.0600102
0.0621202
0.00758073
0.00187331
-0.00196955
-0.00175979
-0.000195947
0.00116931
0.0022939
0.00327616
0.00408691
0.00481434
0.00570223
0.00674523
0.00766775
0.00844806
0.00923429
0.0100032
0.0107493
0.0115871
0.0125468
0.0135192
0.0145193
0.0155555
0.0166016
0.0176178
0.0187329
0.0199216
0.0211003
0.0223033
0.0235917
0.0249484
0.0263092
0.0277022
0.0291106
0.0306109
0.0322123
0.0339298
0.0356168
0.0373423
0.0391314
0.0409814