/*--------------------------------*- C++ -*----------------------------------*\
| =========                 |                                                 |
| \\      /  F ield         | OpenFOAM: The Open Source CFD Toolbox           |
|  \\    /   O peration     | Version:  v2012                                 |
|   \\  /    A nd           | Website:  www.openfoam.com                      |
|    \\/     M anipulation  |                                                 |
\*---------------------------------------------------------------------------*/
FoamFile
{
    version     2.0;
    format      ascii;
    class       surfaceScalarField;
    location    "3";
    object      phi;
}
// * * * * * * * * * * * * * * * * * * * * * * * * * * * * * * * * * * * * * //

dimensions      [0 3 -1 0 0 0 0];
oriented        oriented;


internalField   nonuniform List<scalar> 
13830
(
1.00393e-06
-1.32533e-06
9.79446e-07
1.40913e-06
8.8332e-07
1.0854e-07
9.80043e-07
-1.2097e-06
1.0131e-06
-3.15407e-07
9.29788e-07
2.91838e-07
9.52235e-07
8.96753e-07
8.92256e-07
-2.93883e-07
9.42156e-07
-4.08429e-07
9.11114e-07
-6.24965e-07
9.40967e-07
-4.47698e-07
9.40126e-07
-2.52547e-07
9.46108e-07
-1.61462e-07
9.48882e-07
4.87555e-08
9.44483e-07
5.17519e-09
9.4578e-07
1.49049e-07
9.39571e-07
8.95237e-08
9.42812e-07
1.58991e-07
9.37522e-07
1.15168e-07
1.46224e-07
9.29848e-07
1.04439e-06
-1.39719e-06
1.03173e-06
1.42179e-06
9.2978e-07
2.10486e-07
1.01722e-06
-1.29713e-06
1.05012e-06
-3.48316e-07
9.70259e-07
3.71704e-07
9.85889e-07
8.81123e-07
9.33591e-07
-2.41585e-07
9.77333e-07
-4.5217e-07
9.47425e-07
-5.95057e-07
9.77666e-07
-4.77939e-07
9.77528e-07
-2.52408e-07
9.83205e-07
-1.67139e-07
9.88726e-07
4.32348e-08
9.80408e-07
1.34932e-08
9.87762e-07
1.41695e-07
9.72725e-07
1.0456e-07
9.85278e-07
1.46438e-07
9.65816e-07
1.3463e-07
1.32657e-07
9.79383e-07
1.08349e-06
-1.47123e-06
1.09133e-06
1.41396e-06
9.84382e-07
3.17433e-07
1.05339e-06
-1.36614e-06
1.08694e-06
-3.8187e-07
1.01976e-06
4.38892e-07
1.0253e-06
8.75583e-07
9.83805e-07
-2.00095e-07
1.01427e-06
-4.82631e-07
9.9293e-07
-5.73722e-07
1.01424e-06
-4.99249e-07
1.02408e-06
-2.62245e-07
1.01981e-06
-1.62874e-07
1.0353e-06
2.77474e-08
1.01602e-06
3.27765e-08
1.03021e-06
1.27498e-07
1.00829e-06
1.2648e-07
1.02057e-06
1.34164e-07
1.00335e-06
1.51843e-07
1.27905e-07
1.00811e-06
1.12108e-06
-1.54453e-06
1.14981e-06
1.38523e-06
1.04069e-06
4.26551e-07
1.08863e-06
-1.41408e-06
1.12291e-06
-4.1614e-07
1.07453e-06
4.8727e-07
1.07084e-06
8.79272e-07
1.0387e-06
-1.67958e-07
1.05171e-06
-4.95637e-07
1.04125e-06
-5.63269e-07
1.05105e-06
-5.09042e-07
1.07027e-06
-2.81464e-07
1.05932e-06
-1.51922e-07
1.07788e-06
9.18589e-09
1.05668e-06
5.39786e-08
1.06719e-06
1.16985e-07
1.04936e-06
1.44304e-07
1.0542e-06
1.2933e-07
1.0436e-06
1.62436e-07
1.29292e-07
1.04222e-06
1.15658e-06
-1.61356e-06
1.20181e-06
1.33999e-06
1.09588e-06
5.32482e-07
1.12328e-06
-1.44148e-06
1.158e-06
-4.50863e-07
1.13053e-06
5.14741e-07
1.12033e-06
8.89478e-07
1.09397e-06
-1.41602e-07
1.08984e-06
-4.91511e-07
1.08756e-06
-5.60983e-07
1.08826e-06
-5.09746e-07
1.11205e-06
-3.05249e-07
1.10202e-06
-1.419e-07
1.11808e-06
-6.86925e-09
1.10224e-06
6.98139e-08
1.10667e-06
1.12558e-07
1.09463e-06
1.56348e-07
1.09412e-06
1.29836e-07
1.08683e-06
1.69725e-07
1.33378e-07
1.08275e-06
1.19004e-06
-1.67476e-06
1.24488e-06
1.28515e-06
1.14895e-06
6.28418e-07
1.15824e-06
-1.45077e-06
1.19231e-06
-4.84937e-07
1.18402e-06
5.23033e-07
1.17104e-06
9.02457e-07
1.14705e-06
-1.17616e-07
1.12994e-06
-4.74399e-07
1.13101e-06
-5.62046e-07
1.12679e-06
-5.05533e-07
1.15059e-06
-3.29043e-07
1.1463e-06
-1.37615e-07
1.15937e-06
-1.99321e-08
1.15008e-06
7.91035e-08
1.15145e-06
1.11189e-07
1.14291e-06
1.64886e-07
1.14035e-06
1.3239e-07
1.13403e-06
1.76051e-07
1.38456e-07
1.12895e-06
1.22215e-06
-1.72521e-06
1.27933e-06
1.22797e-06
1.19977e-06
7.07978e-07
1.19452e-06
-1.44552e-06
1.22589e-06
-5.16307e-07
1.23255e-06
5.16368e-07
1.22033e-06
9.14677e-07
1.19737e-06
-9.46582e-08
1.17267e-06
-4.49698e-07
1.17348e-06
-5.62854e-07
1.16691e-06
-4.98961e-07
1.18832e-06
-3.50453e-07
1.18967e-06
-1.38972e-07
1.20184e-06
-3.20935e-08
1.19735e-06
8.35886e-08
1.19899e-06
1.09545e-07
1.19253e-06
1.71354e-07
1.18992e-06
1.34999e-07
1.18411e-06
1.8186e-07
1.4365e-07
1.17891e-06
1.25412e-06
-1.76314e-06
1.30767e-06
1.17442e-06
1.2487e-06
7.66943e-07
1.23303e-06
-1.42984e-06
1.25898e-06
-5.42266e-07
1.27536e-06
4.99991e-07
1.26642e-06
9.23617e-07
1.24546e-06
-7.36953e-08
1.21773e-06
-4.21972e-07
1.21702e-06
-5.62137e-07
1.20846e-06
-4.90404e-07
1.22674e-06
-3.68734e-07
1.2311e-06
-1.43328e-07
1.24393e-06
-4.49234e-08
1.24256e-06
8.49488e-08
1.24605e-06
1.06058e-07
1.24147e-06
1.75934e-07
1.23966e-06
1.36808e-07
1.23479e-06
1.8673e-07
1.48423e-07
1.23002e-06
1.28746e-06
-1.78824e-06
1.3336e-06
1.12828e-06
1.2964e-06
8.04144e-07
1.27441e-06
-1.40785e-06
1.29238e-06
-5.60242e-07
1.31334e-06
4.79032e-07
1.30907e-06
9.27886e-07
1.29225e-06
-5.687e-08
1.26459e-06
-3.94317e-07
1.26272e-06
-5.60263e-07
1.25169e-06
-4.79377e-07
1.26673e-06
-3.83772e-07
1.27137e-06
-1.47963e-07
1.2849e-06
-5.84604e-08
1.28558e-06
8.427e-08
1.29095e-06
1.00691e-07
1.2884e-06
1.78488e-07
1.28757e-06
1.37632e-07
1.28411e-06
1.90191e-07
1.5244e-07
1.28009e-06
1.32359e-06
-1.80155e-06
1.36085e-06
1.09101e-06
1.34371e-06
8.21279e-07
1.31894e-06
-1.38307e-06
1.32742e-06
-5.6873e-07
1.34876e-06
4.577e-07
1.34956e-06
9.27081e-07
1.33879e-06
-4.61021e-08
1.31303e-06
-3.68553e-07
1.31085e-06
-5.58083e-07
1.29718e-06
-4.65708e-07
1.30899e-06
-3.95585e-07
1.31208e-06
-1.51053e-07
1.32538e-06
-7.1759e-08
1.32723e-06
8.24199e-08
1.33373e-06
9.41902e-08
1.33313e-06
1.7909e-07
1.33312e-06
1.37644e-07
1.33125e-06
1.92063e-07
1.55545e-07
1.32814e-06
1.36352e-06
-1.80505e-06
1.39223e-06
1.0623e-06
1.39155e-06
8.21964e-07
1.3665e-06
-1.35802e-06
1.3656e-06
-5.67836e-07
1.38453e-06
4.38775e-07
1.39e-06
9.21608e-07
1.38612e-06
-4.22237e-08
1.3631e-06
-3.45525e-07
1.36121e-06
-5.56199e-07
1.34532e-06
-4.4981e-07
1.35404e-06
-4.04308e-07
1.35471e-06
-1.51722e-07
1.36664e-06
-8.36958e-08
1.36884e-06
8.02197e-08
1.37548e-06
8.75521e-08
1.37648e-06
1.78093e-07
1.37694e-06
1.37182e-07
1.37653e-06
1.92473e-07
1.57732e-07
1.37434e-06
1.40768e-06
-1.80108e-06
1.42921e-06
1.04078e-06
1.44066e-06
8.10513e-07
1.41672e-06
-1.33409e-06
1.40802e-06
-5.59128e-07
1.42332e-06
4.23473e-07
1.4325e-06
9.12428e-07
1.43513e-06
-4.48531e-08
1.41495e-06
-3.25351e-07
1.41354e-06
-5.54789e-07
1.3961e-06
-4.3237e-07
1.40205e-06
-4.10254e-07
1.40018e-06
-1.49849e-07
1.40992e-06
-9.34448e-08
1.41181e-06
7.83301e-08
1.41762e-06
8.17426e-08
1.41972e-06
1.75994e-07
1.42027e-06
1.36636e-07
1.42101e-06
1.91732e-07
1.59108e-07
1.41963e-06
1.45594e-06
-1.79177e-06
1.47195e-06
1.02476e-06
1.49152e-06
7.90946e-07
1.46918e-06
-1.31175e-06
1.455e-06
-5.44948e-07
1.46672e-06
4.11748e-07
1.47848e-06
9.0067e-07
1.48642e-06
-5.27886e-08
1.46876e-06
-3.07691e-07
1.46768e-06
-5.5371e-07
1.44929e-06
-4.13982e-07
1.45288e-06
-4.13845e-07
1.4489e-06
-1.45868e-07
1.45607e-06
-1.00614e-07
1.45732e-06
7.70801e-08
1.46154e-06
7.75209e-08
1.46425e-06
1.73286e-07
1.46451e-06
1.36373e-07
1.46602e-06
1.90224e-07
1.59855e-07
1.46527e-06
1.50782e-06
-1.77872e-06
1.51987e-06
1.01272e-06
1.54436e-06
7.66457e-07
1.52355e-06
-1.29094e-06
1.50623e-06
-5.27628e-07
1.51515e-06
4.0283e-07
1.52853e-06
8.87291e-07
1.54031e-06
-6.45656e-08
1.52463e-06
-2.92015e-07
1.5236e-06
-5.52684e-07
1.50461e-06
-3.94992e-07
1.50621e-06
-4.15444e-07
1.50088e-06
-1.40535e-07
1.50545e-06
-1.05184e-07
1.50613e-06
7.64001e-08
1.50837e-06
7.52836e-08
1.51128e-06
1.70371e-07
1.511e-06
1.36658e-07
1.51289e-06
1.88328e-07
1.6019e-07
1.51256e-06
1.5628e-06
-1.76291e-06
1.57219e-06
1.00333e-06
1.59931e-06
7.39338e-07
1.57975e-06
-1.27138e-06
1.56113e-06
-5.09003e-07
1.56819e-06
3.95761e-07
1.58258e-06
8.72909e-07
1.5969e-06
-7.88866e-08
1.58268e-06
-2.77796e-07
1.58144e-06
-5.5144e-07
1.56199e-06
-3.75546e-07
1.56174e-06
-4.15193e-07
1.5559e-06
-1.34699e-07
1.55806e-06
-1.07345e-07
1.55857e-06
7.58913e-08
1.55884e-06
7.50155e-08
1.56173e-06
1.67485e-07
1.56079e-06
1.37598e-07
1.56276e-06
1.86355e-07
1.60328e-07
1.56262e-06
1.62053e-06
-1.7449e-06
1.62839e-06
9.95475e-07
1.65653e-06
7.11198e-07
1.6379e-06
-1.25276e-06
1.6192e-06
-4.90303e-07
1.62523e-06
3.89737e-07
1.64028e-06
8.57853e-07
1.6562e-06
-9.48062e-08
1.643e-06
-2.64591e-07
1.64133e-06
-5.49772e-07
1.62154e-06
-3.55754e-07
1.61931e-06
-4.12969e-07
1.61372e-06
-1.29102e-07
1.61373e-06
-1.07361e-07
1.61463e-06
7.49974e-08
1.61327e-06
7.63703e-08
1.61608e-06
1.64677e-07
1.61457e-06
1.39107e-07
1.61643e-06
1.84497e-07
1.60425e-07
1.61633e-06
1.68091e-06
-1.72506e-06
1.68825e-06
9.88128e-07
1.71621e-06
6.83242e-07
1.69826e-06
-1.23481e-06
1.68026e-06
-4.72303e-07
1.68578e-06
3.84222e-07
1.70131e-06
8.42322e-07
1.71821e-06
-1.11713e-07
1.70566e-06
-2.52035e-07
1.70341e-06
-5.47526e-07
1.68351e-06
-3.3585e-07
1.67899e-06
-4.08447e-07
1.67414e-06
-1.24259e-07
1.67228e-06
-1.05499e-07
1.67406e-06
7.32192e-08
1.67163e-06
7.88008e-08
1.67445e-06
1.61857e-07
1.67262e-06
1.4094e-07
1.6743e-06
1.82809e-07
1.60553e-07
1.67418e-06
1.74404e-06
-1.70378e-06
1.75179e-06
9.80378e-07
1.77856e-06
6.56471e-07
1.76115e-06
-1.21739e-06
1.74437e-06
-4.55525e-07
1.74965e-06
3.78939e-07
1.76544e-06
8.2653e-07
1.78295e-06
-1.29219e-07
1.77075e-06
-2.39837e-07
1.76776e-06
-5.44535e-07
1.74817e-06
-3.16263e-07
1.74097e-06
-4.01244e-07
1.73715e-06
-1.20436e-07
1.73362e-06
-1.01968e-07
1.73659e-06
7.0248e-08
1.73368e-06
8.17076e-08
1.73666e-06
1.58882e-07
1.73484e-06
1.42754e-07
1.73642e-06
1.81231e-07
1.60696e-07
1.73628e-06
1.81012e-06
-1.68157e-06
1.81899e-06
9.7151e-07
1.84373e-06
6.31736e-07
1.82679e-06
-1.20045e-06
1.81164e-06
-4.40375e-07
1.8168e-06
3.73784e-07
1.83256e-06
8.10768e-07
1.8504e-06
-1.47057e-07
1.83837e-06
-2.27807e-07
1.83439e-06
-5.40559e-07
1.81572e-06
-2.9759e-07
1.80555e-06
-3.91082e-07
1.80285e-06
-1.17728e-07
1.79777e-06
-9.68879e-08
1.80198e-06
6.60314e-08
1.79912e-06
8.45652e-08
1.80236e-06
1.55646e-07
1.80092e-06
1.44198e-07
1.80252e-06
1.79626e-07
1.60763e-07
1.80245e-06
1.87926e-06
-1.65893e-06
1.88967e-06
9.61102e-07
1.91174e-06
6.09669e-07
1.89533e-06
-1.18405e-06
1.88212e-06
-4.27168e-07
1.88717e-06
3.68741e-07
1.90257e-06
7.95365e-07
1.92051e-06
-1.64995e-07
1.90861e-06
-2.15906e-07
1.90331e-06
-5.35261e-07
1.8862e-06
-2.8048e-07
1.87305e-06
-3.77934e-07
1.87142e-06
-1.16101e-07
1.86487e-06
-9.03354e-08
1.87014e-06
6.07631e-08
1.8677e-06
8.70051e-08
1.87122e-06
1.5213e-07
1.87042e-06
1.44994e-07
1.87221e-06
1.77839e-07
1.60628e-07
1.87234e-06
1.95144e-06
-1.63627e-06
1.9635e-06
9.49047e-07
1.98257e-06
5.90599e-07
1.96678e-06
-1.16827e-06
1.9557e-06
-4.16081e-07
1.96065e-06
3.63789e-07
1.97542e-06
7.80597e-07
1.9932e-06
-1.82783e-07
1.98159e-06
-2.04292e-07
1.97458e-06
-5.28248e-07
1.95959e-06
-2.65498e-07
1.94368e-06
-3.62018e-07
1.94304e-06
-1.15465e-07
1.93512e-06
-8.24146e-08
1.94107e-06
5.48161e-08
1.93924e-06
8.88371e-08
1.94296e-06
1.48411e-07
1.94295e-06
1.44997e-07
1.94505e-06
1.75741e-07
1.60162e-07
1.94552e-06
2.02656e-06
-1.61378e-06
2.04014e-06
9.35473e-07
2.05621e-06
5.7453e-07
2.04111e-06
-1.15317e-06
2.03213e-06
-4.07108e-07
2.03709e-06
3.58835e-07
2.0511e-06
7.66587e-07
2.06841e-06
-2.00091e-07
2.0574e-06
-1.93287e-07
2.04831e-06
-5.19156e-07
2.03583e-06
-2.53018e-07
2.01756e-06
-3.43744e-07
2.0178e-06
-1.15706e-07
2.00869e-06
-7.33065e-08
2.01485e-06
4.86531e-08
2.01367e-06
9.00175e-08
2.01744e-06
1.44638e-07
2.01822e-06
1.44218e-07
2.0207e-06
1.7326e-07
1.59273e-07
2.02159e-06
2.10451e-06
-1.59146e-06
2.1194e-06
9.20589e-07
2.13273e-06
5.61201e-07
2.11828e-06
-1.13872e-06
2.11122e-06
-4.00043e-07
2.11638e-06
3.53672e-07
2.12972e-06
7.53249e-07
2.1461e-06
-2.16469e-07
2.13611e-06
-1.83302e-07
2.1247e-06
-5.07747e-07
2.11488e-06
-2.43191e-07
2.09476e-06
-3.23624e-07
2.09572e-06
-1.16675e-07
2.08571e-06
-6.32928e-08
2.09162e-06
4.27479e-08
2.09104e-06
9.05938e-08
2.09468e-06
1.40996e-07
2.09609e-06
1.42811e-07
2.09895e-06
1.70396e-07
1.57928e-07
2.1003e-06
2.18525e-06
-1.56912e-06
2.20129e-06
9.04547e-07
2.2123e-06
5.50195e-07
2.19834e-06
-1.12477e-06
2.19281e-06
-3.94515e-07
2.1985e-06
3.47983e-07
2.21147e-06
7.40279e-07
2.22634e-06
-2.31333e-07
2.21777e-06
-1.7473e-07
2.20398e-06
-4.93958e-07
2.19678e-06
-2.35999e-07
2.17534e-06
-3.02183e-07
2.17684e-06
-1.18173e-07
2.16629e-06
-5.27413e-08
2.1715e-06
3.75358e-08
2.17143e-06
9.06654e-08
2.17478e-06
1.37646e-07
2.17655e-06
1.41038e-07
2.17975e-06
1.67204e-07
1.56154e-07
2.18152e-06
2.26881e-06
-1.54654e-06
2.286e-06
8.87354e-07
2.29515e-06
5.41041e-07
2.28139e-06
-1.11101e-06
2.27693e-06
-3.90048e-07
2.2835e-06
3.41406e-07
2.29658e-06
7.27199e-07
2.30926e-06
-2.44005e-07
2.30242e-06
-1.67889e-07
2.28634e-06
-4.7788e-07
2.28165e-06
-2.31305e-07
2.2594e-06
-2.79936e-07
2.26117e-06
-1.19943e-07
2.25049e-06
-4.20657e-08
2.25466e-06
3.33715e-08
2.25494e-06
9.03784e-08
2.2579e-06
1.34686e-07
2.25974e-06
1.392e-07
2.26316e-06
1.63781e-07
1.54023e-07
2.26529e-06
2.3553e-06
-1.52345e-06
2.37378e-06
8.68879e-07
2.38155e-06
5.33271e-07
2.3676e-06
-1.09706e-06
2.36367e-06
-3.86126e-07
2.37147e-06
3.33609e-07
2.38524e-06
7.13432e-07
2.39504e-06
-2.53803e-07
2.39013e-06
-1.62978e-07
2.37196e-06
-4.59716e-07
2.36956e-06
-2.28901e-07
2.34698e-06
-2.57362e-07
2.34876e-06
-1.21721e-07
2.33834e-06
-3.16426e-08
2.34123e-06
3.04767e-08
2.34168e-06
8.99306e-08
2.34415e-06
1.32212e-07
2.34586e-06
1.37497e-07
2.34939e-06
1.60249e-07
1.51642e-07
2.35177e-06
2.44487e-06
-1.49964e-06
2.46485e-06
8.48898e-07
2.4717e-06
5.26425e-07
2.45714e-06
-1.0825e-06
2.45326e-06
-3.82252e-07
2.46249e-06
3.24382e-07
2.47754e-06
6.9838e-07
2.48388e-06
-2.60141e-07
2.48098e-06
-1.60081e-07
2.46099e-06
-4.39727e-07
2.4606e-06
-2.28504e-07
2.43816e-06
-2.34926e-07
2.43969e-06
-1.23247e-07
2.42982e-06
-2.17735e-08
2.43138e-06
2.89155e-08
2.4317e-06
8.96064e-08
2.43325e-06
1.30665e-07
2.43519e-06
1.35556e-07
2.43868e-06
1.56755e-07
1.49146e-07
2.44118e-06
2.53766e-06
-1.4749e-06
2.55939e-06
8.27165e-07
2.56576e-06
5.20053e-07
2.5502e-06
-1.06694e-06
2.54595e-06
-3.77996e-07
2.55662e-06
3.13711e-07
2.57351e-06
6.81488e-07
2.57601e-06
-2.62638e-07
2.57509e-06
-1.59162e-07
2.55356e-06
-4.18198e-07
2.55482e-06
-2.29765e-07
2.53298e-06
-2.13091e-07
2.53397e-06
-1.24234e-07
2.52491e-06
-1.27118e-08
2.52519e-06
2.86369e-08
2.52507e-06
8.97223e-08
2.52964e-06
1.261e-07
2.52963e-06
1.35565e-07
2.53133e-06
1.55054e-07
1.46697e-07
2.53378e-06
2.63383e-06
-1.44905e-06
2.65752e-06
8.03479e-07
2.66385e-06
5.13722e-07
2.64697e-06
-1.05006e-06
2.64202e-06
-3.73047e-07
2.65393e-06
3.01801e-07
2.67309e-06
6.62328e-07
2.67165e-06
-2.61197e-07
2.67256e-06
-1.60074e-07
2.6498e-06
-3.95433e-07
2.65224e-06
-2.32212e-07
2.63155e-06
-1.92394e-07
2.63163e-06
-1.24313e-07
2.62368e-06
-4.76312e-09
2.62286e-06
2.9456e-08
2.62118e-06
9.13976e-08
2.62176e-06
1.25518e-07
2.62314e-06
1.3419e-07
2.62764e-06
1.5055e-07
1.44462e-07
2.62988e-06
2.73355e-06
-1.42195e-06
2.75931e-06
7.77722e-07
2.76599e-06
5.07034e-07
2.74759e-06
-1.03166e-06
2.74178e-06
-3.67231e-07
2.75456e-06
2.89018e-07
2.77621e-06
6.40679e-07
2.77105e-06
-2.56034e-07
2.77351e-06
-1.62541e-07
2.7499e-06
-3.71819e-07
2.75288e-06
-2.3519e-07
2.73407e-06
-1.73584e-07
2.73254e-06
-1.22789e-07
2.72648e-06
1.30487e-09
2.72385e-06
3.2086e-08
2.72151e-06
9.37296e-08
2.72083e-06
1.26202e-07
2.72113e-06
1.33888e-07
2.72794e-06
1.43741e-07
1.42692e-07
2.72971e-06
2.83699e-06
-1.39348e-06
2.86483e-06
7.49876e-07
2.87221e-06
4.99661e-07
2.85219e-06
-1.01164e-06
2.84551e-06
-3.60557e-07
2.85867e-06
2.75866e-07
2.88287e-06
6.16479e-07
2.87439e-06
-2.47553e-07
2.8781e-06
-1.66254e-07
2.85401e-06
-3.47729e-07
2.85684e-06
-2.38023e-07
2.84067e-06
-1.57407e-07
2.83685e-06
-1.18972e-07
2.83359e-06
4.56286e-09
2.82949e-06
3.61917e-08
2.83349e-06
8.97245e-08
2.83953e-06
1.20158e-07
2.84028e-06
1.33142e-07
2.83248e-06
1.51542e-07
1.41673e-07
2.8335e-06
2.94435e-06
-1.36358e-06
2.97419e-06
7.20032e-07
2.98249e-06
4.91367e-07
2.96084e-06
-9.89989e-07
2.95349e-06
-3.53208e-07
2.9665e-06
2.62856e-07
2.9931e-06
5.89871e-07
2.98184e-06
-2.36289e-07
2.9865e-06
-1.70914e-07
2.96227e-06
-3.23497e-07
2.96441e-06
-2.40162e-07
2.95117e-06
-1.44174e-07
2.94508e-06
-1.12875e-07
2.94472e-06
4.92242e-09
2.94153e-06
3.93794e-08
2.94104e-06
9.02141e-08
2.93372e-06
1.27476e-07
2.93189e-06
1.34969e-07
2.94084e-06
1.426e-07
1.40879e-07
2.94163e-06
3.05584e-06
-1.33227e-06
3.08752e-06
6.88356e-07
3.09685e-06
4.82035e-07
3.07362e-06
-9.66759e-07
3.06591e-06
-3.45495e-07
3.07835e-06
2.50415e-07
3.10704e-06
5.61185e-07
3.09364e-06
-2.22891e-07
3.09888e-06
-1.76161e-07
3.07478e-06
-2.99391e-07
3.07598e-06
-2.41362e-07
3.06532e-06
-1.33517e-07
3.05808e-06
-1.05638e-07
3.05839e-06
4.61947e-09
3.05482e-06
4.29427e-08
3.0611e-06
8.39401e-08
3.06547e-06
1.23104e-07
3.06545e-06
1.34986e-07
3.05358e-06
1.54475e-07
1.40338e-07
3.05412e-06
3.1717e-06
-1.2996e-06
3.20495e-06
6.551e-07
3.21538e-06
4.71608e-07
3.19059e-06
-9.4197e-07
3.18298e-06
-3.37886e-07
3.19448e-06
2.38916e-07
3.22493e-06
5.30735e-07
3.20982e-06
-2.07784e-07
3.21558e-06
-1.81914e-07
3.19154e-06
-2.75354e-07
3.19225e-06
-2.4207e-07
3.1819e-06
-1.23166e-07
3.17696e-06
-1.00706e-07
3.17498e-06
6.60259e-09
3.1733e-06
4.46194e-08
3.16254e-06
9.47007e-08
3.16043e-06
1.25213e-07
3.16107e-06
1.34352e-07
3.16989e-06
1.4565e-07
1.38869e-07
3.17136e-06
3.29212e-06
-1.26571e-06
3.32668e-06
6.20538e-07
3.33813e-06
4.60152e-07
3.31187e-06
-9.15708e-07
3.30476e-06
-3.3077e-07
3.31519e-06
2.28481e-07
3.34689e-06
4.9904e-07
3.33082e-06
-1.91718e-07
3.33646e-06
-1.8755e-07
3.31332e-06
-2.52222e-07
3.31243e-06
-2.41177e-07
3.30412e-06
-1.14855e-07
3.29846e-06
-9.5046e-08
3.28999e-06
1.50691e-08
3.28479e-06
4.98211e-08
3.28239e-06
9.71072e-08
3.28091e-06
1.26688e-07
3.2813e-06
1.33961e-07
3.29141e-06
1.35537e-07
1.37285e-07
3.293e-06
3.41733e-06
-1.23075e-06
3.45289e-06
5.84973e-07
3.46529e-06
4.47756e-07
3.43761e-06
-8.88035e-07
3.43127e-06
-3.24423e-07
3.44079e-06
2.18962e-07
3.47303e-06
4.66797e-07
3.45697e-06
-1.7566e-07
3.46157e-06
-1.92147e-07
3.44071e-06
-2.31363e-07
3.43635e-06
-2.36823e-07
3.43242e-06
-1.10921e-07
3.42241e-06
-8.50327e-08
3.42817e-06
9.30384e-09
3.42791e-06
5.00861e-08
3.43289e-06
9.21236e-08
3.43641e-06
1.23174e-07
3.43626e-06
1.34112e-07
3.41853e-06
1.53262e-07
1.36853e-07
3.41896e-06
3.54754e-06
-1.19494e-06
3.5838e-06
5.48714e-07
3.5971e-06
4.34449e-07
3.56786e-06
-8.58793e-07
3.56278e-06
-3.19345e-07
3.5712e-06
2.10551e-07
3.60404e-06
4.33953e-07
3.58763e-06
-1.59245e-07
3.59209e-06
-1.96607e-07
3.57165e-06
-2.10929e-07
3.56752e-06
-2.32695e-07
3.56236e-06
-1.0576e-07
3.5566e-06
-7.92696e-08
3.55189e-06
1.40088e-08
3.543e-06
5.89833e-08
3.53714e-06
9.79787e-08
3.53568e-06
1.24633e-07
3.53687e-06
1.32927e-07
3.54827e-06
1.41864e-07
1.34769e-07
3.55035e-06
3.68292e-06
-1.15848e-06
3.71963e-06
5.12005e-07
3.73374e-06
4.20334e-07
3.70301e-06
-8.28061e-07
3.69917e-06
-3.15507e-07
3.70691e-06
2.02814e-07
3.73956e-06
4.01302e-07
3.72381e-06
-1.43493e-07
3.72719e-06
-1.9999e-07
3.70847e-06
-1.92204e-07
3.70279e-06
-2.27015e-07
3.69744e-06
-1.00416e-07
3.69314e-06
-7.49707e-08
3.67982e-06
2.73372e-08
3.67667e-06
6.21267e-08
3.67205e-06
1.02603e-07
3.6705e-06
1.26179e-07
3.67127e-06
1.32158e-07
3.68425e-06
1.28887e-07
1.32813e-07
3.6862e-06
3.82365e-06
-1.12154e-06
3.86059e-06
4.7507e-07
3.87543e-06
4.05489e-07
3.84339e-06
-7.96017e-07
3.84048e-06
-3.12595e-07
3.84823e-06
1.95061e-07
3.87951e-06
3.70019e-07
3.86613e-06
-1.30108e-07
3.86647e-06
-2.00335e-07
3.85182e-06
-1.77553e-07
3.83999e-06
-2.1518e-07
3.84205e-06
-1.02482e-07
3.82568e-06
-5.85984e-08
3.83944e-06
1.3575e-08
3.84195e-06
5.96183e-08
3.84737e-06
9.71819e-08
3.85122e-06
1.22329e-07
3.84951e-06
1.33866e-07
3.82707e-06
1.51333e-07
1.33347e-07
3.82653e-06
3.96993e-06
-1.08432e-06
4.00682e-06
4.38183e-07
4.02259e-06
3.89714e-07
3.98893e-06
-7.62352e-07
3.98737e-06
-3.11034e-07
3.99459e-06
1.87833e-07
4.02564e-06
3.38977e-07
4.01179e-06
-1.16261e-07
4.01397e-06
-2.02518e-07
3.99563e-06
-1.59208e-07
3.9892e-06
-2.0875e-07
3.98297e-06
-9.62576e-08
3.98325e-06
-5.88746e-08
3.96509e-06
3.17302e-08
3.96125e-06
6.34626e-08
3.95732e-06
1.0111e-07
3.95636e-06
1.23288e-07
3.95829e-06
1.31937e-07
3.971e-06
1.38627e-07
1.31026e-07
3.97332e-06
4.12189e-06
-1.04692e-06
4.15858e-06
4.01487e-07
4.17519e-06
3.73104e-07
4.14034e-06
-7.27501e-07
4.13942e-06
-3.10113e-07
4.14715e-06
1.80105e-07
4.17611e-06
3.10012e-07
4.16465e-06
-1.04795e-07
4.16503e-06
-2.02898e-07
4.14772e-06
-1.41895e-07
4.14055e-06
-2.01581e-07
4.13041e-06
-8.61184e-08
4.12259e-06
-5.10603e-08
4.11385e-06
4.04734e-08
4.11215e-06
6.51663e-08
4.10889e-06
1.04362e-07
4.1074e-06
1.24779e-07
4.10884e-06
1.30503e-07
4.12302e-06
1.24441e-07
1.29202e-07
4.12485e-06
4.27973e-06
-1.00946e-06
4.31608e-06
3.6513e-07
4.33345e-06
3.55739e-07
4.29793e-06
-6.9198e-07
4.29678e-06
-3.08971e-07
4.30641e-06
1.70483e-07
4.32997e-06
2.86451e-07
4.32577e-06
-1.00594e-07
4.31825e-06
-1.95386e-07
4.31141e-06
-1.35054e-07
4.28832e-06
-1.7849e-07
4.29536e-06
-9.31594e-08
4.28113e-06
-3.68265e-08
4.29744e-06
2.41655e-08
4.30276e-06
5.98397e-08
4.31178e-06
9.53439e-08
4.31553e-06
1.21032e-07
4.31113e-06
1.34903e-07
4.28395e-06
1.51622e-07
1.32171e-07
4.28098e-06
4.4437e-06
-9.72069e-07
4.47941e-06
3.29419e-07
4.4979e-06
3.37245e-07
4.46131e-06
-6.55392e-07
4.46072e-06
-3.08377e-07
4.4704e-06
1.60798e-07
4.49351e-06
2.63349e-07
4.48737e-06
-9.44556e-08
4.48286e-06
-1.90883e-07
4.47137e-06
-1.23557e-07
4.45226e-06
-1.59386e-07
4.44914e-06
-9.00323e-08
4.44209e-06
-2.97818e-08
4.43421e-06
3.20462e-08
4.43063e-06
6.34241e-08
4.43111e-06
9.48585e-08
4.4278e-06
1.24343e-07
4.42933e-06
1.33378e-07
4.44391e-06
1.37036e-07
1.30918e-07
4.44517e-06
4.61393e-06
-9.34788e-07
4.64899e-06
2.94356e-07
4.66826e-06
3.17972e-07
4.63149e-06
-6.1862e-07
4.63047e-06
-3.07353e-07
4.641e-06
1.50261e-07
4.66303e-06
2.41324e-07
4.65449e-06
-8.59133e-08
4.6542e-06
-1.90597e-07
4.63823e-06
-1.07586e-07
4.62371e-06
-1.44873e-07
4.61573e-06
-8.20435e-08
4.61161e-06
-2.56703e-08
4.60348e-06
4.01825e-08
4.60071e-06
6.61969e-08
4.59979e-06
9.57756e-08
4.60216e-06
1.21969e-07
4.60539e-06
1.30149e-07
4.61178e-06
1.3065e-07
1.27584e-07
4.61511e-06
4.79069e-06
-8.97688e-07
4.82492e-06
2.60122e-07
4.84492e-06
2.97979e-07
4.80859e-06
-5.82299e-07
4.80616e-06
-3.04923e-07
4.81886e-06
1.37562e-07
4.83754e-06
2.22646e-07
4.82995e-06
-7.83213e-08
4.82789e-06
-1.88535e-07
4.8153e-06
-9.49994e-08
4.79786e-06
-1.2743e-07
4.7907e-06
-7.48833e-08
4.78641e-06
-2.13835e-08
4.78021e-06
4.63871e-08
4.77658e-06
6.98235e-08
4.77707e-06
9.52842e-08
4.78161e-06
1.17432e-07
4.78768e-06
1.24077e-07
4.78748e-06
1.30845e-07
1.23945e-07
4.79112e-06
4.97424e-06
-8.60855e-07
5.00744e-06
2.26919e-07
5.02819e-06
2.77234e-07
4.99257e-06
-5.46678e-07
4.98858e-06
-3.00933e-07
5.00312e-06
1.23013e-07
5.01967e-06
2.06106e-07
5.0116e-06
-7.02562e-08
5.00815e-06
-1.85087e-07
4.9984e-06
-8.52447e-08
4.97975e-06
-1.08781e-07
4.97261e-06
-6.77458e-08
4.9682e-06
-1.69693e-08
4.96384e-06
5.07407e-08
4.9598e-06
7.38682e-08
4.9605e-06
9.45812e-08
4.96271e-06
1.15222e-07
4.96317e-06
1.23617e-07
4.97012e-06
1.23896e-07
1.20215e-07
4.97385e-06
5.1648e-06
-8.2434e-07
5.197e-06
1.9472e-07
5.21803e-06
2.56199e-07
5.18402e-06
-5.12668e-07
5.17746e-06
-2.9437e-07
5.19429e-06
1.0618e-07
5.20882e-06
1.91574e-07
5.20036e-06
-6.17956e-08
5.19501e-06
-1.79733e-07
5.18793e-06
-7.81612e-08
5.16909e-06
-8.99461e-08
5.16168e-06
-6.03327e-08
5.15698e-06
-1.22699e-08
5.15441e-06
5.33101e-08
5.14999e-06
7.82819e-08
5.15097e-06
9.36093e-08
5.15506e-06
1.11129e-07
5.16134e-06
1.1734e-07
5.16033e-06
1.24899e-07
1.17014e-07
5.16354e-06
5.36267e-06
-7.88229e-07
5.39374e-06
1.63646e-07
5.41494e-06
2.35002e-07
5.38298e-06
-4.80711e-07
5.3735e-06
-2.84894e-07
5.39167e-06
8.80148e-08
5.40557e-06
1.77672e-07
5.39607e-06
-5.22947e-08
5.38922e-06
-1.72885e-07
5.38423e-06
-7.31661e-08
5.36622e-06
-7.19391e-08
5.35779e-06
-5.18993e-08
5.35332e-06
-7.80252e-09
5.35188e-06
5.47548e-08
5.34808e-06
8.20811e-08
5.34795e-06
9.37333e-08
5.34999e-06
1.09095e-07
5.35042e-06
1.16906e-07
5.35755e-06
1.1777e-07
1.1403e-07
5.36053e-06
5.5681e-06
-7.52591e-07
5.59805e-06
1.33697e-07
5.61911e-06
2.13939e-07
5.58986e-06
-4.51458e-07
5.57735e-06
-2.7239e-07
5.5958e-06
6.95718e-08
5.60967e-06
1.63797e-07
5.59954e-06
-4.21626e-08
5.59105e-06
-1.64399e-07
5.58783e-06
-6.99441e-08
5.57102e-06
-5.51293e-08
5.56161e-06
-4.24826e-08
5.55734e-06
-3.53526e-09
5.55659e-06
5.55074e-08
5.55361e-06
8.50534e-08
5.55271e-06
9.46331e-08
5.55524e-06
1.06568e-07
5.55785e-06
1.14299e-07
5.56232e-06
1.13298e-07
1.11236e-07
5.56511e-06
5.78138e-06
-7.1749e-07
5.81022e-06
1.04859e-07
5.83088e-06
1.93275e-07
5.80478e-06
-4.2536e-07
5.78971e-06
-2.57322e-07
5.80702e-06
5.22702e-08
5.82117e-06
1.49644e-07
5.81116e-06
-3.21566e-08
5.80093e-06
-1.54167e-07
5.79899e-06
-6.80013e-08
5.78373e-06
-3.98699e-08
5.77353e-06
-3.22883e-08
5.76919e-06
8.10159e-10
5.76878e-06
5.59206e-08
5.76682e-06
8.70092e-08
5.7657e-06
9.5753e-08
5.76885e-06
1.03421e-07
5.7745e-06
1.08648e-07
5.77491e-06
1.12889e-07
1.0845e-07
5.77769e-06
6.00281e-06
-6.82997e-07
6.03047e-06
7.71998e-08
6.05067e-06
1.73067e-07
6.02733e-06
-4.02016e-07
6.01111e-06
-2.41105e-07
6.02536e-06
3.80262e-08
6.04059e-06
1.34412e-07
6.0309e-06
-2.2465e-08
6.01932e-06
-1.42593e-07
6.01782e-06
-6.64995e-08
6.00463e-06
-2.66761e-08
5.99372e-06
-2.13795e-08
5.98924e-06
5.28527e-09
5.9889e-06
5.62585e-08
5.98824e-06
8.76734e-08
5.98661e-06
9.73874e-08
5.98811e-06
1.01916e-07
5.98824e-06
1.08515e-07
5.99538e-06
1.05751e-07
1.05357e-07
5.99847e-06
6.23268e-06
-6.49174e-07
6.25918e-06
5.06973e-08
6.27873e-06
1.53516e-07
6.25781e-06
-3.81094e-07
6.24124e-06
-2.24534e-07
6.25251e-06
2.67526e-08
6.26802e-06
1.18909e-07
6.25917e-06
-1.36205e-08
6.24637e-06
-1.29789e-07
6.24483e-06
-6.49604e-08
6.23391e-06
-1.57586e-08
6.22257e-06
-1.00379e-08
6.21783e-06
1.00228e-08
6.2174e-06
5.66923e-08
6.21767e-06
8.73991e-08
6.21641e-06
9.86461e-08
6.21874e-06
9.95869e-08
6.22398e-06
1.03278e-07
6.22432e-06
1.05408e-07
1.02072e-07
6.22761e-06
6.47131e-06
-6.16077e-07
6.49656e-06
2.54433e-08
6.51548e-06
1.34596e-07
6.49658e-06
-3.62193e-07
6.48047e-06
-2.08429e-07
6.48886e-06
1.83627e-08
6.50406e-06
1.03708e-07
6.4962e-06
-5.75311e-09
6.48248e-06
-1.16072e-07
6.48043e-06
-6.29139e-08
6.47177e-06
-7.0922e-09
6.4603e-06
1.4285e-09
6.45527e-06
1.50535e-08
6.45464e-06
5.73248e-08
6.45572e-06
8.63149e-08
6.45484e-06
9.9525e-08
6.45522e-06
9.9206e-08
6.45543e-06
1.03072e-07
6.46189e-06
9.89453e-08
9.8516e-08
6.46545e-06
6.71902e-06
-5.83761e-07
6.74298e-06
1.48754e-09
6.76123e-06
1.16343e-07
6.7441e-06
-3.45059e-07
6.72903e-06
-1.93365e-07
6.73492e-06
1.24802e-08
6.7492e-06
8.94269e-08
6.7423e-06
1.1413e-09
6.7279e-06
-1.0167e-07
6.72497e-06
-5.99835e-08
6.7184e-06
-5.25204e-10
6.70731e-06
1.25222e-08
6.70193e-06
2.0431e-08
6.70109e-06
5.8166e-08
6.70249e-06
8.49154e-08
6.7023e-06
9.97193e-08
6.70363e-06
9.78736e-08
6.70811e-06
9.85945e-08
6.70864e-06
9.84081e-08
9.47944e-08
6.71237e-06
6.97616e-06
-5.52268e-07
6.99872e-06
-2.10753e-08
7.01638e-06
9.86811e-08
7.00082e-06
-3.29494e-07
6.98723e-06
-1.79773e-07
6.99091e-06
8.79475e-09
7.0038e-06
7.65344e-08
6.99775e-06
7.19343e-09
6.98301e-06
-8.69319e-08
6.979e-06
-5.597e-08
6.97425e-06
4.22638e-09
6.96389e-06
2.28788e-08
6.95813e-06
2.61973e-08
6.95704e-06
5.92549e-08
6.95852e-06
8.34282e-08
6.95912e-06
9.91249e-08
6.95931e-06
9.76846e-08
6.95976e-06
9.81382e-08
6.96481e-06
9.33609e-08
9.10006e-08
6.9686e-06
7.24305e-06
-5.21631e-07
7.26421e-06
-4.22309e-08
7.28125e-06
8.1639e-08
7.26713e-06
-3.1537e-07
7.2556e-06
-1.68248e-07
7.25723e-06
7.16965e-09
7.26835e-06
6.54102e-08
7.26293e-06
1.26179e-08
7.24813e-06
-7.21334e-08
7.24285e-06
-5.06938e-08
7.23956e-06
7.51755e-09
7.23027e-06
3.21678e-08
7.22417e-06
3.22994e-08
7.22294e-06
6.04814e-08
7.22421e-06
8.21624e-08
7.22558e-06
9.77562e-08
7.22622e-06
9.70386e-08
7.2297e-06
9.46571e-08
7.23083e-06
9.22309e-08
8.73461e-08
7.23449e-06
7.52007e-06
-4.91866e-07
7.53985e-06
-6.20151e-08
7.55616e-06
6.53295e-08
7.54348e-06
-3.02689e-07
7.53371e-06
-1.58479e-07
7.53438e-06
6.5022e-09
7.54316e-06
5.66238e-08
7.53811e-06
1.76729e-08
7.52354e-06
-5.75645e-08
7.51709e-06
-4.42442e-08
7.5148e-06
9.80668e-09
7.50685e-06
4.01212e-08
7.50045e-06
3.87004e-08
7.49916e-06
6.17722e-08
7.50004e-06
8.12815e-08
7.50205e-06
9.57469e-08
7.50255e-06
9.65371e-08
7.50391e-06
9.32963e-08
7.50711e-06
8.90285e-08
8.40516e-08
7.51041e-06
7.80757e-06
-4.62977e-07
7.82606e-06
-8.05128e-08
7.84148e-06
4.9913e-08
7.83011e-06
-2.91322e-07
7.82197e-06
-1.50331e-07
7.82267e-06
5.79508e-09
7.82861e-06
5.06914e-08
7.82365e-06
2.26324e-08
7.80968e-06
-4.36026e-08
7.80212e-06
-3.6682e-08
7.80033e-06
1.15992e-08
7.79389e-06
4.6561e-08
7.78731e-06
4.52787e-08
7.78599e-06
6.30947e-08
7.78648e-06
8.07856e-08
7.78885e-06
9.33765e-08
7.78976e-06
9.56352e-08
7.79198e-06
9.10776e-08
7.7939e-06
8.71008e-08
8.11612e-08
7.79679e-06
8.10595e-06
-4.34962e-07
8.12324e-06
-9.78082e-08
8.13754e-06
3.5616e-08
8.12734e-06
-2.81122e-07
8.12117e-06
-1.44166e-07
8.12213e-06
4.83902e-09
8.12455e-06
4.82664e-08
8.11993e-06
2.72535e-08
8.10684e-06
-3.0505e-08
8.09839e-06
-2.82393e-08
8.09661e-06
1.33776e-08
8.09177e-06
5.14035e-08
8.08519e-06
5.18652e-08
8.08382e-06
6.44632e-08
8.08404e-06
8.05587e-08
8.0865e-06
9.09214e-08
8.08779e-06
9.43431e-08
8.08984e-06
8.90238e-08
8.09164e-06
8.53103e-08
7.86681e-08
8.09413e-06
8.4156e-06
-4.07805e-07
8.43186e-06
-1.14062e-07
8.44455e-06
2.29234e-08
8.4354e-06
-2.71975e-07
8.43176e-06
-1.40522e-07
8.42888e-06
7.72231e-09
8.43103e-06
4.61101e-08
8.42744e-06
3.08475e-08
8.41538e-06
-1.8445e-08
8.40635e-06
-1.92139e-08
8.40417e-06
1.55638e-08
8.40086e-06
5.47099e-08
8.39449e-06
5.82345e-08
8.393e-06
6.59492e-08
8.3931e-06
8.04681e-08
8.39539e-06
8.86243e-08
8.397e-06
9.27369e-08
8.39889e-06
8.71356e-08
8.4007e-06
8.34939e-08
7.65355e-08
8.40284e-06
8.73696e-06
-3.81482e-07
8.75242e-06