/*--------------------------------*- C++ -*----------------------------------*\
| =========                 |                                                 |
| \\      /  F ield         | OpenFOAM: The Open Source CFD Toolbox           |
|  \\    /   O peration     | Version:  v2012                                 |
|   \\  /    A nd           | Website:  www.openfoam.com                      |
|    \\/     M anipulation  |                                                 |
\*---------------------------------------------------------------------------*/
FoamFile
{
    version     2.0;
    format      ascii;
    class       volVectorField;
    location    "3";
    object      U;
}
// * * * * * * * * * * * * * * * * * * * * * * * * * * * * * * * * * * * * * //

dimensions      [0 1 -1 0 0 0 0];


internalField   nonuniform List<vector> 
7000
(
(0.76711 -0.0101988 0)
(1.34498 0.0126614 0)
(0.781474 0.000333679 0)
(1.08052 -0.0130832 0)
(1.01857 -0.00374901 0)
(1.13831 0.00343311 0)
(0.858841 0.0150491 0)
(1.1577 -0.00628771 0)
(0.767814 -0.00783734 0)
(1.22136 -0.0153628 0)
(0.743897 -0.0114694 0)
(1.24405 -0.00761269 0)
(0.781072 -0.0054266 0)
(1.22174 0.00206434 0)
(0.817935 -2.22502e-05 0)
(1.18611 0.00760515 0)
(0.842418 0.00445029 0)
(1.154 0.0105017 0)
(0.862436 0.00756403 0)
(1.12847 0.0120058 0)
(0.779181 -0.0108356 0)
(1.33673 0.0126666 0)
(0.818403 0.00164925 0)
(1.0736 -0.0143996 0)
(1.02302 -0.00432035 0)
(1.13221 0.00472539 0)
(0.876246 0.0147112 0)
(1.1366 -0.0050106 0)
(0.801612 -0.00904722 0)
(1.18934 -0.0144801 0)
(0.777378 -0.0124012 0)
(1.21301 -0.00760193 0)
(0.816073 -0.00566071 0)
(1.18785 0.00185249 0)
(0.86118 0.000305832 0)
(1.14155 0.00724766 0)
(0.900965 0.00531361 0)
(1.09058 0.00959718 0)
(0.9414 0.0089682 0)
(1.04116 0.0106799 0)
(0.799898 -0.0114812 0)
(1.3175 0.0127775 0)
(0.873621 0.0027242 0)
(1.06056 -0.0153997 0)
(1.03016 -0.00475945 0)
(1.12019 0.00599376 0)
(0.910464 0.0144608 0)
(1.11006 -0.00407174 0)
(0.852601 -0.00996431 0)
(1.14406 -0.0138198 0)
(0.835002 -0.0132065 0)
(1.16125 -0.00770958 0)
(0.879302 -0.00569396 0)
(1.13068 0.00140302 0)
(0.928548 0.00102588 0)
(1.07896 0.00655565 0)
(0.965608 0.00654311 0)
(1.03074 0.0085844 0)
(0.990685 0.0102991 0)
(0.998903 0.0100421 0)
(0.827091 -0.0120765 0)
(1.28717 0.0126982 0)
(0.931158 0.00381257 0)
(1.0435 -0.0160556 0)
(1.03691 -0.00517833 0)
(1.10466 0.00687539 0)
(0.953031 0.0144418 0)
(1.08437 -0.00339106 0)
(0.906824 -0.0104185 0)
(1.0943 -0.0134599 0)
(0.89793 -0.0136016 0)
(1.10273 -0.00818036 0)
(0.944106 -0.00538264 0)
(1.07482 0.000686486 0)
(0.983821 0.00196512 0)
(1.03378 0.00588983 0)
(1.00181 0.00762112 0)
(1.00359 0.00808061 0)
(1.00586 0.0111798 0)
(0.989021 0.0101095 0)
(0.858081 -0.0126407 0)
(1.24764 0.0123604 0)
(0.980619 0.00491099 0)
(1.02671 -0.0164693 0)
(1.04037 -0.0056261 0)
(1.0885 0.007412 0)
(0.993622 0.0145787 0)
(1.06385 -0.00285118 0)
(0.95234 -0.0104738 0)
(1.05104 -0.0133506 0)
(0.947751 -0.01369 0)
(1.05415 -0.00890352 0)
(0.988971 -0.00497031 0)
(1.03948 -1.50534e-05 0)
(1.01382 0.00277146 0)
(1.01665 0.00555882 0)
(1.01526 0.00839933 0)
(1.00093 0.00805145 0)
(1.00841 0.0117625 0)
(0.992687 0.0104729 0)
(0.889741 -0.0131576 0)
(1.20232 0.0118716 0)
(1.01643 0.0059512 0)
(1.01399 -0.016665 0)
(1.03897 -0.00607481 0)
(1.07356 0.00765725 0)
(1.02441 0.0147937 0)
(1.05038 -0.00238459 0)
(0.983456 -0.0102126 0)
(1.02149 -0.0133673 0)
(0.977349 -0.013615 0)
(1.02345 -0.00966338 0)
(1.00993 -0.0047142 0)
(1.02503 -0.000560364 0)
(1.02468 0.00330677 0)
(1.01698 0.0054798 0)
(1.01969 0.00896287 0)
(1.00804 0.00820922 0)
(1.01033 0.012235 0)
(1.0006 0.0108911 0)
(0.919157 -0.0135992 0)
(1.15541 0.0113383 0)
(1.03727 0.00684837 0)
(1.00701 -0.0166704 0)
(1.03297 -0.00650082 0)
(1.06001 0.007652 0)
(1.04209 0.015021 0)
(1.04264 -0.00194584 0)
(1.0011 -0.00974375 0)
(1.0057 -0.0133968 0)
(0.990444 -0.0134702 0)
(1.00766 -0.0103482 0)
(1.0143 -0.00468501 0)
(1.0209 -0.00101883 0)
(1.02588 0.00359279 0)
(1.02161 0.00543762 0)
(1.02193 0.00938637 0)
(1.01583 0.00837716 0)
(1.01391 0.0126644 0)
(1.00848 0.0113 0)
(0.944261 -0.0139457 0)
(1.11099 0.0108213 0)
(1.04511 0.00755258 0)
(1.00521 -0.0165296 0)
(1.02414 -0.00688006 0)
(1.04691 0.00746198 0)
(1.04742 0.0152069 0)
(1.03769 -0.00153237 0)
(1.00945 -0.00917279 0)
(0.999212 -0.0133892 0)
(0.994523 -0.0132757 0)
(0.999836 -0.0109359 0)
(1.01088 -0.00481155 0)
(1.01804 -0.00148535 0)
(1.02302 0.00370182 0)
(1.02359 0.00531051 0)
(1.02281 0.00968969 0)
(1.02044 0.008505 0)
(1.01735 0.0130381 0)
(1.01411 0.0116875 0)
(0.964113 -0.0141905 0)
(1.07228 0.0103603 0)
(1.04381 0.0080376 0)
(1.00673 -0.0162959 0)
(1.01487 -0.00717087 0)
(1.03353 0.00717016 0)
(1.04359 0.0153193 0)
(1.03312 -0.00117719 0)
(1.01267 -0.00857839 0)
(0.997341 -0.0133463 0)
(0.995393 -0.0130158 0)
(0.995107 -0.0114314 0)
(1.00532 -0.00498541 0)
(1.01316 -0.00200144 0)
(1.01817 0.00370228 0)
(1.02141 0.00507838 0)
(1.02145 0.00987735 0)
(1.02096 0.00858627 0)
(1.01862 0.0133255 0)
(1.01646 0.0120348 0)
(0.978792 -0.0143384 0)
(1.04114 0.00997953 0)
(1.03755 0.00830594 0)
(1.00951 -0.0160167 0)
(1.00704 -0.00734186 0)
(1.02018 0.00684937 0)
(1.03454 0.0153456 0)
(1.02802 -0.000921454 0)
(1.0135 -0.00801067 0)
(0.997225 -0.0132888 0)
(0.995779 -0.0126823 0)
(0.991769 -0.0118332 0)
(1.00004 -0.00512462 0)
(1.00675 -0.00253612 0)
(1.01214 0.00364312 0)
(1.01612 0.00477096 0)
(1.01757 0.00995705 0)
(1.01796 0.00862108 0)
(1.01694 0.0135061 0)
(1.01548 0.0123203 0)
(0.989047 -0.014402 0)
(1.01797 0.00968332 0)
(1.02974 0.00838716 0)
(1.01203 -0.0157264 0)
(1.0015 -0.00738779 0)
(1.00804 0.00654958 0)
(1.02382 0.0152882 0)
(1.02269 -0.000791367 0)
(1.01332 -0.00749623 0)
(0.997647 -0.0132361 0)
(0.996302 -0.0122812 0)
(0.989628 -0.0121398 0)
(0.995711 -0.00518741 0)
(1.0003 -0.00303236 0)
(1.00561 0.00355797 0)
(1.00929 0.00443634 0)
(1.01176 0.00993945 0)
(1.01258 0.0086166 0)
(1.01271 0.0135792 0)
(1.01184 0.0125323 0)
(0.995891 -0.0143984 0)
(1.00196 0.00946109 0)
(1.02244 0.00832323 0)
(1.01355 -0.0154463 0)
(0.9981 -0.0073196 0)
(0.998346 0.00629848 0)
(1.01393 0.0151609 0)
(1.01784 -0.000788901 0)
(1.01275 -0.00704368 0)
(0.998219 -0.0131967 0)
(0.996795 -0.0118295 0)
(0.988601 -0.0123573 0)
(0.992393 -0.00516074 0)
(0.994871 -0.00345188 0)
(0.999349 0.00347399 0)
(1.00227 0.00412563 0)
(1.00505 0.00984226 0)
(1.00605 0.00859143 0)
(1.0069 0.0135613 0)
(1.00654 0.0126725 0)
(1.00029 -0.014345 0)
(0.99162 0.00929653 0)
(1.0165 0.00815746 0)
(1.01395 -0.0151841 0)
(0.996181 -0.00716566 0)
(0.991601 0.0061024 0)
(1.00616 0.0149826 0)
(1.01403 -0.000896453 0)
(1.012 -0.00664886 0)
(0.998853 -0.0131696 0)
(0.997029 -0.0113454 0)
(0.988343 -0.0124984 0)
(0.989933 -0.00505256 0)
(0.99083 -0.00377951 0)
(0.993947 0.00340877 0)
(0.995994 0.00388183 0)
(0.998467 0.00969312 0)
(0.999436 0.00857045 0)
(1.00057 0.0134775 0)
(1.00062 0.0127526 0)
(1.00296 -0.0142558 0)
(0.985269 0.00917391 0)
(1.01195 0.00792706 0)
(1.01339 -0.0149402 0)
(0.995062 -0.00695677 0)
(0.987515 0.00595391 0)
(1.00072 0.0147714 0)
(1.01142 -0.00108755 0)
(1.01119 -0.00630104 0)
(0.999527 -0.0131479 0)
(0.996954 -0.0108423 0)
(0.988413 -0.0125761 0)
(0.9881 -0.00488759 0)
(0.988068 -0.00400854 0)
(0.989707 0.00336738 0)
(0.990963 0.00373295 0)
(0.992779 0.00952178 0)
(0.993559 0.00857579 0)
(0.994651 0.0133551 0)
(0.994977 0.01279 0)
(1.00439 -0.0141405 0)
(0.981528 0.00908033 0)
(1.00852 0.00765948 0)
(1.01218 -0.0147112 0)
(0.994287 -0.00672025 0)
(0.985359 0.00583939 0)
(0.997221 0.0145405 0)
(1.00985 -0.00133587 0)
(1.01038 -0.00598815 0)
(1.0002 -0.0131241 0)
(0.996683 -0.0103258 0)
(0.98849 -0.0125992 0)
(0.986655 -0.00469073 0)
(0.986253 -0.00413578 0)
(0.986628 0.00334044 0)
(0.987329 0.0036865 0)
(0.988415 0.00934857 0)
(0.988937 0.0086194 0)
(0.989792 0.0132204 0)
(0.990262 0.0128036 0)
(1.00485 -0.0140053 0)
(0.979502 0.0090052 0)
(1.00595 0.0073743 0)
(1.01059 -0.0144934 0)
(0.993678 -0.00647566 0)
(0.984422 0.00574566 0)
(0.995116 0.0142968 0)
(1.00905 -0.0016207 0)
(1.00965 -0.0057002 0)
(1.00082 -0.0130924 0)
(0.996399 -0.00979729 0)
(0.988456 -0.0125675 0)
(0.985427 -0.00448614 0)
(0.985024 -0.00417108 0)
(0.984512 0.00330487 0)
(0.984972 0.0037304 0)
(0.985466 0.00918156 0)
(0.985769 0.00869921 0)
(0.986322 0.0130914 0)
(0.986853 0.0128099 0)
(1.00454 -0.0138538 0)
(0.978733 0.00893903 0)
(1.00411 0.00708627 0)
(1.00886 -0.0142836 0)
(0.993252 -0.00623532 0)
(0.984246 0.00566285 0)
(0.993954 0.0140439 0)
(1.00875 -0.00192828 0)
(1.00908 -0.0054292 0)
(1.00127 -0.0130494 0)
(0.996256 -0.0092598 0)
(0.988357 -0.0124707 0)
(0.984349 -0.00430436 0)
(0.984112 -0.00412694 0)
(0.983094 0.00323766 0)
(0.983612 0.00384004 0)
(0.983774 0.00901988 0)
(0.983972 0.00880248 0)
(0.984273 0.0129743 0)
(0.984833 0.0128176 0)
(1.00367 -0.0136894 0)
(0.979004 0.0088731 0)
(1.00292 0.00680637 0)
(1.00715 -0.0140802 0)
(0.993104 -0.00600775 0)
(0.984623 0.00558476 0)
(0.993451 0.0137852 0)
(1.00875 -0.00225054 0)
(1.00871 -0.0051677 0)
(1.00152 -0.012992 0)
(0.996313 -0.00872394 0)
(0.988313 -0.0122948 0)
(0.983453 -0.00415881 0)
(0.983384 -0.00401387 0)
(0.982148 0.00312328 0)
(0.982931 0.00398571 0)
(0.98304 0.0088562 0)
(0.983282 0.00891106 0)
(0.983447 0.0128687 0)
(0.984049 0.0128278 0)
(1.0025 -0.0135157 0)
(0.980123 0.00879978 0)
(1.00228 0.00654395 0)
(1.00554 -0.0138826 0)
(0.993293 -0.00579928 0)
(0.985455 0.00550864 0)
(0.993434 0.0135246 0)
(1.00887 -0.00258193 0)
(1.00856 -0.00491096 0)
(1.00153 -0.0129135 0)
(0.996527 -0.00820685 0)
(0.988424 -0.0120291 0)
(0.982821 -0.00405145 0)
(0.982817 -0.003839 0)
(0.98153 0.00295446 0)
(0.982658 0.00413928 0)
(0.98293 0.00868365 0)
(0.98335 0.00900168 0)
(0.983519 0.0127693 0)
(0.9842 0.0128384 0)
(1.0013 -0.0133368 0)
(0.98181 0.00871367 0)
(1.00202 0.00630635 0)
(1.00406 -0.0136912 0)
(0.993787 -0.00561493 0)
(0.986633 0.00543392 0)
(0.993769 0.0132668 0)
(1.00898 -0.00291758 0)
(1.00857 -0.00465727 0)
(1.00135 -0.0128075 0)
(0.996792 -0.00772272 0)
(0.988722 -0.0116704 0)
(0.982529 -0.0039847 0)
(0.982439 -0.00361064 0)
(0.981176 0.0027315 0)
(0.98261 0.00427329 0)
(0.983154 0.0084997 0)
(0.983846 0.00905193 0)
(0.98413 0.0126576 0)
(0.98493 0.0128415 0)
(1.00029 -0.0131562 0)
(0.983711 0.00861237 0)
(1.00196 0.00609793 0)
(1.00273 -0.013507 0)
(0.994464 -0.00545802 0)
(0.987986 0.00536053 0)
(0.994335 0.0130173 0)
(1.00901 -0.00325419 0)
(1.00865 -0.00440753 0)
(1.00108 -0.0126651 0)
(0.997004 -0.00728948 0)
(0.989174 -0.0112208 0)
(0.982608 -0.00395804 0)
(0.98228 -0.00332558 0)
(0.981069 0.00247571 0)
(0.982684 0.00437618 0)
(0.983505 0.00830753 0)
(0.984501 0.00905798 0)
(0.984963 0.0125155 0)
(0.985912 0.0128178 0)
(0.999566 -0.0129762 0)
(0.985501 0.00849617 0)
(1.00194 0.00592013 0)
(1.00153 -0.0133308 0)
(0.995163 -0.00532909 0)
(0.989318 0.00528694 0)
(0.99504 0.0127815 0)
(1.00892 -0.00358649 0)
(1.00867 -0.0041673 0)
(1.00081 -0.012475 0)
(0.997112 -0.00692253 0)
(0.989717 -0.0106921 0)
(0.983031 -0.00396113 0)
(0.982341 -0.00299012 0)
(0.981206 0.00220295 0)
(0.982838 0.00444493 0)
(0.98387 0.0081137 0)
(0.985142 0.00902583 0)
(0.985787 0.0123511 0)
(0.986888 0.0127611 0)
(0.999127 -0.0127974 0)
(0.986974 0.00836696 0)
(1.00189 0.00577148 0)
(1.00051 -0.0131626 0)
(0.995735 -0.00522604 0)
(0.990456 0.00521137 0)
(0.995836 0.0125572 0)
(1.00873 -0.00390393 0)
(1.00853 -0.00394337 0)
(1.00059 -0.0122339 0)
(0.997118 -0.00662817 0)
(0.990296 -0.010099 0)
(0.983728 -0.00398739 0)
(0.9826 -0.0026167 0)
(0.981577 0.00193021 0)
(0.983066 0.00447028 0)
(0.984217 0.00792032 0)
(0.985681 0.00895108 0)
(0.986473 0.0121629 0)
(0.987695 0.0126773 0)
(0.998887 -0.0126191 0)
(0.988075 0.00822677 0)
(1.0018 0.00564853 0)
(0.999688 -0.013001 0)
(0.996089 -0.00514595 0)
(0.991302 0.0051336 0)
(0.996711 0.0123387 0)
(1.00852 -0.00420261 0)
(1.00818 -0.00374215 0)
(1.00047 -0.0119343 0)
(0.997062 -0.00641153 0)
(0.990889 -0.00945966 0)
(0.984608 -0.00403019 0)
(0.983028 -0.00221308 0)
(0.982154 0.00169042 0)
(0.983372 0.00446468 0)
(0.984558 0.00773489 0)
(0.986097 0.00884259 0)
(0.986982 0.0119391 0)
(0.988264 0.0125532 0)
(0.998741 -0.0124399 0)
(0.988857 0.00807666 0)
(1.00172 0.00554688 0)
(0.999114 -0.0128428 0)
(0.996196 -0.00508286 0)
(0.99183 0.00504358 0)
(0.997665 0.0121312 0)
(1.00834 -0.00446957 0)
(1.00761 -0.00358253 0)
(1.00041 -0.0115605 0)
(0.996983 -0.0062638 0)
(0.991489 -0.00878968 0)
(0.985589 -0.00409055 0)
(0.983598 -0.00180005 0)
(0.982898 0.00149245 0)
(0.983763 0.00443419 0)
(0.98492 0.00756869 0)
(0.986408 0.0087215 0)
(0.987329 0.0116919 0)
(0.988598 0.0123974 0)
(0.998605 -0.0122577 0)
(0.989406 0.00791591 0)
(1.00171 0.00546231 0)
(0.99881 -0.0126859 0)
(0.996074 -0.00502621 0)
(0.992072 0.00493299 0)
(0.998675 0.0119152 0)
(1.00825 -0.00467001 0)
(1.00686 -0.00347189 0)
(1.00039 -0.011139 0)
(0.9969 -0.00616754 0)
(0.992095 -0.0081021 0)
(0.986602 -0.00416289 0)
(0.984286 -0.00139126 0)
(0.983755 0.00136765 0)
(0.984243 0.00439223 0)
(0.985325 0.00741839 0)
(0.986655 0.0086093 0)
(0.987561 0.0114198 0)
(0.988745 0.0122127 0)
(0.998437 -0.0120707 0)
(0.989799 0.00774256 0)
(1.00181 0.00539026 0)
(0.998784 -0.0125242 0)
(0.995776 -0.00497623 0)
(0.99209 0.00481543 0)
(0.999687 0.0116692 0)
(1.00825 -0.00482014 0)
(1.00601 -0.00338072 0)
(1.00036 -0.0106951 0)
(0.996819 -0.00613935 0)
(0.992692 -0.00741617 0)
(0.987588 -0.00421035 0)
(0.985063 -0.00101318 0)
(0.984673 0.00130022 0)
(0.984803 0.00436899 0)
(0.98578 0.00728222 0)
(0.986878 0.00853595 0)
(0.987727 0.0111569 0)
(0.988778 0.0120057 0)
(0.998229 -0.0118773 0)
(0.990077 0.00755555 0)
(1.00201 0.00532348 0)
(0.999016 -0.0123477 0)
(0.995368 -0.00493315 0)
(0.991956 0.00467233 0)
(1.00062 0.0114229 0)
(1.0083 -0.00492237 0)
(1.00513 -0.00333957 0)
(1.00031 -0.0101906 0)
(0.99673 -0.00616753 0)
(0.993255 -0.00675622 0)
(0.988501 -0.00424427 0)
(0.985882 -0.000653458 0)
(0.985599 0.00126973 0)
(0.985431 0.00436993 0)
(0.986282 0.00714915 0)
(0.987117 0.00848647 0)
(0.987873 0.0109245 0)
(0.988764 0.011802 0)
(0.997995 -0.0116752 0)
(0.990259 0.00734933 0)
(1.0023 0.00526429 0)
(0.99946 -0.0121727 0)
(0.994917 -0.00484785 0)
(0.991744 0.00447003 0)
(1.0014 0.0111387 0)
(1.00835 -0.00490291 0)
(1.0043 -0.00336203 0)
(1.00021 -0.00964498 0)
(0.996629 -0.00620643 0)
(0.99375 -0.00610274 0)
(0.989309 -0.00427587 0)
(0.9867 -0.00032895 0)
(0.986484 0.00127893 0)
(0.9861 0.0044224 0)
(0.986818 0.00703629 0)
(0.987402 0.00848525 0)
(0.988044 0.0107234 0)
(0.988774 0.0116175 0)
(0.997761 -0.011465 0)
(0.990354 0.00713006 0)
(1.00262 0.00519456 0)
(1.00005 -0.0119556 0)
(0.994481 -0.00481405 0)
(0.991518 0.00435234 0)
(1.00198 0.01073 0)
(1.00836 -0.00481124 0)
(1.00355 -0.00339653 0)
(1.00005 -0.00909431 0)
(0.996521 -0.00630806 0)
(0.994147 -0.00547914 0)
(0.989988 -0.00427055 0)
(0.98747 -2.34032e-05 0)
(0.9873 0.00128931 0)
(0.986787 0.00449726 0)
(0.987375 0.00692203 0)
(0.98774 0.00853517 0)
(0.988259 0.0105378 0)
(0.988843 0.0114444 0)
(0.997551 -0.0112401 0)
(0.990372 0.00688108 0)
(1.00293 0.00513534 0)
(1.00072 -0.011756 0)
(0.994108 -0.00469532 0)
(0.991339 0.00409515 0)
(1.00234 0.0104341 0)
(1.0083 -0.00474 0)
(1.00293 -0.00345419 0)
(0.999822 -0.00852686 0)
(0.996411 -0.00639735 0)
(0.994437 -0.00495374 0)
(0.990546 -0.00417725 0)
(0.988152 0.000154043 0)
(0.988021 0.00143596 0)
(0.987462 0.00451384 0)
(0.987942 0.00685662 0)
(0.988133 0.00847074 0)
(0.988518 0.01043 0)
(0.988994 0.0113085 0)
(0.997387 -0.0110104 0)
(0.990337 0.0066278 0)
(1.0032 0.00504211 0)
(1.00138 -0.0114945 0)
(0.993816 -0.00462447 0)
(0.991245 0.00393511 0)
(1.00249 0.00996822 0)
(1.00815 -0.00448806 0)
(1.00245 -0.00358073 0)
(0.999544 -0.00790102 0)
(0.996312 -0.00646228 0)
(0.994617 -0.0044976 0)
(0.990978 -0.00398262 0)
(0.988749 0.000168803 0)
(0.988653 0.00163088 0)
(0.9881 0.00444075 0)
(0.988499 0.00686318 0)
(0.98858 0.00844567 0)
(0.988869 0.0104534 0)
(0.989229 0.011285 0)
(0.997282 -0.0107677 0)
(0.99027 0.00635685 0)
(1.0034 0.0049504 0)
(1.00196 -0.0112315 0)
(0.993624 -0.00455829 0)
(0.99125 0.00380155 0)
(1.00247 0.00945806 0)
(1.00792 -0.00425524 0)
(1.00209 -0.00367122 0)
(0.999235 -0.00739207 0)
(0.996229 -0.00646311 0)
(0.994713 -0.00421211 0)
(0.991315 -0.00367773 0)
(0.989239 0.000111516 0)
(0.989193 0.00188291 0)
(0.988693 0.00426676 0)
(0.98906 0.00688414 0)
(0.989057 0.00830422 0)
(0.98926 0.0104557 0)
(0.989518 0.0112659 0)
(0.997237 -0.0104998 0)
(0.990206 0.00603332 0)
(1.00351 0.00488245 0)
(1.00244 -0.0110125 0)
(0.993509 -0.00435687 0)
(0.991361 0.00347977 0)
(1.00235 0.00912724 0)
(1.00763 -0.00410865 0)
(1.00184 -0.00370079 0)
(0.998919 -0.00692349 0)
(0.996184 -0.00643322 0)
(0.99474 -0.00396361 0)
(0.991582 -0.00345424 0)
(0.98965 0.000162796 0)
(0.989661 0.00203648 0)
(0.989221 0.00433607 0)
(0.989593 0.00692561 0)
(0.989551 0.00827524 0)
(0.989736 0.0104094 0)
(0.989857 0.0111959 0)
(0.997248 -0.0102479 0)
(0.990171 0.0057574 0)
(1.00354 0.00472137 0)
(1.00277 -0.010631 0)
(0.993474 -0.00438435 0)
(0.991551 0.00348982 0)
(1.00217 0.00844777 0)
(1.0073 -0.00364642 0)
(1.0017 -0.00396399 0)
(0.998604 -0.00612433 0)
(0.996183 -0.00659834 0)
(0.994727 -0.00349061 0)
(0.991824 -0.00346439 0)
(0.989983 0.000496975 0)
(0.990093 0.00195237 0)
(0.989705 0.00468036 0)
(0.990103 0.00682763 0)
(0.990015 0.00855361 0)
(0.990183 0.0101889 0)
(0.99022 0.0109916 0)
(0.997296 -0.00997193 0)
(0.990201 0.00544533 0)
(1.00347 0.00461779 0)
(1.00298 -0.0103674 0)
(0.993486 -0.00424769 0)
(0.991797 0.00328283 0)
(1.00198 0.00792948 0)
(1.00695 -0.00337022 0)
(1.00162 -0.00405641 0)
(0.998327 -0.00569314 0)
(0.996214 -0.00644884 0)
(0.994712 -0.00336754 0)
(0.992062 -0.00308424 0)
(0.99027 0.000487565 0)
(0.990488 0.0021675 0)
(0.990148 0.00462682 0)
(0.990581 0.00688889 0)
(0.990452 0.00834429 0)
(0.990563 0.0101636 0)
(0.990572 0.0109441 0)
(0.99737 -0.00966756 0)
(0.990308 0.0050666 0)
(1.00334 0.00452853 0)
(1.00307 -0.0100855 0)
(0.993529 -0.00412151 0)
(0.992091 0.00305773 0)
(1.00177 0.00756115 0)
(1.0066 -0.00327133 0)
(1.00158 -0.00395121 0)
(0.998105 -0.00545681 0)
(0.996284 -0.00613118 0)
(0.994733 -0.00345975 0)
(0.992282 -0.00264177 0)
(0.990542 0.000381445 0)
(0.990854 0.00246902 0)
(0.990566 0.00462034 0)
(0.991022 0.00703874 0)
(0.990889 0.00824201 0)
(0.991048 0.0101874 0)
(0.990921 0.0109392 0)
(0.997459 -0.00940661 0)
(0.990485 0.00479787 0)
(1.00316 0.0043195 0)
(1.00307 -0.0096492 0)
(0.993614 -0.00415008 0)
(0.992388 0.00311182 0)
(1.00159 0.00680083 0)
(1.00625 -0.00267518 0)
(1.00159 -0.00429822 0)
(0.997919 -0.00458912 0)
(0.996387 -0.00634592 0)
(0.994776 -0.00296334 0)
(0.992531 -0.0028044 0)
(0.990813 0.000897931 0)
(0.99123 0.00248126 0)
(0.990947 0.00509887 0)
(0.991445 0.00684215 0)
(0.991273 0.0086247 0)
(0.991434 0.00982565 0)
(0.991247 0.0105969 0)
(0.997549 -0.00910737 0)
(0.990731 0.00446061 0)
(1.00293 0.00419736 0)
(1.00302 -0.00931898 0)
(0.993726 -0.00408351 0)
(0.992678 0.00293881 0)
(1.0014 0.00631823 0)
(1.00591 -0.00250615 0)
(1.00161 -0.00426504 0)
(0.997767 -0.00435403 0)
(0.996508 -0.00595834 0)
(0.99487 -0.00305568 0)
(0.992811 -0.00225896 0)
(0.991116 0.0007789 0)
(0.991586 0.00264003 0)
(0.991305 0.00494138 0)
(0.991834 0.00694151 0)
(0.991616 0.00829489 0)
(0.991686 0.00983563 0)
(0.991543 0.0105829 0)
(0.997637 -0.0087777 0)
(0.99103 0.00404894 0)
(1.0027 0.00410079 0)
(1.00294 -0.00902815 0)
(0.993854 -0.00395338 0)
(0.992989 0.00267287 0)
(1.00121 0.00601811 0)
(1.00556 -0.00250464 0)
(1.00161 -0.00402805 0)
(0.997688 -0.00429268 0)
(0.996623 -0.00541407 0)
(0.995035 -0.0032489 0)
(0.993078 -0.0018166 0)
(0.991401 0.000628528 0)
(0.991954 0.00282748 0)
(0.991709 0.00478788 0)
(0.992205 0.00710202 0)
(0.991994 0.0081035 0)
(0.992134 0.00994336 0)
(0.99182 0.0106666 0)
(0.997729 -0.0085375 0)
(0.991347 0.00383465 0)
(1.00247 0.0038192 0)
(1.00283 -0.00846687 0)
(0.994027 -0.00412549 0)
(0.993268 0.00285735 0)
(1.00103 0.0051706 0)
(1.0052 -0.00182107 0)
(1.00164 -0.0044524 0)
(0.997606 -0.00330746 0)
(0.996758 -0.00578922 0)
(0.995201 -0.00254618 0)
(0.993385 -0.00209906 0)
(0.991739 0.0014956 0)
(0.992324 0.00268099 0)
(0.992092 0.00537354 0)
(0.992586 0.0067836 0)
(0.992339 0.00867302 0)
(0.992453 0.00953388 0)
(0.992087 0.0102482 0)
(0.997805 -0.00819264 0)
(0.991689 0.00342676 0)
(1.00223 0.00373706 0)
(1.00271 -0.00818235 0)
(0.994227 -0.00398852 0)
(0.99354 0.00254173 0)
(1.00085 0.00492923 0)
(1.00484 -0.00190555 0)
(1.00165 -0.00425231 0)
(0.997535 -0.00322341 0)
(0.996864 -0.00518279 0)
(0.995434 -0.00267585 0)
(0.993736 -0.00150309 0)
(0.992081 0.001285 0)
(0.992681 0.00267425 0)
(0.992478 0.00499535 0)
(0.992963 0.00678771 0)
(0.992657 0.00836307 0)
(0.992594 0.0097101 0)
(0.992304 0.0103781 0)
(0.997875 -0.00789745 0)
(0.992046 0.0030939 0)
(1.00199 0.00354168 0)
(1.0026 -0.00777043 0)
(0.994435 -0.00395224 0)
(0.993841 0.00234284 0)
(1.00064 0.00463627 0)
(1.00449 -0.00201705 0)
(1.00162 -0.00386001 0)
(0.997528 -0.00329527 0)
(0.996946 -0.00430162 0)
(0.995682 -0.00295939 0)
(0.994036 -0.000985107 0)
(0.992407 0.000910609 0)
(0.993049 0.00279071 0)
(0.992942 0.00447482 0)
(0.993394 0.00687544 0)
(0.99311 0.0079726 0)
(0.993062 0.0100534 0)
(0.992518 0.0106855 0)
(0.99796 -0.00763819 0)
(0.992376 0.00285683 0)
(1.00178 0.00329231 0)
(1.00246 -0.00723528 0)
(0.994691 -0.00408521 0)
(0.994112 0.00240523 0)
(1.00046 0.00405827 0)
(1.00414 -0.00158176 0)
(1.0016 -0.00409601 0)
(0.997518 -0.00266995 0)
(0.997011 -0.00413679 0)
(0.995926 -0.00256918 0)
(0.99438 -0.000977235 0)
(0.992751 0.00143196 0)
(0.993406 0.00275974 0)
(0.993385 0.00462085 0)
(0.993837 0.00664318 0)
(0.993563 0.00813506 0)
(0.993445 0.00971605 0)
(0.992706 0.0103498 0)
(0.998045 -0.00728466 0)
(0.992695 0.00245022 0)
(1.00158 0.00317034 0)
(1.00234 -0.00692942 0)
(0.994954 -0.0039187 0)
(0.994379 0.00205369 0)
(1.00029 0.00386948 0)
(1.00377 -0.00156517 0)
(1.00158 -0.00403812 0)
(0.997532 -0.00235608 0)
(0.997063 -0.00368698 0)
(0.996169 -0.00236457 0)
(0.994745 -0.000816773 0)
(0.993096 0.00171736 0)
(0.993741 0.00289335 0)
(0.993838 0.00462527 0)
(0.994312 0.00659036 0)
(0.994002 0.0080645 0)
(0.99378 0.0094138 0)
(0.9929 0.010029 0)
(0.998127 -0.00703108 0)
(0.993007 0.00219714 0)
(1.00139 0.00290937 0)
(1.00222 -0.00645175 0)
(0.995223 -0.00396242 0)
(0.994651 0.00193196 0)
(1.00012 0.00353074 0)
(1.00343 -0.00140401 0)
(1.00157 -0.00392421 0)
(0.997564 -0.00213587 0)
(0.99709 -0.00315619 0)
(0.996394 -0.00216221 0)
(0.995126 -0.000669011 0)
(0.993469 0.00192541 0)
(0.994071 0.00309222 0)
(0.994286 0.0046085 0)
(0.994776 0.00647039 0)
(0.994422 0.00787051 0)
(0.994114 0.00914489 0)
(0.993096 0.00974659 0)
(0.998209 -0.006726 0)
(0.993313 0.00190445 0)
(1.0012 0.00270586 0)
(1.00209 -0.00605842 0)
(0.995495 -0.00387926 0)
(0.994922 0.00168485 0)
(0.999971 0.00327442 0)
(1.00308 -0.00120281 0)
(1.00154 -0.00389673 0)
(0.997626 -0.00195294 0)
(0.99712 -0.00263027 0)
(0.996599 -0.0019397 0)
(0.995517 -0.000505044 0)
(0.993855 0.00206693 0)
(0.994382 0.00327194 0)
(0.994704 0.00456812 0)
(0.995245 0.00633159 0)
(0.994857 0.00766303 0)
(0.994452 0.00887993 0)
(0.993308 0.00949467 0)
(0.99829 -0.00642413 0)
(0.993615 0.00159464 0)
(1.00103 0.00249257 0)
(1.00196 -0.00568511 0)
(0.995755 -0.00374893 0)
(0.995194 0.00137815 0)
(0.999835 0.00307986 0)
(1.00274 -0.0010912 0)
(1.00152 -0.00374852 0)
(0.997721 -0.00177097 0)
(0.99714 -0.00214362 0)
(0.996781 -0.00173136 0)
(0.995908 -0.00033608 0)
(0.994261 0.00210416 0)
(0.994692 0.00350692 0)
(0.995112 0.00460595 0)
(0.995701 0.00623092 0)
(0.995276 0.00743627 0)
(0.994803 0.00859675 0)
(0.993516 0.00922388 0)
(0.998371 -0.00616091 0)
(0.993912 0.00134538 0)
(1.00086 0.00227424 0)
(1.00183 -0.00532375 0)
(0.996009 -0.00363474 0)
(0.995464 0.00115822 0)
(0.999718 0.0028117 0)
(1.00242 -0.000853772 0)
(1.00149 -0.00357144 0)
(0.997831 -0.00169698 0)
(0.997167 -0.00170143 0)
(0.996946 -0.00142846 0)
(0.99629 -0.000187999 0)
(0.994692 0.00214651 0)
(0.995021 0.00370658 0)
(0.995476 0.00465661 0)
(0.996128 0.00600012 0)
(0.995689 0.00718667 0)
(0.995156 0.00825137 0)
(0.993741 0.00895901 0)
(0.998451 -0.00585826 0)
(0.994205 0.00107161 0)
(1.00071 0.00206294 0)
(1.0017 -0.00502583 0)
(0.996249 -0.00341427 0)
(0.995724 0.000855577 0)
(0.999622 0.00258303 0)
(1.0021 -0.000679633 0)
(1.00146 -0.00338281 0)
(0.997973 -0.00164783 0)
(0.997218 -0.0012438 0)
(0.997088 -0.00112364 0)
(0.996658 -6.40059e-05 0)
(0.995142 0.00216363 0)
(0.99535 0.00381633 0)
(0.995793 0.00466766 0)
(0.996529 0.00580575 0)
(0.996101 0.00695107 0)
(0.995534 0.00797414 0)
(0.994003 0.00877305 0)
(0.99853 -0.00558961 0)
(0.994492 0.000811377 0)
(1.00056 0.00185563 0)
(1.00158 -0.0047348 0)
(0.996474 -0.00322962 0)
(0.99598 0.000639712 0)
(0.999546 0.0023433 0)
(1.00179 -0.000491217 0)
(1.00142 -0.00312841 0)
(0.998135 -0.00160431 0)
(0.997283 -0.0008695 0)
(0.997202 -0.000825369 0)
(0.997009 7.96475e-05 0)
(0.995604 0.00218926 0)
(0.995697 0.00387055 0)
(0.996095 0.00474899 0)
(0.996909 0.00567793 0)
(0.996517 0.00678901 0)
(0.995937 0.00774713 0)
(0.994274 0.00856467 0)
(0.998608 -0.00531803 0)
(0.994775 0.000579295 0)
(1.00043 0.00165359 0)
(1.00146 -0.00449315 0)
(0.996691 -0.00300051 0)
(0.996225 0.000460017 0)
(0.999488 0.00207755 0)
(1.0015 -0.000314704 0)
(1.00136 -0.00288599 0)
(0.99831 -0.00158764 0)
(0.997375 -0.000552004 0)
(0.997309 -0.000469574 0)
(0.997344 0.00025589 0)
(0.996067 0.00220355 0)
(0.996062 0.00386233 0)
(0.996376 0.00483237 0)
(0.997258 0.005581 0)
(0.996921 0.00663141 0)
(0.996325 0.0074695 0)
(0.99455 0.00827732 0)
(0.998687 -0.00504454 0)
(0.995051 0.000339927 0)
(1.0003 0.00145672 0)
(1.00135 -0.0042634 0)
(0.996896 -0.00279394 0)
(0.996455 0.000310802 0)
(0.999447 0.00183299 0)
(1.00123 -0.000170692 0)
(1.0013 -0.00258871 0)
(0.998504 -0.00152804 0)
(0.997501 -0.000280618 0)
(0.997402 -0.000123806 0)
(0.997643 0.000406791 0)
(0.996517 0.00218379 0)
(0.996451 0.00380761 0)
(0.996666 0.00490445 0)
(0.997581 0.00552533 0)
(0.997294 0.00645591 0)
(0.996702 0.00718857 0)
(0.994841 0.00799232 0)
(0.998762 -0.00479204 0)
(0.995324 0.000119914 0)
(1.00018 0.00127113 0)
(1.00124 -0.00406235 0)
(0.997094 -0.0025996 0)
(0.996677 0.000230518 0)
(0.999421 0.00158326 0)
(1.00099 -2.51541e-05 0)
(1.00124 -0.0022839 0)
(0.998694 -0.00147786 0)
(0.997649 -9.08844e-05 0)
(0.997488 0.000227779 0)
(0.997919 0.000587277 0)
(0.996962 0.00222716 0)
(0.996869 0.00377059 0)
(0.996961 0.00496184 0)
(0.997862 0.00548694 0)
(0.997634 0.00629467 0)
(0.997069 0.00695608 0)
(0.995153 0.00771617 0)
(0.998836 -0.00452799 0)
(0.995589 -9.04597e-05 0)
(1.00007 0.00108572 0)
(1.00115 -0.00388224 0)
(0.997287 -0.00239589 0)
(0.99688 0.000147867 0)
(0.999408 0.00135749 0)
(1.00076 8.15616e-05 0)
(1.00116 -0.00198496 0)
(0.998889 -0.00140178 0)
(0.997841 6.98451e-05 0)
(0.997581 0.000564635 0)
(0.998166 0.000784035 0)
(0.997389 0.00226622 0)
(0.997291 0.00369508 0)
(0.997267 0.00493603 0)
(0.998125 0.00545899 0)
(0.997953 0.00615586 0)
(0.997419 0.00675199 0)
(0.995461 0.00741116 0)
(0.998907 -0.00428823 0)
(0.99585 -0.000288267 0)
(0.999965 0.00091194 0)
(1.00105 -0.00370539 0)
(0.997472 -0.00225328 0)
(0.997073 0.000121717 0)
(0.999406 0.0011607 0)
(1.00057 0.000191987 0)
(1.00107 -0.00166236 0)
(0.999074 -0.00127684 0)
(0.99805 0.000164749 0)
(0.997677 0.000854122 0)
(0.998387 0.000981489 0)
(0.997792 0.00230459 0)
(0.997721 0.00362018 0)
(0.997598 0.00488261 0)
(0.998378 0.00544435 0)
(0.998241 0.00603994 0)
(0.997729 0.00655981 0)
(0.995763 0.00709886 0)
(0.998977 -0.00404082 0)
(0.996102 -0.000472568 0)
(0.999868 0.000740659 0)
(1.00097 -0.00355778 0)
(0.997657 -0.00210227 0)
(0.997253 0.000106168 0)
(0.999411 0.00100028 0)
(1.00039 0.000278161 0)
(1.00099 -0.0013656 0)
(0.999246 -0.00114865 0)
(0.99829 0.000225849 0)
(0.997796 0.00112538 0)
(0.998587 0.00121202 0)
(0.998173 0.00236445 0)
(0.998148 0.0035794 0)
(0.997949 0.00479988 0)
(0.998631 0.00542877 0)
(0.998502 0.00593415 0)
(0.998002 0.00640638 0)
(0.996055 0.00682734 0)
(0.999042 -0.00381257 0)
(0.996347 -0.000644974 0)
(0.999783 0.00057899 0)
(1.00088 -0.00340824 0)
(0.997836 -0.00200336 0)
(0.997425 9.90369e-05 0)
(0.999426 0.000875249 0)
(1.00025 0.00037305 0)
(1.0009 -0.00105168 0)
(0.999403 -0.00096607 0)
(0.998545 0.000278958 0)
(0.997934 0.00133741 0)
(0.998765 0.00143008 0)
(0.998527 0.00239466 0)
(0.998562 0.00353518 0)
(0.998317 0.00467772 0)
(0.998889 0.00538566 0)
(0.998746 0.00581537 0)
(0.998243 0.00627034 0)
(0.996326 0.00658142 0)
(0.999106 -0.00358091 0)
(0.996584 -0.000806288 0)
(0.999702 0.000431132 0)
(1.00081 -0.00330503 0)
(0.998015 -0.00189554 0)
(0.99759 8.47716e-05 0)
(0.999448 0.000805619 0)
(1.00012 0.000464863 0)
(1.00081 -0.000765097 0)
(0.999536 -0.000776905 0)
(0.998809 0.000315796 0)
(0.998098 0.00150422 0)
(0.998925 0.0016539 0)
(0.998857 0.00244391 0)
(0.998966 0.00353184 0)
(0.998697 0.00456397 0)
(0.999158 0.00533035 0)
(0.998982 0.00570041 0)
(0.998462 0.00615826 0)
(0.996575 0.00637737 0)
(0.999165 -0.00336369 0)
(0.996812 -0.000955815 0)
(0.99963 0.00028663 0)
(1.00074 -0.00318103 0)
(0.99819 -0.00183388 0)
(0.997751 7.60369e-05 0)
(0.99948 0.000769537 0)
(1.00002 0.000548678 0)
(1.00073 -0.000497238 0)
(0.999651 -0.000561797 0)
(0.999078 0.000376538 0)
(0.998289 0.0016269 0)
(0.999076 0.00188624 0)
(0.999166 0.00250789 0)
(0.999351 0.00352853 0)
(0.999075 0.00444017 0)
(0.999432 0.00524249 0)
(0.999216 0.00557989 0)
(0.998666 0.00604358 0)
(0.996799 0.00619571 0)
(0.999222 -0.00315224 0)
(0.997032 -0.00109529 0)
(0.999565 0.000171159 0)
(1.00067 -0.00307342 0)
(0.998365 -0.00179292 0)
(0.997916 0.000123482 0)
(0.99952 0.000736248 0)
(0.99993 0.000609696 0)
(1.00065 -0.000256238 0)
(0.999746 -0.000341261 0)
(0.999337 0.000440978 0)
(0.998505 0.00169758 0)
(0.999221 0.0021011 0)
(0.999442 0.00255697 0)
(0.999713 0.0035132 0)
(0.999451 0.00433233 0)
(0.99972 0.00514836 0)
(0.999457 0.00547135 0)
(0.998862 0.00592638 0)
(0.997004 0.00604347 0)
(0.999276 -0.00294009 0)
(0.997245 -0.00123904 0)
(0.999506 9.08378e-05 0)
(1.0006 -0.00297772 0)
(0.998546 -0.00171599 0)