/*--------------------------------*- C++ -*----------------------------------*\
| =========                 |                                                 |
| \\      /  F ield         | OpenFOAM: The Open Source CFD Toolbox           |
|  \\    /   O peration     | Version:  v2012                                 |
|   \\  /    A nd           | Website:  www.openfoam.com                      |
|    \\/     M anipulation  |                                                 |
\*---------------------------------------------------------------------------*/
FoamFile
{
    version     2.0;
    format      ascii;
    class       surfaceScalarField;
    location    "8.4";
    object      phi;
}
// * * * * * * * * * * * * * * * * * * * * * * * * * * * * * * * * * * * * * //

dimensions      [0 3 -1 0 0 0 0];
oriented        oriented;


internalField   nonuniform List<scalar> 
13830
(
9.21004e-07
-6.67886e-07
9.20435e-07
4.59371e-07
9.31894e-07
1.30279e-07
9.25194e-07
-1.57293e-06
9.54984e-07
-4.19855e-07
9.61734e-07
-2.32843e-08
9.55368e-07
2.16725e-07
9.83663e-07
1.34071e-06
9.69458e-07
1.12874e-06
9.78568e-07
1.24164e-06
9.68987e-07
6.10299e-07
9.70396e-07
2.74556e-07
9.65542e-07
1.04519e-07
9.55578e-07
-4.32088e-07
9.54197e-07
-2.32244e-07
9.29786e-07
-6.38414e-07
9.37324e-07
-3.5432e-07
8.97463e-07
-6.42769e-07
9.08274e-07
-3.42075e-07
-5.41857e-07
8.56002e-07
9.57439e-07
-6.52793e-07
9.55574e-07
4.61236e-07
9.66112e-07
1.19741e-07
9.60393e-07
-1.56721e-06
9.91272e-07
-4.50733e-07
9.97971e-07
-2.99836e-08
9.95495e-07
2.19201e-07
1.01696e-06
1.31925e-06
1.00966e-06
1.13603e-06
1.01418e-06
1.23713e-06
1.00634e-06
6.18133e-07
1.00765e-06
2.73253e-07
1.00014e-06
1.12021e-07
9.97217e-07
-4.29161e-07
9.85295e-07
-2.20321e-07
9.77994e-07
-6.31113e-07
9.66767e-07
-3.43093e-07
9.49755e-07
-6.25757e-07
9.41244e-07
-3.33564e-07
-5.09348e-07
9.08735e-07
9.95596e-07
-6.38936e-07
9.92208e-07
4.64625e-07
1.0006e-06
1.11352e-07
9.96837e-07
-1.56345e-06
1.02837e-06
-4.8227e-07
1.03681e-06
-3.84147e-08
1.0337e-06
2.22305e-07
1.05567e-06
1.29728e-06
1.04966e-06
1.14204e-06
1.05183e-06
1.23496e-06
1.04555e-06
6.2441e-07
1.04492e-06
2.73888e-07
1.03981e-06
1.17126e-07
1.03534e-06
-4.2469e-07
1.02591e-06
-2.10888e-07
1.01958e-06
-6.24791e-07
1.00587e-06
-3.29382e-07
9.97219e-07
-6.17104e-07
9.80437e-07
-3.16782e-07
-4.9017e-07
9.61258e-07
1.03552e-06
-6.26682e-07
1.0302e-06
4.6995e-07
1.03525e-06
1.06295e-07
1.0343e-06
-1.5625e-06
1.06606e-06
-5.14036e-07
1.07779e-06
-5.01377e-08
1.07407e-06
2.26026e-07
1.09372e-06
1.27762e-06
1.09111e-06
1.14466e-06
1.09211e-06
1.23396e-06
1.08555e-06
6.30967e-07
1.08559e-06
2.7385e-07
1.07987e-06
1.22848e-07
1.07577e-06
-4.20591e-07
1.06585e-06
-2.00968e-07
1.05874e-06
-6.17688e-07
1.04469e-06
-3.15331e-07
1.03596e-06
-6.08369e-07
1.01816e-06
-2.98989e-07
-4.73691e-07
1.00169e-06
1.077e-06
-6.16123e-07
1.06975e-06
4.772e-07
1.07069e-06
1.05351e-07
1.07248e-06
-1.56429e-06
1.10443e-06
-5.45981e-07
1.1204e-06
-6.61086e-08
1.11685e-06
2.29578e-07
1.13164e-06
1.26283e-06
1.13238e-06
1.14392e-06
1.13483e-06
1.23151e-06
1.12762e-06
6.38179e-07
1.12809e-06
2.73383e-07
1.12231e-06
1.28629e-07
1.1175e-06
-4.15789e-07
1.10796e-06
-1.91423e-07
1.09973e-06
-6.09457e-07
1.08628e-06
-3.01887e-07
1.07623e-06
-5.98319e-07
1.05932e-06
-2.82071e-07
-4.56874e-07
1.0425e-06
1.11985e-06
-6.07132e-07
1.11134e-06
4.85714e-07
1.10787e-06
1.0882e-07
1.11133e-06
-1.56775e-06
1.14365e-06
-5.78296e-07
1.16393e-06
-8.63881e-08
1.16172e-06
2.31784e-07
1.17135e-06
1.2532e-06
1.17379e-06
1.14148e-06
1.17936e-06
1.22595e-06
1.17179e-06
6.45742e-07
1.1725e-06
2.7268e-07
1.16605e-06
1.35077e-07
1.16074e-06
-4.1048e-07
1.15099e-06
-1.81679e-07
1.14179e-06
-6.0025e-07
1.12903e-06
-2.89129e-07
1.11724e-06
-5.86528e-07
1.10174e-06
-2.66568e-07
-4.38999e-07
1.08386e-06
1.16401e-06
-5.99444e-07
1.15558e-06
4.94145e-07
1.14776e-06
1.16638e-07
1.15122e-06
-1.57121e-06
1.18377e-06
-6.10849e-07
1.20779e-06
-1.10403e-07
1.20803e-06
2.31538e-07
1.21426e-06
1.24697e-06
1.21689e-06
1.13885e-06
1.22552e-06
1.21731e-06
1.2179e-06
6.5336e-07
1.21848e-06
2.72097e-07
1.21112e-06
1.42445e-07
1.20522e-06
-4.04584e-07
1.19523e-06
-1.71692e-07
1.18524e-06
-5.90261e-07
1.17313e-06
-2.77017e-07
1.15981e-06
-5.73206e-07
1.14567e-06
-2.5243e-07
-4.20309e-07
1.12698e-06
1.20947e-06
-5.92736e-07
1.20289e-06
5.00732e-07
1.19107e-06
1.28457e-07
1.19286e-06
-1.573e-06
1.22475e-06
-6.42738e-07
1.25157e-06
-1.37228e-07
1.25516e-06
2.27948e-07
1.26049e-06
1.24165e-06
1.26277e-06
1.13657e-06
1.27349e-06
1.20659e-06
1.26566e-06
6.61192e-07
1.26585e-06
2.71908e-07
1.25737e-06
1.50924e-07
1.2508e-06
-3.98014e-07
1.24066e-06
-1.61546e-07
1.22991e-06
-5.79513e-07
1.21854e-06
-2.6565e-07
1.20385e-06
-5.58511e-07
1.19103e-06
-2.39617e-07
-4.01173e-07
1.1719e-06
1.2563e-06
-5.86683e-07
1.2532e-06
5.03832e-07
1.23805e-06
1.43611e-07
1.23706e-06
-1.57201e-06
1.2666e-06
-6.7228e-07
1.29501e-06
-1.65638e-07
1.30266e-06
2.20297e-07
1.30924e-06
1.23507e-06
1.31138e-06
1.13442e-06
1.32323e-06
1.19474e-06
1.31475e-06
6.69675e-07
1.31438e-06
2.7228e-07
1.30476e-06
1.60549e-07
1.29742e-06
-3.90674e-07
1.28732e-06
-1.51454e-07
1.27571e-06
-5.67905e-07
1.26525e-06
-2.55186e-07
1.24926e-06
-5.42519e-07
1.23775e-06
-2.28108e-07
-3.81888e-07
1.21846e-06
1.30458e-06
-5.80982e-07
1.30595e-06
5.02459e-07
1.28852e-06
1.61038e-07
1.28443e-06
-1.56792e-06
1.30949e-06
-6.97339e-07
1.33789e-06
-1.94038e-07
1.35008e-06
2.08108e-07
1.35948e-06
1.22567e-06
1.36199e-06
1.13191e-06
1.37435e-06
1.18238e-06
1.36484e-06
6.79188e-07
1.36385e-06
2.73261e-07
1.35325e-06
1.71152e-07
1.34508e-06
-3.82499e-07
1.33531e-06
-1.41686e-07
1.32272e-06
-5.55316e-07
1.31332e-06
-2.45783e-07
1.29611e-06
-5.25314e-07
1.28586e-06
-2.17854e-07
-3.62672e-07
1.26664e-06
1.35439e-06
-5.75346e-07
1.36027e-06
4.9657e-07
1.342e-06
1.79313e-07
1.33526e-06
-1.56119e-06
1.35372e-06
-7.15799e-07
1.38014e-06
-2.2046e-07
1.39691e-06
1.9134e-07
1.41024e-06
1.21235e-06
1.41362e-06
1.12853e-06
1.42627e-06
1.16973e-06
1.41561e-06
6.89843e-07
1.41411e-06
2.74761e-07
1.4029e-06
1.8236e-07
1.39389e-06
-3.73487e-07
1.38473e-06
-1.32523e-07
1.37105e-06
-5.41641e-07
1.36281e-06
-2.37546e-07
1.34451e-06
-5.07004e-07
1.33541e-06
-2.08759e-07
-3.43693e-07
1.31643e-06
1.40584e-06
-5.69529e-07
1.41543e-06
4.86978e-07
1.39785e-06
1.96888e-07
1.38938e-06
-1.55271e-06
1.39967e-06
-7.2609e-07
1.42199e-06
-2.42781e-07
1.44263e-06
1.70706e-07
1.46063e-06
1.19435e-06
1.46535e-06
1.12381e-06
1.4784e-06
1.15668e-06
1.46686e-06
7.01376e-07
1.46511e-06
2.76519e-07
1.45383e-06
1.93634e-07
1.44404e-06
-3.63693e-07
1.43574e-06
-1.24219e-07
1.42089e-06
-5.26799e-07
1.41385e-06
-2.30501e-07
1.39459e-06
-4.87741e-07
1.38651e-06
-2.0068e-07
-3.25077e-07
1.36789e-06
1.4591e-06
-5.63378e-07
1.47109e-06
4.74979e-07
1.45554e-06
2.12441e-07
1.44622e-06
-1.5434e-06
1.44784e-06
-7.27702e-07
1.46426e-06
-2.59208e-07
1.48705e-06
1.47915e-07
1.50991e-06
1.17149e-06
1.51637e-06
1.11734e-06
1.5303e-06
1.14276e-06
1.51855e-06
7.13122e-07
1.51697e-06
2.78102e-07
1.50625e-06
2.04349e-07
1.49575e-06
-3.53193e-07
1.48852e-06
-1.16985e-07
1.47246e-06
-5.10739e-07
1.46656e-06
-2.24607e-07
1.44652e-06
-4.67698e-07
1.43928e-06
-1.93445e-07
-3.06908e-07
1.42111e-06
1.51438e-06
-5.56882e-07
1.52747e-06
4.61889e-07
1.51473e-06
2.25182e-07
1.50501e-06
-1.53368e-06
1.49879e-06
-7.21487e-07
1.50845e-06
-2.68871e-07
1.53079e-06
1.25581e-07
1.55792e-06
1.14437e-06
1.56638e-06
1.10888e-06
1.58191e-06
1.12723e-06
1.57091e-06
7.24119e-07
1.57001e-06
2.79004e-07
1.56045e-06
2.13908e-07
1.54927e-06
-3.42018e-07
1.54326e-06
-1.10975e-07
1.52596e-06
-4.93435e-07
1.52111e-06
-2.19753e-07
1.50047e-06
-4.47063e-07
1.49391e-06
-1.8688e-07
-2.8923e-07
1.47623e-06
1.57189e-06
-5.50163e-07
1.58509e-06
4.48693e-07
1.57534e-06
2.34933e-07
1.56502e-06
-1.52336e-06
1.55307e-06
-7.09535e-07
1.5564e-06
-2.72202e-07
1.5754e-06
1.0658e-07
1.60552e-06
1.11425e-06
1.61591e-06
1.0985e-06
1.63377e-06
1.10936e-06
1.6245e-06
7.33388e-07
1.62469e-06
2.78819e-07
1.61675e-06
2.21844e-07
1.60483e-06
-3.30098e-07
1.60015e-06
-1.06293e-07
1.58164e-06
-4.74922e-07
1.57766e-06
-2.15774e-07
1.55662e-06
-4.26021e-07
1.55055e-06
-1.80817e-07
-2.72065e-07
1.53339e-06
1.63179e-06
-5.4341e-07
1.64457e-06
4.3591e-07
1.63751e-06
2.41992e-07
1.62594e-06
-1.51178e-06
1.61096e-06
-6.94555e-07
1.60957e-06
-2.70814e-07
1.62307e-06
9.30831e-08
1.65465e-06
1.08267e-06
1.66645e-06
1.0867e-06
1.687e-06
1.08881e-06
1.68011e-06
7.4027e-07
1.68149e-06
2.77446e-07
1.67548e-06
2.27855e-07
1.66262e-06
-3.17237e-07
1.65929e-06
-1.0297e-07
1.63969e-06
-4.55314e-07
1.63638e-06
-2.12464e-07
1.61512e-06
-4.04761e-07
1.6094e-06
-1.751e-07
-2.55423e-07
1.59276e-06
1.69412e-06
-5.36779e-07
1.70637e-06
4.23659e-07
1.70149e-06
2.46873e-07
1.6879e-06
-1.49819e-06
1.67238e-06
-6.79039e-07
1.66845e-06
-2.66882e-07
1.6757e-06
8.58264e-08
1.70755e-06
1.05082e-06
1.71987e-06
1.07438e-06
1.74282e-06
1.06586e-06
1.73849e-06
7.446e-07
1.74078e-06
2.75156e-07
1.73686e-06
2.31777e-07
1.72279e-06
-3.03172e-07
1.7208e-06
-1.00982e-07
1.70026e-06
-4.34773e-07
1.6974e-06
-2.09603e-07
1.67611e-06
-3.83465e-07
1.67059e-06
-1.69584e-07
-2.39315e-07
1.65448e-06
1.75886e-06
-5.30319e-07
1.7707e-06
4.11816e-07
1.76751e-06
2.50064e-07
1.75141e-06
-1.48209e-06
1.73698e-06
-6.64616e-07
1.73243e-06
-2.6233e-07
1.73415e-06
8.41105e-08
1.76575e-06
1.01921e-06
1.77759e-06
1.06255e-06
1.80211e-06
1.04134e-06
1.80011e-06
7.46601e-07
1.80275e-06
2.72517e-07
1.801e-06
2.33529e-07
1.78552e-06
-2.87697e-07
1.78476e-06
-1.00224e-07
1.76349e-06
-4.13503e-07
1.76085e-06
-2.06956e-07
1.7397e-06
-3.62314e-07
1.73426e-06
-1.64143e-07
-2.23762e-07
1.7187e-06
1.82597e-06
-5.23953e-07
1.83761e-06
4.00179e-07
1.83575e-06
2.51922e-07
1.81709e-06
-1.46344e-06
1.80434e-06
-6.51865e-07
1.8003e-06
-2.58283e-07
1.79794e-06
8.64694e-08
1.82935e-06
9.87805e-07
1.83998e-06
1.05192e-06
1.86508e-06
1.01623e-06
1.86512e-06
7.46567e-07
1.86743e-06
2.70204e-07
1.86784e-06
2.33114e-07
1.85098e-06
-2.70829e-07
1.85124e-06
-1.00491e-07
1.82948e-06
-3.91741e-07
1.82682e-06
-2.04292e-07
1.80597e-06
-3.41467e-07
1.8005e-06
-1.58672e-07
-2.08793e-07
1.78553e-06
1.89546e-06
-5.17513e-07
1.90709e-06
3.88551e-07
1.90634e-06
2.52668e-07
1.88546e-06
-1.44256e-06
1.87416e-06
-6.40566e-07
1.87087e-06
-2.54993e-07
1.86585e-06
9.14918e-08
1.89729e-06
9.56366e-07
1.90654e-06
1.04267e-06
1.93144e-06
9.91331e-07
1.93342e-06
7.44586e-07
1.9348e-06
2.68823e-07
1.93736e-06
2.3055e-07
1.91928e-06
-2.5275e-07
1.9203e-06
-1.01507e-07
1.8983e-06
-3.6974e-07
1.89539e-06
-2.01388e-07
1.87499e-06
-3.21066e-07
1.86941e-06
-1.53092e-07
-1.94439e-07
1.85506e-06
1.96738e-06
-5.10793e-07
1.97917e-06
3.76766e-07
1.97939e-06
2.52448e-07
1.95679e-06
-1.41996e-06
1.94635e-06
-6.30121e-07
1.94351e-06
-2.52153e-07
1.93671e-06
9.82838e-08
1.96822e-06
9.2486e-07
1.97646e-06
1.03443e-06
2.00075e-06
9.67035e-07
2.00489e-06
7.40451e-07
2.0049e-06
2.68809e-07
2.00956e-06
2.25892e-07
1.99056e-06
-2.33747e-07
1.992e-06
-1.02949e-07
1.97e-06
-3.47743e-07
1.96667e-06
-1.98049e-07
1.94683e-06
-3.01233e-07
1.94109e-06
-1.47348e-07
-1.80726e-07
1.92738e-06
2.04186e-06
-5.03599e-07
2.05394e-06
3.64685e-07
2.05501e-06
2.51372e-07
2.03118e-06
-1.39613e-06
2.02098e-06
-6.19917e-07
2.01815e-06
-2.49319e-07
2.00999e-06
1.06444e-07
2.0413e-06
8.93544e-07
2.04926e-06
1.02648e-06
2.07283e-06
9.43464e-07
2.07948e-06
7.33795e-07
2.07797e-06
2.70323e-07
2.08448e-06
2.19378e-07
2.06491e-06
-2.14171e-07
2.06643e-06
-1.04473e-07
2.04467e-06
-3.25978e-07
2.04073e-06
-1.94114e-07
2.02155e-06
-2.82053e-07
2.01563e-06
-1.41424e-07
-1.67653e-07
2.00255e-06
2.11902e-06
-4.95777e-07
2.13151e-06
3.52194e-07
2.13334e-06
2.49542e-07
2.10866e-06
-1.37145e-06
2.09824e-06
-6.09496e-07
2.0951e-06
-2.46184e-07
2.08577e-06
1.15772e-07
2.11644e-06
8.62879e-07
2.12494e-06
1.01797e-06
2.14774e-06
9.20665e-07
2.15717e-06
7.24373e-07
2.15422e-06
2.73267e-07
2.1622e-06
2.11397e-07
2.14242e-06
-1.94389e-07
2.14368e-06
-1.05734e-07
2.12234e-06
-3.0464e-07
2.1177e-06
-1.89471e-07
2.09924e-06
-2.63591e-07
2.09314e-06
-1.35327e-07
-1.55196e-07
2.08068e-06
2.19903e-06
-4.87224e-07
2.21202e-06
3.39209e-07
2.21452e-06
2.4704e-07
2.18923e-06
-1.34617e-06
2.17831e-06
-5.98572e-07
2.17476e-06
-2.4264e-07
2.16454e-06
1.25998e-07
2.19405e-06
8.33371e-07
2.20385e-06
1.00817e-06
2.22574e-06
8.98771e-07
2.2379e-06
7.12221e-07
2.23382e-06
2.77346e-07
2.24281e-06
2.02409e-07
2.22319e-06
-1.74769e-07
2.22387e-06
-1.06419e-07
2.20311e-06
-2.83875e-07
2.1977e-06
-1.84063e-07
2.17995e-06
-2.45845e-07
2.17374e-06
-1.29116e-07
-1.43324e-07
2.16187e-06
2.28206e-06
-4.77886e-07
2.29558e-06
3.25688e-07
2.29868e-06
2.43941e-07
2.27297e-06
-1.32046e-06
2.26137e-06
-5.86967e-07
2.25742e-06
-2.38695e-07
2.24674e-06
1.36684e-07
2.27464e-06
8.0547e-07
2.28632e-06
9.96486e-07
2.30709e-06
8.78006e-07
2.32175e-06
6.97553e-07
2.31689e-06
2.82209e-07
2.32639e-06
1.9291e-07
2.30728e-06
-1.55663e-07
2.30712e-06
-1.06253e-07
2.28703e-06
-2.63791e-07
2.28088e-06
-1.77906e-07
2.26373e-06
-2.28695e-07
2.25754e-06
-1.22929e-07
-1.3201e-07
2.24623e-06
2.36825e-06
-4.67755e-07
2.38231e-06
3.11632e-07
2.38593e-06
2.40323e-07
2.35997e-06
-1.2945e-06
2.34757e-06
-5.74573e-07
2.34323e-06
-2.34355e-07
2.33265e-06
1.47271e-07
2.35859e-06
7.79529e-07
2.37253e-06
9.82541e-07
2.39199e-06
8.58546e-07
2.40878e-06
6.80763e-07
2.40355e-06
2.87442e-07
2.41307e-06
1.83394e-07
2.39479e-06
-1.37389e-07
2.39357e-06
-1.05031e-07
2.37421e-06
-2.44428e-07
2.36727e-06
-1.70968e-07
2.3505e-06
-2.11928e-07
2.34466e-06
-1.17086e-07
-1.2121e-07
2.33386e-06
2.45779e-06
-4.56864e-07
2.47235e-06
2.97073e-07
2.47638e-06
2.36294e-07
2.45031e-06
-1.26844e-06
2.43708e-06
-5.61334e-07
2.43226e-06
-2.2954e-07
2.42235e-06
1.57177e-07
2.44607e-06
7.55812e-07
2.46248e-06
9.66131e-07
2.48064e-06
8.40388e-07
2.49906e-06
6.62348e-07
2.49386e-06
2.92632e-07
2.50296e-06
1.74298e-07
2.48576e-06
-1.20194e-07
2.48337e-06
-1.02634e-07
2.4648e-06
-2.25856e-07
2.45642e-06
-1.62592e-07
2.44005e-06
-1.95561e-07
2.43523e-06
-1.12265e-07
-1.10861e-07
2.42488e-06
2.55081e-06
-4.45279e-07
2.56583e-06
2.82055e-07
2.57012e-06
2.32008e-07
2.5441e-06
-1.24242e-06
2.53004e-06
-5.47273e-07
2.52455e-06
-2.24056e-07
2.51586e-06
1.65867e-07
2.53718e-06
7.34493e-07
2.55611e-06
9.47206e-07
2.57307e-06
8.23421e-07
2.59265e-06
6.4277e-07
2.58792e-06
2.97361e-07
2.59624e-06
1.6598e-07
2.58023e-06
-1.0418e-07
2.57663e-06
-9.90375e-08
2.559e-06
-2.08225e-07
2.55444e-06
-1.58032e-07
2.54098e-06
-1.821e-07
2.52942e-06
-1.00708e-07
-1.00879e-07
2.51944e-06
2.64749e-06
-4.33092e-07
2.66293e-06
2.66618e-07
2.66727e-06
2.27664e-07
2.64139e-06
-1.21653e-06
2.62662e-06
-5.32503e-07
2.6202e-06
-2.1764e-07
2.61315e-06
1.72916e-07
2.63201e-06
7.15636e-07
2.65332e-06
9.25893e-07
2.66938e-06
8.07365e-07
2.68961e-06
6.2254e-07
2.68584e-06
3.01129e-07
2.69304e-06
1.58783e-07
2.67828e-06
-8.94174e-08
2.674e-06
-9.47654e-08
2.6552e-06
-1.89421e-07
2.64548e-06
-1.48311e-07
2.63072e-06
-1.67345e-07
2.62711e-06
-9.70996e-08
-9.13077e-08
2.61754e-06
2.74798e-06
-4.20417e-07
2.76381e-06
2.50786e-07
2.76798e-06
2.23496e-07
2.74225e-06
-1.19081e-06
2.72697e-06
-5.17226e-07
2.71935e-06
-2.1002e-07
2.71424e-06
1.7803e-07
2.73072e-06
6.99149e-07
2.75408e-06
9.02537e-07
2.76972e-06
7.91727e-07
2.78999e-06
6.02269e-07
2.78787e-06
3.03251e-07
2.79333e-06
1.53321e-07
2.78023e-06
-7.63225e-08
2.77515e-06
-8.96844e-08
2.75589e-06
-1.70156e-07
2.74485e-06
-1.37274e-07
2.73044e-06
-1.52929e-07
2.72881e-06
-9.54714e-08
-8.19683e-08
2.71947e-06
2.85241e-06
-4.07368e-07
2.86864e-06
2.34561e-07
2.8724e-06
2.19734e-07
2.84675e-06
-1.16516e-06
2.83126e-06
-5.01737e-07
2.82217e-06
-2.00929e-07
2.81917e-06
1.81029e-07
2.83351e-06
6.84812e-07
2.8585e-06
8.77548e-07
2.87415e-06
7.76076e-07
2.89402e-06
5.82401e-07
2.8941e-06
3.03172e-07
2.89729e-06
1.50124e-07
2.88604e-06
-6.50664e-08
2.88148e-06
-8.51286e-08
2.86965e-06
-1.58329e-07
2.86364e-06
-1.31256e-07
2.85128e-06
-1.40577e-07
2.83477e-06
-7.89546e-08
-7.25232e-08
2.82532e-06
2.96093e-06
-3.94051e-07
2.97757e-06
2.17919e-07
2.98072e-06
2.1658e-07
2.95499e-06
-1.13942e-06
2.93961e-06
-4.86365e-07
2.92886e-06
-1.90173e-07
2.92807e-06
1.81822e-07
2.94054e-06
6.72333e-07
2.96677e-06
8.51319e-07
2.98275e-06
7.60101e-07
3.00199e-06
5.6316e-07
3.00431e-06
3.00847e-07
3.00547e-06
1.48964e-07
2.99568e-06
-5.52745e-08
2.98571e-06
-7.51538e-08
2.96922e-06
-1.41841e-07
2.95598e-06
-1.18012e-07
2.94186e-06
-1.26466e-07
2.94399e-06
-8.10844e-08
-6.35321e-08
2.935e-06
3.07365e-06
-3.80545e-07
3.09074e-06
2.00829e-07
3.09316e-06
2.14169e-07
3.06709e-06
-1.11336e-06
3.05217e-06
-4.71451e-07
3.03961e-06
-1.77612e-07
3.04105e-06
1.80389e-07
3.05203e-06
6.61348e-07
3.0791e-06
8.24248e-07
3.09562e-06
7.43578e-07
3.1142e-06
5.44588e-07
3.11813e-06
2.96916e-07
3.11857e-06
1.48519e-07
3.10966e-06
-4.63668e-08
3.10562e-06
-7.1106e-08
3.09706e-06
-1.33281e-07
3.09029e-06
-1.11249e-07
3.07806e-06
-1.14235e-07
3.05802e-06
-6.10387e-08
-5.47387e-08
3.04922e-06
3.19072e-06
-3.66902e-07
3.20828e-06
1.83264e-07
3.20992e-06
2.12535e-07
3.18321e-06
-1.08665e-06
3.16911e-06
-4.57352e-07
3.15463e-06
-1.63133e-07
3.15826e-06
1.76756e-07
3.16816e-06
6.51452e-07
3.19565e-06
7.96758e-07
3.2129e-06
7.26327e-07
3.23103e-06
5.26463e-07
3.23498e-06
2.92964e-07
3.2379e-06
1.45596e-07
3.22676e-06
-3.52247e-08
3.22279e-06
-6.7137e-08
3.19865e-06
-1.09143e-07
3.18543e-06
-9.80289e-08
3.17374e-06
-1.02539e-07
3.17472e-06
-6.20235e-08
-4.74753e-08
3.16746e-06
3.31225e-06
-3.53135e-07
3.33031e-06
1.65201e-07
3.3312e-06
2.11648e-07
3.30359e-06
-1.05904e-06
3.2905e-06
-4.44262e-07
3.27428e-06
-1.46917e-07
3.27972e-06
1.71316e-07
3.28933e-06
6.41848e-07
3.31628e-06
7.69803e-07
3.33538e-06
7.07225e-07
3.35179e-06
5.10062e-07
3.35737e-06
2.87376e-07
3.35954e-06
1.43433e-07
3.34252e-06
-1.82117e-08
3.33321e-06
-5.78225e-08
3.31889e-06
-9.48273e-08
3.30633e-06
-8.54647e-08
3.29453e-06
-9.07382e-08
3.29689e-06
-6.43819e-08
-4.07033e-08
3.29011e-06
3.43839e-06
-3.39238e-07
3.45693e-06
1.46654e-07
3.45721e-06
2.11366e-07
3.42843e-06
-1.03025e-06
3.41654e-06
-4.32381e-07
3.39878e-06
-1.29153e-07
3.40564e-06
1.6446e-07
3.41553e-06
6.31953e-07
3.44138e-06
7.43958e-07
3.46328e-06
6.85325e-07
3.47658e-06
4.96757e-07
3.48482e-06
2.79133e-07
3.48173e-06
1.46532e-07
3.48112e-06
-1.76082e-08
3.47613e-06
-5.2832e-08
3.46936e-06
-8.80591e-08
3.46305e-06
-7.91501e-08
3.45042e-06
-7.81077e-08
3.42535e-06
-3.93152e-08
-3.28788e-08
3.41753e-06
3.56929e-06
-3.25183e-07
3.58827e-06
1.27676e-07
3.5882e-06
2.11438e-07
3.55787e-06
-9.99923e-07
3.54754e-06
-4.22056e-07
3.52819e-06
-1.09798e-07
3.53637e-06
1.56275e-07
3.54651e-06
6.21814e-07
3.5719e-06
7.18569e-07
3.59398e-06
6.63244e-07
3.60902e-06
4.81716e-07
3.61351e-06
2.74645e-07
3.61508e-06
1.44957e-07
3.59889e-06
-1.41739e-09
3.58914e-06
-4.30797e-08
3.57372e-06
-7.26391e-08
3.56196e-06
-6.73857e-08
3.55211e-06
-6.82614e-08
3.55497e-06
-4.21776e-08
-2.72966e-08
3.54939e-06
3.70512e-06
-3.10916e-07
3.7245e-06
1.0829e-07
3.72424e-06
2.11697e-07
3.6923e-06
-9.67974e-07
3.68339e-06
-4.13147e-07
3.66303e-06
-8.94415e-08
3.67164e-06
1.47666e-07
3.68325e-06
6.10208e-07
3.70662e-06
6.95196e-07
3.731e-06
6.38865e-07
3.74498e-06
4.6773e-07
3.74998e-06
2.69647e-07
3.7543e-06
1.4064e-07
3.73425e-06
1.86348e-08
3.72373e-06
-3.25616e-08
3.70899e-06
-5.78956e-08
3.69676e-06
-5.51636e-08
3.68703e-06
-5.85281e-08
3.69169e-06
-4.68379e-08
-2.19033e-08
3.6863e-06
3.84608e-06
-2.96406e-07
3.86579e-06
8.85839e-08
3.86561e-06
2.11875e-07
3.83188e-06
-9.34248e-07
3.82435e-06
-4.05612e-07
3.80339e-06
-6.84817e-08
3.81174e-06
1.39311e-07
3.82567e-06
5.96279e-07
3.84599e-06
6.74879e-07
3.8741e-06
6.10756e-07
3.88188e-06
4.5995e-07
3.89092e-06
2.60603e-07
3.88597e-06
1.4559e-07
3.89371e-06
1.08901e-08
3.88922e-06
-2.80687e-08
3.88424e-06
-5.29174e-08
3.8786e-06
-4.95193e-08
3.86487e-06
-4.48e-08
3.83636e-06
-1.83283e-08
-1.36933e-08
3.82815e-06
3.99239e-06
-2.81641e-07
4.01227e-06
6.87075e-08
4.01256e-06
2.11578e-07
3.97664e-06
-8.98325e-07
3.97095e-06
-3.99927e-07
3.94904e-06
-4.65678e-08
3.95782e-06
1.30536e-07
3.97181e-06
5.8229e-07
3.99363e-06
6.53057e-07
4.01754e-06
5.86843e-07
4.03479e-06
4.42706e-07
4.04028e-06
2.55111e-07
4.04491e-06
1.40958e-07
4.02002e-06
3.57846e-08
4.00846e-06
-1.65154e-08
3.99407e-06
-3.85259e-08
3.98331e-06
-3.87637e-08
3.97544e-06
-3.69231e-08
3.97975e-06
-2.26419e-08
-9.52884e-09
3.97559e-06
4.14423e-06
-2.66588e-07
4.16424e-06
4.86956e-08
4.16511e-06
2.10712e-07
4.12718e-06
-8.60399e-07
4.1227e-06
-3.95441e-07
4.10095e-06
-2.48226e-08
4.10864e-06
1.22843e-07
4.12463e-06
5.66301e-07
4.14545e-06
6.32241e-07
4.16846e-06
5.63836e-07
4.187e-06
4.24157e-07
4.17986e-06
2.62257e-07
4.17974e-06
1.41075e-07
4.16928e-06
4.62478e-08
4.15919e-06
-6.43031e-09
4.14516e-06
-2.4489e-08
4.13419e-06
-2.77942e-08
4.12631e-06
-2.90466e-08
4.13245e-06
-2.87776e-08
-5.3666e-09
4.12828e-06
4.30186e-06
-2.51261e-07
4.3219e-06
2.86555e-08
4.32356e-06
2.09054e-07
4.28368e-06
-8.20519e-07
4.2799e-06
-3.91661e-07
4.25922e-06
-4.14821e-09
4.26423e-06
1.17835e-07
4.28442e-06
5.46113e-07
4.30099e-06
6.1567e-07
4.32807e-06
5.36759e-07
4.33559e-06
4.1663e-07
4.35426e-06
2.43589e-07
4.3568e-06
1.3854e-07
4.35573e-06
4.73126e-08
4.35009e-06
-7.87074e-10
4.34783e-06
-2.22272e-08
4.34298e-06
-2.29503e-08
4.32716e-06
-1.32259e-08
4.29617e-06
2.2162e-09
4.5021e-09
4.2863e-06
4.46556e-06
-2.35731e-07
4.48535e-06
8.85866e-09
4.48834e-06
2.06064e-07
4.44591e-06
-7.78086e-07
4.44362e-06
-3.89369e-07
4.42293e-06
1.65437e-08
4.42811e-06
1.12652e-07
4.44633e-06
5.27891e-07
4.46766e-06
5.94339e-07
4.48625e-06
5.18168e-07
4.50932e-06
3.93564e-07
4.49945e-06
2.53463e-07
4.49935e-06
1.38634e-07
4.48694e-06
5.97245e-08
4.47813e-06
8.02594e-09
4.46434e-06
-8.4408e-09
4.45554e-06
-1.41495e-08
4.44958e-06
-7.26706e-09
4.45391e-06
-2.10932e-09
7.40248e-09
4.45101e-06
4.63546e-06
-2.19985e-07
4.65506e-06
-1.07366e-08
4.65922e-06
2.019e-07
4.61499e-06
-7.33858e-07
4.61265e-06
-3.87026e-07
4.59418e-06
3.50124e-08
4.5956e-06
1.11231e-07
4.61777e-06
5.05724e-07
4.63649e-06
5.75614e-07
4.65269e-06
5.01967e-07
4.6684e-06
3.7786e-07
4.66734e-06
2.54518e-07
4.66902e-06
1.36955e-07
4.655e-06
7.37441e-08
4.64713e-06
1.59049e-08
4.63393e-06
4.75786e-09
4.62448e-06
-4.69967e-09
4.61886e-06
-1.65136e-09
4.62481e-06
-8.05453e-09
1.08262e-08
4.62138e-06
4.8119e-06
-2.041e-07
4.83114e-06
-2.99698e-08
4.83661e-06
1.9643e-07
4.79105e-06
-6.88302e-07
4.78751e-06
-3.83488e-07
4.77307e-06
4.94551e-08
4.76763e-06
1.16671e-07
4.79832e-06
4.7503e-07
4.80684e-06
5.67094e-07
4.83883e-06
4.69983e-07
4.84001e-06
3.76674e-07
4.85567e-06
2.38861e-07
4.85348e-06
1.39144e-07
4.86772e-06
5.94993e-08
4.86605e-06
1.75804e-08
4.86721e-06
3.5963e-09
4.86057e-06
1.94223e-09
4.84454e-06
1.43812e-08
4.81055e-06
2.59265e-08
2.42799e-08
4.7971e-06
4.99518e-06
-1.88213e-07
5.01368e-06
-4.84697e-08
5.02111e-06
1.89e-07
4.97327e-06
-6.40456e-07
4.97048e-06
-3.80699e-07
4.95608e-06
6.3852e-08
4.95282e-06
1.19933e-07
4.97772e-06
4.50126e-07
4.99246e-06
5.52353e-07
5.01064e-06
4.5181e-07
5.02325e-06
3.64067e-07
5.02338e-06
2.38725e-07
5.02271e-06
1.39812e-07
5.01258e-06
6.96368e-08
5.00396e-06
2.61965e-08
4.9945e-06
1.30553e-08
4.98328e-06
1.31662e-08
4.98032e-06
1.73407e-08
4.98492e-06
2.13204e-08
2.74221e-08
4.98178e-06
5.18539e-06
-1.72295e-07
5.20329e-06
-6.63676e-08
5.21214e-06
1.80154e-07
5.16334e-06
-5.91659e-07
5.15955e-06
-3.76902e-07
5.14696e-06
7.64385e-08
5.1442e-06
1.22689e-07
5.16418e-06
4.30151e-07
5.18641e-06
5.30118e-07
5.19651e-06
4.41709e-07
5.21317e-06
3.4741e-07
5.2107e-06
2.41194e-07
5.21097e-06
1.39542e-07
5.20082e-06
7.97912e-08
5.19431e-06
3.26989e-08
5.18418e-06
2.31872e-08
5.18027e-06
1.70809e-08
5.17519e-06
2.24227e-08
5.17375e-06
2.27597e-08
2.85811e-08
5.17259e-06
5.38296e-06
-1.56475e-07
5.4e-06
-8.34141e-08
5.41024e-06
1.6992e-07
5.36128e-06
-5.42705e-07
5.35516e-06
-3.70779e-07
5.34598e-06
8.56203e-08
5.34017e-06
1.28496e-07
5.36153e-06
4.08791e-07
5.37995e-06
5.11697e-07
5.39328e-06
4.28377e-07
5.40606e-06
3.34636e-07
5.40691e-06
2.40346e-07
5.40515e-06
1.41303e-07
5.39791e-06
8.70236e-08
5.39066e-06
3.99471e-08
5.38311e-06
3.07384e-08
5.37873e-06
2.14691e-08
5.37522e-06
2.59286e-08
5.37137e-06
2.6607e-08
2.95108e-08
5.37044e-06
5.5881e-06
-1.40842e-07
5.6041e-06
-9.94056e-08
5.61576e-06
1.58261e-07
5.5668e-06
-4.93749e-07
5.55862e-06
-3.62598e-07
5.55197e-06
9.2266e-08
5.54458e-06
1.35892e-07
5.56553e-06
3.87837e-07
5.58293e-06
4.943e-07
5.59664e-06
4.14667e-07
5.60802e-06
3.23251e-07
5.61029e-06
2.38081e-07
5.60769e-06
1.43903e-07
5.60221e-06
9.25044e-08
5.59469e-06
4.7466e-08
5.58866e-06
3.67679e-08
5.58253e-06
2.75968e-08
5.57819e-06
3.02676e-08
5.57623e-06
2.85722e-08
3.01532e-08
5.57559e-06
5.80109e-06
-1.25453e-07
5.81599e-06
-1.14299e-07
5.82863e-06
1.4562e-07
5.78079e-06
-4.45912e-07
5.76969e-06
-3.51497e-07
5.76573e-06
9.6223e-08
5.75676e-06
1.44861e-07
5.77718e-06
3.67419e-07
5.79416e-06
4.77316e-07
5.8077e-06
4.01128e-07
5.81789e-06
3.13067e-07
5.82115e-06
2.34819e-07
5.81866e-06
1.46393e-07
5.81401e-06
9.71521e-08
5.80674e-06
5.47411e-08
5.80146e-06
4.20469e-08
5.79665e-06
3.24033e-08
5.7937e-06
3.32237e-08
5.78972e-06
3.2544e-08
3.12262e-08
5.78865e-06
6.02226e-06
-1.1041e-07
6.03587e-06
-1.27914e-07
6.0494e-06
1.32091e-07
6.00314e-06
-3.99653e-07
5.98899e-06
-3.37347e-07
5.98726e-06
9.79551e-08
5.97742e-06
1.54701e-07
5.99665e-06
3.48183e-07
6.01378e-06
4.60185e-07
6.02667e-06
3.88241e-07
6.03626e-06
3.03473e-07
6.04023e-06
2.30854e-07
6.03801e-06
1.48613e-07
6.03352e-06
1.01636e-07
6.02704e-06
6.1226e-08
6.02204e-06
4.70494e-08
6.01589e-06
3.85535e-08
6.0112e-06
3.79127e-08
6.01099e-06
3.27553e-08
3.26633e-08
6.00955e-06
6.25188e-06
-9.57858e-08
6.2641e-06
-1.40133e-07
6.27836e-06
1.17831e-07
6.23392e-06
-3.55213e-07
6.21705e-06
-3.20477e-07
6.21689e-06
9.811e-08
6.20682e-06
1.64768e-07
6.22424e-06
3.30771e-07
6.24196e-06
4.42465e-07
6.25422e-06
3.75974e-07
6.26342e-06
2.94274e-07
6.26755e-06
2.26722e-07
6.26556e-06
1.50612e-07
6.26138e-06
1.05809e-07
6.25572e-06
6.68914e-08
6.25117e-06
5.15953e-08
6.24716e-06
4.25651e-08
6.24539e-06
3.96787e-08
6.24068e-06
3.7471e-08
3.46619e-08
6.23868e-06
6.49031e-06
-8.16928e-08
6.50093e-06
-1.50754e-07
6.51585e-06
1.0291e-07
6.47342e-06
-3.1278e-07
6.45431e-06
-3.01363e-07
6.45483e-06
9.75887e-08
6.44536e-06
1.74236e-07
6.46059e-06
3.1554e-07
6.47885e-06
4.24205e-07
6.49064e-06
3.64186e-07
6.49944e-06
2.85471e-07
6.5033e-06
2.22862e-07
6.50204e-06
1.51873e-07
6.49845e-06
1.09401e-07
6.49317e-06
7.21676e-08
6.48835e-06
5.64152e-08
6.48316e-06
4.77634e-08
6.47946e-06
4.33768e-08
6.4785e-06
3.84305e-08
3.58614e-08
6.4773e-06
6.73785e-06
-6.81997e-08
6.74673e-06
-1.59637e-07
6.76225e-06
8.73902e-08
6.72194e-06
-2.72475e-07
6.7009e-06
-2.80319e-07
6.70193e-06
9.65585e-08
6.6932e-06
1.82967e-07
6.70616e-06
3.02574e-07
6.72471e-06
4.05655e-07
6.73612e-06
3.52779e-07
6.74461e-06
2.76979e-07
6.74837e-06
2.19099e-07
6.74774e-06
1.52512e-07
6.74438e-06
1.12761e-07
6.73914e-06
7.74067e-08
6.73506e-06
6.04911e-08
6.73241e-06
5.04179e-08
6.73028e-06
4.55033e-08
6.72608e-06
4.26305e-08
3.75308e-08
6.72441e-06
6.99488e-06
-5.54284e-08
7.00177e-06
-1.66532e-07
7.01785e-06
7.13132e-08
6.97989e-06
-2.34517e-07
6.95728e-06
-2.57707e-07
6.9584e-06
9.5443e-08
6.95053e-06
1.9083e-07
6.96151e-06
2.916e-07
6.97995e-06
3.87214e-07
6.99113e-06
3.41594e-07
6.99927e-06
2.68841e-07
7.00276e-06
2.1561e-07
7.00261e-06
1.52663e-07
6.99979e-06
1.15579e-07
6.995e-06
8.22009e-08
6.99133e-06
6.41613e-08
6.987e-06
5.47476e-08
6.98354e-06
4.8961e-08
6.98272e-06
4.34522e-08
3.90513e-08
6.9812e-06
7.26171e-06
-4.34477e-08
7.26636e-06
-1.71178e-07
7.28311e-06
5.45538e-08
7.2476e-06
-1.99004e-07
7.22507e-06
-2.3518e-07
7.22491e-06
9.56121e-08
7.21781e-06
1.97922e-07
7.22692e-06
2.82494e-07
7.24481e-06
3.69322e-07
7.25578e-06
3.30627e-07
7.26378e-06
2.60841e-07
7.26724e-06
2.12153e-07
7.26735e-06
1.52552e-07
7.26512e-06
1.17808e-07
7.26051e-06
8.68112e-08
7.25715e-06
6.75163e-08
7.25454e-06
5.73546e-08
7.25294e-06
5.05684e-08
7.24928e-06
4.71076e-08
4.08168e-08
7.24752e-06
7.53874e-06
-3.23545e-08
7.54092e-06
-1.73363e-07
7.55817e-06
3.73041e-08
7.52567e-06
-1.66503e-07
7.50411e-06
-2.13624e-07
7.50077e-06
9.89566e-08
7.49534e-06
2.03353e-07
7.50283e-06
2.75006e-07
7.51982e-06
3.52331e-07
7.53066e-06
3.19789e-07
7.53859e-06
2.52911e-07
7.54188e-06
2.0886e-07
7.54192e-06
1.52514e-07
7.54052e-06
1.19207e-07
7.53636e-06
9.09726e-08
7.53304e-06
7.08366e-08
7.52937e-06
6.10185e-08
7.52669e-06
5.32496e-08
7.52594e-06
4.78566e-08
4.23401e-08
7.52442e-06
7.82628e-06
-2.21818e-08
7.82623e-06
-1.73309e-07
7.84335e-06
2.01859e-08
7.81441e-06
-1.37567e-07
7.78465e-06
-1.8386e-07
7.78567e-06
9.79316e-08
7.78383e-06
2.05198e-07
7.78959e-06
2.69244e-07
7.80545e-06
3.36467e-07
7.81608e-06
3.09166e-07
7.82389e-06
2.451e-07
7.82731e-06
2.05437e-07
7.82715e-06
1.52677e-07
7.8264e-06
1.19953e-07
7.82272e-06
9.46546e-08
7.81957e-06
7.39816e-08
7.81753e-06
6.30628e-08
7.81597e-06
5.4806e-08
7.81319e-06
5.06396e-08
4.41632e-08
7.81137e-06
8.12481e-06
-1.30318e-08
8.12212e-06
-1.70617e-07
8.13895e-06
3.3511e-09
8.11521e-06
-1.13821e-07
8.09266e-06
-1.61315e-07
8.09801e-06
9.25856e-08
8.08536e-06
2.1785e-07
8.08704e-06
2.67565e-07
8.10203e-06
3.21473e-07
8.11242e-06
2.98778e-07
8.12006e-06
2.37464e-07
8.12377e-06
2.01727e-07
8.12334e-06
1.53104e-07
8.12319e-06
1.20102e-07
8.12025e-06
9.75894e-08
8.11708e-06
7.71562e-08
8.11418e-06
6.59635e-08
8.1117e-06
5.72899e-08
8.11131e-06
5.10212e-08
4.56436e-08
8.10983e-06
8.43468e-06
-4.948e-09
8.42824e-06
-1.64176e-07
8.44672e-06
-1.51293e-08
8.42473e-06
-9.18395e-08
8.39869e-06
-1.35266e-07
8.39296e-06
9.83101e-08
8.39228e-06
2.18536e-07
8.39645e-06
2.63389e-07
8.41046e-06
3.07463e-07
8.4203e-06
2.88935e-07
8.42762e-06
2.30147e-07
8.43183e-06
1.97514e-07
8.43119e-06
1.53752e-07
8.43104e-06
1.20252e-07
8.42881e-06
9.98191e-08
8.42584e-06
8.01237e-08
8.42399e-06
6.78108e-08
8.42255e-06
5.87361e-08
8.4206e-06
5.29657e-08
4.70551e-08
8.41919e-06
8.75627e-06
2.06428e-09
8.74693e-06