/*--------------------------------*- C++ -*----------------------------------*\
| =========                 |                                                 |
| \\      /  F ield         | OpenFOAM: The Open Source CFD Toolbox           |
|  \\    /   O peration     | Version:  v2012                                 |
|   \\  /    A nd           | Website:  www.openfoam.com                      |
|    \\/     M anipulation  |                                                 |
\*---------------------------------------------------------------------------*/
FoamFile
{
    version     2.0;
    format      ascii;
    class       volVectorField;
    location    "8.4";
    object      U;
}
// * * * * * * * * * * * * * * * * * * * * * * * * * * * * * * * * * * * * * //

dimensions      [0 1 -1 0 0 0 0];


internalField   nonuniform List<vector> 
7000
(
(0.998054 -0.00540887 0)
(0.970797 0.00412397 0)
(0.99263 0.00141526 0)
(0.995475 -0.0181072 0)
(0.98026 -0.00515987 0)
(1.05478 -0.000256615 0)
(0.998376 0.00349336 0)
(1.04806 0.0251597 0)
(1.03997 0.0237113 0)
(1.03823 0.0295913 0)
(1.04464 0.0162352 0)
(1.02783 0.0083644 0)
(1.04036 0.00345607 0)
(1.02241 -0.0168867 0)
(1.01692 -0.0101264 0)
(1.01964 -0.0321612 0)
(0.966477 -0.0193198 0)
(1.03178 -0.0417926 0)
(0.886925 -0.0238288 0)
(1.04698 -0.0447609 0)
(1.00045 -0.00528334 0)
(0.970894 0.00415265 0)
(0.993083 0.00127992 0)
(0.992982 -0.0180251 0)
(0.982479 -0.00561363 0)
(1.05282 -0.000396507 0)
(1.00048 0.00357663 0)
(1.04658 0.0249 0)
(1.04264 0.023805 0)
(1.03626 0.0294795 0)
(1.04661 0.0164413 0)
(1.02603 0.00830991 0)
(1.04314 0.00364568 0)
(1.01636 -0.0165618 0)
(1.03209 -0.0100236 0)
(0.996768 -0.0310405 0)
(1.01097 -0.0195754 0)
(0.980926 -0.039737 0)
(0.965978 -0.0233743 0)
(0.975378 -0.0433138 0)
(1.00416 -0.0051539 0)
(0.971043 0.00417486 0)
(0.993615 0.00116933 0)
(0.988346 -0.0179689 0)
(0.986578 -0.00605788 0)
(1.04823 -0.00049907 0)
(1.0062 0.00365588 0)
(1.04246 0.0244418 0)
(1.04628 0.0239748 0)
(1.03639 0.0293675 0)
(1.04466 0.0166665 0)
(1.02987 0.00826781 0)
(1.03765 0.00394084 0)
(1.02459 -0.0165102 0)
(1.02508 -0.00935651 0)
(1.00905 -0.0309021 0)
(1.00834 -0.018825 0)
(0.987519 -0.0387962 0)
(0.982463 -0.02339 0)
(0.96634 -0.0403535 0)
(1.00822 -0.0050477 0)
(0.97134 0.004208 0)
(0.993922 0.00109737 0)
(0.982008 -0.0179457 0)
(0.99153 -0.00647113 0)
(1.04144 -0.000635943 0)
(1.01503 0.00371208 0)
(1.03684 0.0239894 0)
(1.04737 0.0240903 0)
(1.03853 0.0293328 0)
(1.04312 0.0168369 0)
(1.03203 0.0082913 0)
(1.03728 0.00411065 0)
(1.02615 -0.0163213 0)
(1.02554 -0.00893226 0)
(1.01045 -0.0306175 0)
(1.00793 -0.0178074 0)
(0.98877 -0.0384882 0)
(0.984026 -0.0219648 0)
(0.964893 -0.0385468 0)
(1.01179 -0.00495763 0)
(0.971991 0.0042638 0)
(0.994091 0.00106449 0)
(0.975074 -0.0179576 0)
(0.995832 -0.00687972 0)
(1.03399 -0.000838553 0)
(1.02447 0.00377209 0)
(1.03215 0.0236516 0)
(1.04505 0.0241053 0)
(1.0406 0.0293083 0)
(1.04321 0.0170255 0)
(1.0337 0.00828875 0)
(1.03778 0.00430302 0)
(1.0284 -0.0161398 0)
(1.02497 -0.00854304 0)
(1.01377 -0.0301842 0)
(1.00649 -0.0170818 0)
(0.993022 -0.0379029 0)
(0.983059 -0.020601 0)
(0.96918 -0.0371131 0)
(1.01421 -0.00488013 0)
(0.97321 0.00433693 0)
(0.99463 0.00107483 0)
(0.968716 -0.0179949 0)
(0.998392 -0.00729242 0)
(1.0272 -0.00110757 0)
(1.03204 0.00382479 0)
(1.02977 0.0234342 0)
(1.04147 0.0240598 0)
(1.0414 0.0292233 0)
(1.04461 0.0172293 0)
(1.035 0.00827129 0)
(1.03901 0.00451188 0)
(1.02935 -0.0159536 0)
(1.02538 -0.0081098 0)
(1.01492 -0.0297685 0)
(1.00623 -0.0163554 0)
(0.995269 -0.0372051 0)
(0.982539 -0.0194114 0)
(0.97252 -0.0357116 0)
(1.01514 -0.00481413 0)
(0.97512 0.00441623 0)
(0.996212 0.00113217 0)
(0.963743 -0.0180397 0)
(0.999139 -0.00771358 0)
(1.02124 -0.00143476 0)
(1.03671 0.00384113 0)
(1.02938 0.0233011 0)
(1.03904 0.0240028 0)
(1.04149 0.0290552 0)
(1.04647 0.0174337 0)
(1.03624 0.00825147 0)
(1.04006 0.00474528 0)
(1.02984 -0.0157355 0)
(1.02558 -0.00768029 0)
(1.0154 -0.0293005 0)
(1.00635 -0.015662 0)
(0.996557 -0.036404 0)
(0.982945 -0.0183632 0)
(0.974855 -0.0342561 0)
(1.0146 -0.00475769 0)
(0.977654 0.00448764 0)
(0.999256 0.00123338 0)
(0.960538 -0.0180726 0)
(0.998835 -0.00813592 0)
(1.01536 -0.00181097 0)
(1.03863 0.00380547 0)
(1.02984 0.0232067 0)
(1.03857 0.0239539 0)
(1.04172 0.0288204 0)
(1.04821 0.0176399 0)
(1.03732 0.00823746 0)
(1.04061 0.00501765 0)
(1.02985 -0.0154996 0)
(1.02533 -0.00723662 0)
(1.01539 -0.0287991 0)
(1.00634 -0.0150078 0)
(0.99721 -0.0355126 0)
(0.983711 -0.0174262 0)
(0.976471 -0.0327507 0)
(1.01302 -0.00470802 0)
(0.980522 0.00453503 0)
(1.00361 0.00137351 0)
(0.959218 -0.0180771 0)
(0.998446 -0.00854044 0)
(1.00875 -0.00222147 0)
(1.03831 0.00371019 0)
(1.03008 0.0231064 0)
(1.03942 0.0239113 0)
(1.04229 0.0285474 0)
(1.04948 0.0178581 0)
(1.03799 0.00823823 0)
(1.04055 0.00532949 0)
(1.02939 -0.0152364 0)
(1.02456 -0.00678847 0)
(1.015 -0.0282567 0)
(1.00599 -0.0144038 0)
(0.997437 -0.0345365 0)
(0.984386 -0.0165836 0)
(0.977625 -0.0312188 0)
(1.01095 -0.00466229 0)
(0.9833 0.00454513 0)
(1.00853 0.00154518 0)
(0.959765 -0.0180447 0)
(0.998631 -0.00890039 0)
(1.00109 -0.00264552 0)
(1.03599 0.0035452 0)
(1.02941 0.0229641 0)
(1.04051 0.0238657 0)
(1.04281 0.0282565 0)
(1.04999 0.0180999 0)
(1.03799 0.00825658 0)
(1.03981 0.0056793 0)
(1.02848 -0.0149435 0)
(1.02328 -0.0063478 0)
(1.01432 -0.0276661 0)
(1.00528 -0.0138605 0)
(0.997331 -0.0334802 0)
(0.984851 -0.0158277 0)
(0.978456 -0.0296824 0)
(1.00891 -0.00461785 0)
(0.985611 0.00451253 0)
(1.01299 0.00173368 0)
(0.962044 -0.0179766 0)
(0.999554 -0.0091864 0)
(0.992644 -0.00305583 0)
(1.03157 0.00330364 0)
(1.02736 0.0227551 0)
(1.04087 0.0238061 0)
(1.0427 0.0279577 0)
(1.04947 0.0183718 0)
(1.03718 0.00829227 0)
(1.03836 0.00605582 0)
(1.02721 -0.0146196 0)
(1.0216 -0.00592891 0)
(1.0134 -0.0270192 0)
(1.00433 -0.013385 0)
(0.996926 -0.0323507 0)
(0.985117 -0.0151552 0)
(0.978995 -0.0281602 0)
(1.00719 -0.0045724 0)
(0.987306 0.00444086 0)
(1.01609 0.00192216 0)
(0.965762 -0.0178821 0)
(1.00092 -0.00937302 0)
(0.984132 -0.00341845 0)
(1.02498 0.00299162 0)
(1.0236 0.0224632 0)
(1.03973 0.0237216 0)
(1.0414 0.0276513 0)
(1.04769 0.0186727 0)
(1.03553 0.00833942 0)
(1.03624 0.00644739 0)
(1.02571 -0.0142633 0)
(1.01966 -0.00554588 0)
(1.01229 -0.0263103 0)
(1.00326 -0.0129798 0)
(0.996276 -0.0311557 0)
(0.985237 -0.0145565 0)
(0.979286 -0.0266643 0)
(1.00582 -0.00452437 0)
(0.988512 0.00434047 0)
(1.0174 0.00209466 0)
(0.97046 -0.017774 0)
(1.00211 -0.00944663 0)
(0.976637 -0.00370236 0)
(1.01651 0.0026311 0)
(1.01794 0.0220802 0)
(1.03656 0.0236029 0)
(1.03854 0.0273296 0)
(1.04459 0.0189896 0)
(1.03317 0.00838869 0)
(1.0336 0.00683071 0)
(1.02409 -0.0138759 0)
(1.01764 -0.00520989 0)
(1.01106 -0.0255357 0)
(1.00218 -0.0126435 0)
(0.995459 -0.0299071 0)
(0.985274 -0.014017 0)
(0.979395 -0.0252016 0)
(1.00469 -0.00447336 0)
(0.989521 0.0042245 0)
(1.01704 0.00223906 0)
(0.975577 -0.017662 0)
(1.00246 -0.00941175 0)
(0.971312 -0.0038878 0)
(1.00708 0.00225793 0)
(1.01066 0.02161 0)
(1.03125 0.0234432 0)
(1.03409 0.0269782 0)
(1.04036 0.0192996 0)
(1.0303 0.00842505 0)
(1.0307 0.0071841 0)
(1.02245 -0.0134575 0)
(1.0157 -0.0049293 0)
(1.00976 -0.0246934 0)
(1.00121 -0.0123681 0)
(0.994567 -0.0286211 0)
(0.985278 -0.0135231 0)
(0.979406 -0.0237751 0)
(1.00367 -0.00442011 0)
(0.990599 0.00410405 0)
(1.01551 0.00235275 0)
(0.980578 -0.0175485 0)
(1.00154 -0.00928689 0)
(0.968951 -0.0039729 0)
(0.998045 0.00191609 0)
(1.00264 0.0210705 0)
(1.02438 0.023242 0)
(1.02849 0.0265792 0)
(1.03548 0.019576 0)
(1.02726 0.00843301 0)
(1.02784 0.00749115 0)
(1.02083 -0.0130057 0)
(1.01397 -0.00471046 0)
(1.00846 -0.0237863 0)
(1.00038 -0.0121394 0)
(0.993701 -0.0273123 0)
(0.985287 -0.0130667 0)
(0.979412 -0.0223871 0)
(1.00275 -0.00436606 0)
(0.991836 0.0039861 0)
(1.01346 0.00243692 0)
(0.985063 -0.0174273 0)
(0.999353 -0.0091035 0)
(0.969605 -0.00397711 0)
(0.990677 0.00164618 0)
(0.995258 0.0204894 0)
(1.01715 0.0230052 0)
(1.02258 0.0261205 0)
(1.03061 0.0197957 0)
(1.02434 0.00840558 0)
(1.02525 0.0077292 0)
(1.01929 -0.0125148 0)
(1.01252 -0.00455591 0)
(1.00722 -0.0228262 0)
(0.999715 -0.0119437 0)
(0.992955 -0.0259882 0)
(0.985317 -0.0126402 0)
(0.979491 -0.0210406 0)
(1.00195 -0.00431262 0)
(0.99313 0.00387323 0)
(1.01143 0.00249458 0)
(0.988822 -0.0172877 0)
(0.996331 -0.00890082 0)
(0.97253 -0.00393216 0)
(0.985658 0.00147227 0)
(0.989784 0.019893 0)
(1.0109 0.0227487 0)
(1.01726 0.0255986 0)
(1.02632 0.0199486 0)
(1.02176 0.0083448 0)
(1.02306 0.00789756 0)
(1.01786 -0.011972 0)
(1.01133 -0.00445817 0)
(1.00612 -0.0218271 0)
(0.999187 -0.011775 0)
(0.992392 -0.0246552 0)
(0.985377 -0.0122286 0)
(0.979692 -0.0197368 0)
(1.00135 -0.00426053 0)
(0.994287 0.00376472 0)
(1.00974 0.00253341 0)
(0.991817 -0.0171207 0)
(0.993112 -0.00870683 0)
(0.976525 -0.00386735 0)
(0.982872 0.00139529 0)
(0.986726 0.0192979 0)
(1.00648 0.0224934 0)
(1.01306 0.0250269 0)
(1.02292 0.0200348 0)
(1.01958 0.00826481 0)
(1.02128 0.00798837 0)
(1.01655 -0.0113787 0)
(1.01035 -0.00440855 0)
(1.0052 -0.020791 0)
(0.998762 -0.01163 0)
(0.99204 -0.0233334 0)
(0.98547 -0.0118178 0)
(0.980025 -0.0184721 0)
(1.001 -0.00420965 0)
(0.995135 0.00365915 0)
(1.00846 0.00255768 0)
(0.99411 -0.016922 0)
(0.990284 -0.00853238 0)
(0.980441 -0.00380508 0)
(0.981647 0.00139903 0)
(0.985665 0.0187072 0)
(1.00389 0.0222592 0)
(1.01001 0.0244289 0)
(1.02034 0.0200628 0)
(1.01777 0.0081922 0)
(1.01982 0.00799597 0)
(1.01539 -0.0107427 0)
(1.00954 -0.00440789 0)
(1.00448 -0.0197168 0)
(0.998415 -0.0114852 0)
(0.991885 -0.0220492 0)
(0.985606 -0.0114163 0)
(0.980472 -0.0172462 0)
(1.00087 -0.00415885 0)
(0.995603 0.00355464 0)
(1.00755 0.0025701 0)
(0.995813 -0.0166938 0)
(0.988184 -0.00837783 0)
(0.983556 -0.003755 0)
(0.98121 0.00146127 0)
(0.985617 0.0181173 0)
(1.00252 0.0220543 0)
(1.00776 0.0238281 0)
(1.01837 0.0200382 0)
(1.01624 0.00814467 0)
(1.01858 0.00793284 0)
(1.01438 -0.0100569 0)
(1.00885 -0.00445602 0)
(1.00394 -0.0186318 0)
(0.998133 -0.0113042 0)
(0.991883 -0.0207905 0)
(0.985798 -0.0110409 0)
(0.981 -0.0160745 0)
(1.00091 -0.00410661 0)
(0.995721 0.00344961 0)
(1.00692 0.00257227 0)
(0.997043 -0.016442 0)
(0.986868 -0.00823799 0)
(0.98565 -0.00371304 0)
(0.981035 0.00156191 0)
(0.985656 0.0175274 0)
(1.0016 0.0218752 0)
(1.00593 0.02324 0)
(1.01673 0.0199566 0)
(1.01491 0.00812979 0)
(1.01749 0.00779843 0)
(1.01351 -0.00931948 0)
(1.00827 -0.004528 0)
(1.00354 -0.0175766 0)
(0.997924 -0.0110943 0)
(0.991977 -0.0195225 0)
(0.986056 -0.010664 0)
(0.981576 -0.0149662 0)
(1.00105 -0.00405131 0)
(0.995584 0.00334268 0)
(1.00646 0.00256527 0)
(0.997918 -0.0161736 0)
(0.986193 -0.00810488 0)
(0.98686 -0.00367267 0)
(0.980927 0.00168915 0)
(0.985313 0.0169382 0)
(1.00064 0.0217123 0)
(1.00431 0.0226669 0)
(1.01528 0.0198115 0)
(1.01377 0.00816258 0)
(1.01652 0.00759285 0)
(1.01277 -0.00855978 0)
(1.00778 -0.00458815 0)
(1.00323 -0.0165466 0)
(0.9978 -0.0108908 0)
(0.992127 -0.0182776 0)
(0.986382 -0.0102455 0)
(0.982173 -0.0138998 0)
(1.00124 -0.00399151 0)
(0.995303 0.00323243 0)
(1.00611 0.00255009 0)
(0.998551 -0.0158941 0)
(0.985953 -0.00797139 0)
(0.98746 -0.00362968 0)
(0.980911 0.00183908 0)
(0.984601 0.0163544 0)
(0.999519 0.0215475 0)
(1.00292 0.022113 0)
(1.01396 0.01959 0)
(1.01279 0.00824017 0)
(1.01566 0.00733366 0)
(1.01213 -0.00780665 0)
(1.00739 -0.0046346 0)
(1.00297 -0.0155115 0)
(0.997764 -0.010671 0)
(0.992314 -0.0171056 0)
(0.986775 -0.0098146 0)
(0.982779 -0.0128691 0)
(1.00141 -0.00392617 0)
(0.994973 0.00311786 0)
(1.00581 0.00252778 0)
(0.999038 -0.0156072 0)
(0.985969 -0.00783198 0)
(0.987697 -0.00358299 0)
(0.981064 0.00200687 0)
(0.983775 0.0157878 0)
(0.998333 0.0213607 0)
(1.00183 0.0215896 0)
(1.0128 0.019282 0)
(1.01198 0.00835239 0)
(1.01491 0.00704283 0)
(1.01156 -0.00704647 0)
(1.0071 -0.00466742 0)
(1.00275 -0.014484 0)
(0.997808 -0.0103987 0)
(0.992526 -0.0159838 0)
(0.987229 -0.0093862 0)
(0.983397 -0.0118969 0)
(1.00155 -0.00385468 0)
(0.994663 0.00299837 0)
(1.00549 0.00249941 0)
(0.999449 -0.0153155 0)
(0.986126 -0.00768405 0)
(0.987731 -0.00352941 0)
(0.981416 0.0021824 0)
(0.983087 0.015249 0)
(0.997222 0.021136 0)
(1.0011 0.0210976 0)
(1.01179 0.018914 0)
(1.0113 0.00849523 0)
(1.01427 0.00671039 0)
(1.01105 -0.00629338 0)
(1.00689 -0.00466386 0)
(1.00256 -0.0134798 0)
(0.997919 -0.0100756 0)
(0.992769 -0.0149109 0)
(0.987729 -0.00895145 0)
(0.98403 -0.0109664 0)
(1.00164 -0.00377687 0)
(0.994419 0.00287404 0)
(1.00514 0.00246491 0)
(0.999818 -0.0150179 0)
(0.98637 -0.00753027 0)
(0.987643 -0.0034649 0)
(0.981927 0.00235752 0)
(0.982665 0.014747 0)
(0.996256 0.0208582 0)
(1.00071 0.0206301 0)
(1.01091 0.0184787 0)
(1.01074 0.00867346 0)
(1.0137 0.00637781 0)
(1.01059 -0.00559378 0)
(1.00675 -0.00462683 0)
(1.00241 -0.0125209 0)
(0.998078 -0.00968259 0)
(0.993048 -0.0138518 0)
(0.988265 -0.00854121 0)
(0.984686 -0.010093 0)
(1.00169 -0.00369292 0)
(0.994273 0.00274559 0)
(1.00472 0.00242429 0)
(1.00015 -0.0147171 0)
(0.986677 -0.00736654 0)
(0.987477 -0.00339914 0)
(0.982519 0.00253247 0)
(0.982515 0.0142857 0)
(0.995434 0.0205304 0)
(1.00056 0.0201914 0)
(1.01013 0.0179868 0)
(1.01027 0.00881659 0)
(1.01318 0.0060978 0)
(1.01019 -0.00492832 0)
(1.00664 -0.00452089 0)
(1.00232 -0.0116348 0)
(0.998277 -0.0092962 0)
(0.993358 -0.0127664 0)
(0.988815 -0.00806037 0)
(0.985369 -0.00927274 0)
(1.00169 -0.00360272 0)
(0.994241 0.00261138 0)
(1.00424 0.00238394 0)
(1.00043 -0.0144244 0)
(0.987034 -0.00717852 0)
(0.987266 -0.00333808 0)
(0.983109 0.00269931 0)
(0.982579 0.01386 0)
(0.994723 0.020171 0)
(1.00055 0.0197542 0)
(1.00941 0.017512 0)
(1.00987 0.00894306 0)
(1.01268 0.00579448 0)
(1.00986 -0.00433034 0)
(1.00655 -0.00432008 0)
(1.00227 -0.0107082 0)
(0.998507 -0.00894233 0)
(0.993737 -0.0118305 0)
(0.98939 -0.00752367 0)
(0.986074 -0.0084181 0)
(1.00165 -0.00350787 0)
(0.994332 0.00247384 0)
(1.00373 0.00234036 0)
(1.00063 -0.014125 0)
(0.987419 -0.00699284 0)
(0.987044 -0.00324301 0)
(0.983642 0.00282079 0)
(0.982792 0.0134901 0)
(0.994095 0.0197437 0)
(1.0006 0.0193746 0)
(1.00873 0.0169297 0)
(1.00954 0.00913911 0)
(1.01218 0.00549986 0)
(1.0096 -0.00379074 0)
(1.00647 -0.00420482 0)
(1.00227 -0.00972627 0)
(0.998725 -0.00846097 0)
(0.994138 -0.0109463 0)
(0.989951 -0.00710994 0)
(0.986746 -0.00762818 0)
(1.00157 -0.00340862 0)
(0.994545 0.00233395 0)
(1.00319 0.00229241 0)
(1.00075 -0.0138225 0)
(0.987802 -0.00681175 0)
(0.986849 -0.00312524 0)
(0.984093 0.00290812 0)
(0.983103 0.0131884 0)
(0.993548 0.019216 0)
(1.00065 0.0190632 0)
(1.0081 0.016335 0)
(1.00925 0.00920389 0)
(1.01167 0.00529439 0)
(1.00938 -0.00316341 0)
(1.00639 -0.00409836 0)
(1.00233 -0.0088838 0)
(0.998939 -0.00797887 0)
(0.994552 -0.00991251 0)
(0.990522 -0.00668808 0)
(0.987461 -0.00694421 0)
(1.00146 -0.00330258 0)
(0.994864 0.00218224 0)
(1.00266 0.00226266 0)
(1.00079 -0.0135517 0)
(0.988151 -0.00657587 0)
(0.986713 -0.00303956 0)
(0.984461 0.00299441 0)
(0.983478 0.0129017 0)
(0.993086 0.0187254 0)
(1.0007 0.0186259 0)
(1.00749 0.015915 0)
(1.00899 0.00919214 0)
(1.01117 0.00513241 0)
(1.0092 -0.00271819 0)
(1.00628 -0.00376189 0)
(1.00241 -0.00810428 0)
(0.999177 -0.00751619 0)
(0.995032 -0.00912222 0)
(0.991123 -0.00612478 0)
(0.988206 -0.00614665 0)
(1.00133 -0.00320375 0)
(0.995265 0.00204918 0)
(1.00216 0.00220836 0)
(1.00075 -0.0132224 0)
(0.988441 -0.00641721 0)
(0.986646 -0.00284866 0)
(0.984769 0.00297018 0)
(0.983898 0.0126921 0)
(0.992717 0.0181547 0)
(1.00073 0.01831 0)
(1.00694 0.0152873 0)
(1.00875 0.00922721 0)
(1.01065 0.00511242 0)
(1.00905 -0.00247503 0)
(1.00618 -0.00349935 0)
(1.00249 -0.00730377 0)
(0.999342 -0.00693901 0)
(0.995447 -0.00839773 0)
(0.991646 -0.00565061 0)
(0.988825 -0.00541709 0)
(1.00119 -0.0030915 0)
(0.99571 0.00188429 0)
(1.00171 0.00219823 0)
(1.00066 -0.0129483 0)
(0.988664 -0.00620751 0)
(0.986644 -0.00269867 0)
(0.985049 0.00301796 0)
(0.984339 0.0124063 0)
(0.992474 0.0176668 0)
(1.00073 0.017837 0)
(1.00643 0.0148917 0)
(1.00854 0.00897257 0)
(1.01012 0.00518474 0)
(1.00888 -0.00203248 0)
(1.00608 -0.00318473 0)
(1.0026 -0.00672462 0)
(0.999536 -0.00630329 0)
(0.995924 -0.00766602 0)
(0.99227 -0.00504193 0)
(0.989568 -0.0046941 0)
(1.00105 -0.00297697 0)
(0.996167 0.00171653 0)
(1.00131 0.00218708 0)
(1.00053 -0.0126691 0)
(0.988825 -0.00596458 0)
(0.9867 -0.00255339 0)
(0.985325 0.0030101 0)
(0.984794 0.0122162 0)
(0.99234 0.0170883 0)
(1.00073 0.0174107 0)
(1.00597 0.0144616 0)
(1.0083 0.00886276 0)
(1.00964 0.00501277 0)
(1.00871 -0.00147999 0)
(1.00594 -0.00291596 0)
(1.00267 -0.00602 0)
(0.99967 -0.00576603 0)
(0.996312 -0.00689474 0)
(0.992781 -0.00442618 0)
(0.990096 -0.00396061 0)
(1.00092 -0.00288629 0)
(0.996605 0.00159761 0)
(1.00096 0.00211685 0)
(1.00039 -0.0122663 0)
(0.988939 -0.00590833 0)
(0.986798 -0.00219449 0)
(0.985618 0.00273968 0)
(0.985248 0.0122061 0)
(0.992325 0.0163083 0)
(1.00072 0.0172339 0)
(1.00557 0.0136626 0)
(1.00806 0.00899476 0)
(1.00916 0.00481228 0)
(1.0085 -0.00100289 0)
(1.00581 -0.00285367 0)
(1.00272 -0.0049995 0)
(0.999788 -0.00528646 0)
(0.996688 -0.00587099 0)
(0.993284 -0.00434959 0)
(0.990666 -0.00361193 0)
(1.0008 -0.00275881 0)
(0.997003 0.0013924 0)
(1.00064 0.00217484 0)
(1.00027 -0.012041 0)
(0.989022 -0.00566696 0)
(0.986936 -0.00202673 0)
(0.985921 0.0028098 0)
(0.985711 0.0118389 0)
(0.992391 0.0159891 0)
(1.0007 0.016457 0)
(1.00521 0.0135984 0)
(1.00781 0.00849876 0)
(1.00869 0.00503419 0)
(1.00825 -0.00073142 0)
(1.0057 -0.00243985 0)
(1.0028 -0.00450915 0)
(0.999939 -0.0045083 0)
(0.997052 -0.00531613 0)
(0.993817 -0.00363058 0)
(0.991373 -0.00290959 0)
(1.00071 -0.00264212 0)
(0.997338 0.00121785 0)
(1.00037 0.00217281 0)
(1.00015 -0.0117028 0)
(0.989104 -0.00546716 0)
(0.987099 -0.00184075 0)
(0.986254 0.00275794 0)
(0.986153 0.0116143 0)
(0.992521 0.0154718 0)
(1.00069 0.0159311 0)
(1.00487 0.0132773 0)
(1.00752 0.00822444 0)
(1.00825 0.00508234 0)
(1.00796 -0.000321974 0)
(1.00553 -0.00202617 0)
(1.00282 -0.00408144 0)
(0.999979 -0.00389742 0)
(0.997314 -0.00470718 0)
(0.994241 -0.0028992 0)
(0.991721 -0.0022201 0)
(1.00064 -0.00255739 0)
(0.99761 0.00109714 0)
(1.00013 0.00210469 0)
(1.00004 -0.0112152 0)
(0.989211 -0.00551383 0)
(0.987267 -0.00134102 0)
(0.98663 0.0022877 0)
(0.986571 0.011693 0)
(0.992699 0.0146417 0)
(1.00065 0.0157207 0)
(1.00456 0.0124465 0)
(1.00724 0.00851249 0)
(1.00782 0.0046607 0)
(1.00765 0.000565069 0)
(1.00539 -0.00178088 0)
(1.00283 -0.0030587 0)
(1.00008 -0.00358781 0)
(0.997584 -0.00358018 0)
(0.994672 -0.00313357 0)
(0.99223 -0.0021605 0)
(1.00059 -0.00241734 0)
(0.997835 0.000876472 0)
(0.999895 0.00217218 0)
(0.999942 -0.0109739 0)
(0.989346 -0.00527753 0)
(0.987461 -0.00117072 0)
(0.987016 0.0024158 0)
(0.986993 0.0112268 0)
(0.992883 0.0144619 0)
(1.00061 0.0147494 0)
(1.00427 0.0125404 0)
(1.0069 0.00794826 0)
(1.00744 0.00499611 0)
(1.00734 0.000517815 0)
(1.00522 -0.00133276 0)
(1.00283 -0.00275941 0)
(1.00023 -0.0028471 0)
(0.997821 -0.00325249 0)
(0.99506 -0.00216107 0)
(0.992868 -0.0013813 0)
(1.00055 -0.00229384 0)
(0.998007 0.000682679 0)
(0.999683 0.00218568 0)
(0.999848 -0.0105931 0)
(0.98952 -0.00514573 0)
(0.987677 -0.000936793 0)
(0.98742 0.00236364 0)
(0.987403 0.0108398 0)
(0.993062 0.0141579 0)
(1.00058 0.0140185 0)
(1.00397 0.0123317 0)
(1.00657 0.00760522 0)
(1.00701 0.00503494 0)
(1.00697 0.000675848 0)
(1.00507 -0.000864555 0)
(1.00282 -0.00238354 0)
(1.00024 -0.00223551 0)
(0.998055 -0.00291697 0)
(0.995478 -0.00136748 0)
(0.993088 -0.000646968 0)
(1.00053 -0.00221024 0)
(0.998143 0.000557676 0)
(0.999492 0.00208689 0)
(0.999737 -0.00997583 0)
(0.989749 -0.00528385 0)
(0.987886 -0.000383325 0)
(0.987858 0.0018327 0)
(0.987814 0.0109593 0)
(0.993242 0.0132498 0)
(1.00052 0.0139727 0)
(1.0037 0.0112974 0)
(1.0062 0.00809074 0)
(1.00664 0.00459203 0)
(1.00665 0.00176202 0)
(1.0049 -0.000656172 0)
(1.00276 -0.00131348 0)
(1.00028 -0.00209298 0)
(0.99822 -0.00162358 0)
(0.995829 -0.00204998 0)
(0.993513 -0.000940704 0)
(1.0005 -0.00206188 0)
(0.998275 0.000351194 0)
(0.999298 0.00215594 0)
(0.999645 -0.00971605 0)
(0.989996 -0.00505665 0)
(0.988128 -0.000242441 0)
(0.988298 0.00203089 0)
(0.988234 0.0103513 0)
(0.993413 0.0131937 0)
(1.00045 0.0129684 0)
(1.00344 0.0113777 0)
(1.00586 0.00755105 0)
(1.00629 0.00483771 0)
(1.00631 0.00183831 0)
(1.00475 -0.000101731 0)
(1.00277 -0.00115499 0)
(1.00049 -0.0013929 0)
(0.998385 -0.0012715 0)
(0.996089 -0.000585004 0)
(0.994171 -4.45505e-05 0)
(1.00047 -0.00191994 0)
(0.99839 0.000125836 0)
(0.999113 0.0021667 0)
(0.999542 -0.00926222 0)
(0.990281 -0.00499046 0)
(0.988391 4.24825e-05 0)
(0.98872 0.00206179 0)
(0.988689 0.00978689 0)
(0.993564 0.0129795 0)
(1.0004 0.0122893 0)
(1.00317 0.0110998 0)
(1.00546 0.00733066 0)
(1.00595 0.00484429 0)
(1.00601 0.00181732 0)
(1.00454 0.000257737 0)
(1.0027 -0.00090682 0)
(1.00049 -0.000738909 0)
(0.99869 -0.00104333 0)
(0.99646 0.000496979 0)
(0.994173 0.000898532 0)
(1.00045 -0.00186065 0)
(0.998496 3.33085e-05 0)
(0.998955 0.00197526 0)
(0.999417 -0.00848787 0)
(0.990598 -0.00519711 0)
(0.98865 0.000605769 0)
(0.989179 0.00155814 0)
(0.989131 0.0099721 0)
(0.993744 0.0119527 0)
(1.00031 0.0125284 0)
(1.00295 0.0099256 0)
(1.00514 0.00797734 0)
(1.00559 0.00450478 0)
(1.00568 0.00283588 0)
(1.00441 0.00044035 0)
(1.00271 0.000232893 0)
(1.00059 -0.00064623 0)
(0.998868 -1.31203e-06 0)
(0.996781 -0.000973082 0)
(0.994562 0.000173541 0)
(1.0004 -0.00166248 0)
(0.998629 -0.000222482 0)
(0.998777 0.00209546 0)
(0.999323 -0.00828227 0)
(0.990922 -0.00492131 0)
(0.988933 0.000564617 0)
(0.989622 0.00190406 0)
(0.989597 0.00912324 0)
(0.993912 0.0120894 0)
(1.00022 0.0114308 0)
(1.00274 0.0102436 0)
(1.0048 0.00738867 0)
(1.00532 0.00470497 0)
(1.00544 0.00258823 0)
(1.00425 0.000794973 0)
(1.00269 0.000175993 0)
(1.00076 -0.000116453 0)
(0.998912 0.000344511 0)
(0.996953 0.000694605 0)
(0.995244 0.00148251 0)
(1.00036 -0.00156057 0)
(0.998762 -0.000358382 0)
(0.998612 0.00197447 0)
(0.999215 -0.00764465 0)
(0.991255 -0.00491927 0)
(0.989262 0.000722074 0)
(0.990018 0.00214661 0)
(0.9901 0.00839436 0)
(0.994069 0.0119924 0)
(1.00018 0.0107456 0)
(1.00254 0.0100983 0)
(1.00443 0.00704502 0)
(1.00496 0.00497269 0)
(1.00513 0.00221791 0)
(1.00412 0.000912252 0)
(1.00272 0.000184823 0)
(1.0009 0.00052139 0)
(0.999388 0.000958196 0)
(0.997467 0.002088 0)
(0.995215 0.00252253 0)
(1.00033 -0.00147632 0)
(0.998866 -0.000470987 0)
(0.998492 0.00181244 0)
(0.999076 -0.00694468 0)
(0.991619 -0.00503488 0)
(0.989581 0.00119322 0)
(0.990435 0.00187973 0)
(0.990579 0.0083122 0)
(0.994264 0.0112638 0)
(1.00009 0.0107656 0)
(1.00236 0.0093559 0)
(1.00416 0.00743343 0)
(1.00465 0.00468301 0)
(1.00484 0.00296314 0)
(1.00402 0.00126679 0)
(1.0028 0.00102094 0)
(1.00116 0.000815314 0)
(0.999568 0.00145878 0)
(0.99763 0.00129451 0)
(0.995509 0.00202157 0)
(1.00029 -0.00125494 0)
(0.998996 -0.000764889 0)
(0.998365 0.0018707 0)
(0.998952 -0.00661109 0)
(0.992004 -0.00477402 0)
(0.989901 0.00115173 0)
(0.990825 0.00207699 0)
(0.991083 0.00781602 0)
(0.994447 0.0109909 0)
(1.00004 0.0102701 0)
(1.00223 0.00920189 0)
(1.00382 0.00726772 0)
(1.00435 0.00474937 0)
(1.00464 0.0032878 0)
(1.00393 0.0015962 0)
(1.00284 0.00127379 0)
(1.00131 0.00108079 0)
(0.999811 0.00145829 0)
(0.998005 0.00176168 0)
(0.995847 0.00236683 0)
(1.00025 -0.00122477 0)
(0.999122 -0.000769347 0)
(0.998258 0.00160946 0)
(0.998835 -0.00586203 0)
(0.992369 -0.00480677 0)
(0.990256 0.00129365 0)
(0.991211 0.0022208 0)
(0.991574 0.00741823 0)
(0.994644 0.010556 0)
(0.999974 0.0100373 0)
(1.00208 0.00875839 0)
(1.00358 0.0072285 0)
(1.00412 0.00497904 0)
(1.00438 0.00348118 0)
(1.0038 0.00184584 0)
(1.00291 0.00167513 0)
(1.0015 0.00142596 0)
(1.00009 0.00180155 0)
(0.998295 0.00197686 0)
(0.996093 0.00236604 0)
(1.00021 -0.00104064 0)
(0.99925 -0.000999492 0)
(0.998169 0.00158435 0)
(0.998712 -0.0054144 0)
(0.992749 -0.00463361 0)
(0.990629 0.00142767 0)
(0.991569 0.00228014 0)
(0.992066 0.00701212 0)
(0.994863 0.0102613 0)
(0.999918 0.00966216 0)
(1.00197 0.0085225 0)
(1.00334 0.00720885 0)
(1.00384 0.00490265 0)
(1.00417 0.00359235 0)
(1.00376 0.00227428 0)
(1.00299 0.00204058 0)
(1.00165 0.0016963 0)
(1.0003 0.00193178 0)
(0.998556 0.00214816 0)
(0.99639 0.00247588 0)
(1.00017 -0.000944942 0)
(0.999377 -0.00108738 0)
(0.998097 0.00138805 0)
(0.998597 -0.00480636 0)
(0.993124 -0.00446744 0)
(0.991005 0.00138049 0)
(0.991927 0.0024837 0)
(0.992565 0.00668857 0)
(0.995079 0.00985414 0)
(0.999863 0.00935838 0)
(1.00187 0.00827704 0)
(1.00311 0.00700565 0)
(1.00363 0.00502866 0)
(1.00402 0.00390882 0)
(1.00369 0.00257606 0)
(1.00302 0.00215671 0)
(1.00178 0.00193355 0)
(1.00057 0.00226638 0)
(0.998859 0.00236034 0)
(0.996634 0.00252506 0)
(1.00014 -0.000815252 0)
(0.999498 -0.00122926 0)
(0.998053 0.00128319 0)
(0.998485 -0.00432258 0)
(0.993481 -0.00427834 0)
(0.991414 0.0014422 0)
(0.992284 0.00267157 0)
(0.993031 0.00626722 0)
(0.995322 0.00947026 0)
(0.999829 0.00910636 0)
(1.00177 0.00803301 0)
(1.00293 0.0069146 0)
(1.00344 0.00513452 0)
(1.00383 0.00399578 0)
(1.00358 0.00275424 0)
(1.00309 0.00240956 0)
(1.00202 0.00231004 0)
(1.00078 0.00246824 0)
(0.999015 0.00244771 0)
(0.996884 0.00266449 0)
(1.0001 -0.000704524 0)
(0.999624 -0.00131762 0)
(0.998022 0.00111548 0)
(0.99838 -0.00382324 0)
(0.993848 -0.00400978 0)
(0.99182 0.0014261 0)
(0.992618 0.00278143 0)
(0.993509 0.00598692 0)
(0.995584 0.00914737 0)
(0.999795 0.00879699 0)
(1.00169 0.00775136 0)
(1.00276 0.00678094 0)
(1.00325 0.00517518 0)
(1.00369 0.00414586 0)
(1.00356 0.00306866 0)
(1.00318 0.00272767 0)
(1.00213 0.00251933 0)
(1.00095 0.00255307 0)
(0.999316 0.00267461 0)
(0.997174 0.00285118 0)
(1.00006 -0.000596969 0)
(0.999736 -0.0014046 0)
(0.998021 0.000959493 0)
(0.998289 -0.0033282 0)
(0.994181 -0.00378752 0)
(0.992247 0.00141106 0)
(0.992974 0.00296716 0)
(0.993963 0.00576226 0)
(0.995848 0.00870555 0)
(0.999769 0.0085059 0)
(1.00162 0.00753802 0)
(1.00263 0.00672009 0)
(1.00311 0.00523276 0)
(1.00356 0.0042915 0)
(1.00349 0.00326261 0)
(1.00323 0.00287192 0)
(1.0023 0.00268881 0)
(1.0012 0.00280734 0)
(0.999525 0.00289794 0)
(0.997392 0.00293169 0)
(1.00003 -0.000484603 0)
(0.999856 -0.00149091 0)
(0.998032 0.000814142 0)
(0.998202 -0.00291922 0)
(0.994525 -0.0034723 0)
(0.99268 0.0014135 0)
(0.993309 0.00310341 0)
(0.994401 0.00550579 0)
(0.996129 0.00830502 0)
(0.999772 0.0082383 0)
(1.00158 0.00734382 0)
(1.0025 0.00658259 0)
(1.00296 0.00519336 0)
(1.00345 0.00439042 0)
(1.00346 0.00347835 0)
(1.00332 0.00309148 0)
(1.00247 0.00297605 0)
(1.0014 0.0029855 0)
(0.999763 0.00306008 0)
(0.997632 0.00305451 0)
(1 -0.000390326 0)
(0.999961 -0.00152734 0)
(0.998068 0.000624002 0)
(0.99814 -0.00246776 0)
(0.994837 -0.00319237 0)
(0.993122 0.00138523 0)
(0.993663 0.00322465 0)
(0.994822 0.00535084 0)
(0.996418 0.00794982 0)
(0.999782 0.00799093 0)
(1.00153 0.00709087 0)
(1.0024 0.00643972 0)
(1.00287 0.00521025 0)
(1.00339 0.00453579 0)
(1.00343 0.00370967 0)
(1.00339 0.00325976 0)
(1.00263 0.00312569 0)
(1.00161 0.00310146 0)
(0.999956 0.00319039 0)
(0.997834 0.00318148 0)
(0.999969 -0.000295289 0)
(1.00007 -0.00156366 0)
(0.998117 0.000477594 0)
(0.998083 -0.00208438 0)
(0.995155 -0.00290395 0)
(0.993571 0.00140443 0)
(0.994006 0.00330677 0)
(0.995229 0.0051805 0)
(0.996713 0.00758455 0)
(0.999809 0.00771871 0)
(1.00151 0.00688574 0)
(1.00232 0.00638095 0)
(1.00278 0.00523027 0)
(1.00332 0.00460052 0)
(1.0034 0.00387257 0)
(1.00346 0.00338061 0)
(1.00278 0.00328195 0)
(1.00182 0.00326313 0)
(1.00021 0.00338016 0)
(0.998072 0.00335019 0)
(0.999943 -0.000220256 0)
(1.00017 -0.00154956 0)
(0.99819 0.00026637 0)
(0.998053 -0.00170913 0)
(0.99544 -0.0025888 0)
(0.994016 0.00145357 0)
(0.994366 0.00341818 0)
(0.995627 0.00506475 0)
(0.997021 0.00721397 0)
(0.999859 0.00744216 0)
(1.0015 0.00666935 0)
(1.00226 0.00626742 0)
(1.00271 0.00520936 0)
(1.00329 0.00462056 0)
(1.00338 0.00404049 0)
(1.00353 0.00356937 0)
(1.00297 0.00346242 0)
(1.00205 0.00342449 0)
(1.00041 0.00350458 0)
(0.998243 0.00345685 0)
(0.999916 -0.000130606 0)
(1.00027 -0.00157536 0)
(0.998268 0.000136839 0)
(0.998027 -0.00145638 0)
(0.995741 -0.00222161 0)
(0.994477 0.0014088 0)
(0.994712 0.00349054 0)
(0.995987 0.00498832 0)
(0.997305 0.00691095 0)
(0.999907 0.00720876 0)
(1.00151 0.00648857 0)
(1.00222 0.00617519 0)
(1.00264 0.00522169 0)
(1.00328 0.00463503 0)
(1.0034 0.0042147 0)
(1.00361 0.00374048 0)
(1.00312 0.00358859 0)
(1.00225 0.00349756 0)
(1.00066 0.00357567 0)
(0.998479 0.00358525 0)
(0.999894 -6.69286e-05 0)
(1.00035 -0.00151558 0)
(0.998361 -7.6482e-05 0)
(0.998038 -0.00116263 0)
(0.996011 -0.0019096 0)
(0.994918 0.001346 0)
(0.99509 0.00357049 0)
(0.996357 0.00497711 0)
(0.997613 0.00663803 0)
(0.999993 0.00699454 0)
(1.00154 0.00627458 0)
(1.00221 0.00604419 0)
(1.00261 0.00524147 0)
(1.0033 0.00464965 0)
(1.00342 0.0043289 0)
(1.00365 0.00387483 0)
(1.00326 0.00370422 0)
(1.00245 0.00363853 0)
(1.00089 0.00369137 0)
(0.99866 0.00371688 0)
(0.999871 -5.70988e-06 0)
(1.00043 -0.00144447 0)
(0.998466 -0.0002521 0)
(0.998057 -0.000925323 0)
(0.996279 -0.00158059 0)
(0.99537 0.00144369 0)
(0.995467 0.0036387 0)
(0.996706 0.00490002 0)
(0.997909 0.00634101 0)
(1.00008 0.00675095 0)
(1.00159 0.00607568 0)
(1.00223 0.00591959 0)
(1.00257 0.00527418 0)
(1.00331 0.00464745 0)
(1.00347 0.00439799 0)
(1.00371 0.00402798 0)
(1.0034 0.00385068 0)
(1.00263 0.00376098 0)
(1.00112 0.00376682 0)
(0.998869 0.00380886 0)
(0.99985 3.82096e-05 0)
(1.0005 -0.00132501 0)
(0.998577 -0.000430834 0)
(0.998101 -0.000682297 0)
(0.996536 -0.00121493 0)
(0.995806 0.00149199 0)
(0.995844 0.00359472 0)
(0.997044 0.00479988 0)
(0.998208 0.0060606 0)
(1.00019 0.00654061 0)
(1.00164 0.00590154 0)
(1.00228 0.00577259 0)
(1.00255 0.00529809 0)
(1.00333 0.00466467 0)
(1.00354 0.00443718 0)
(1.00378 0.00415382 0)
(1.00353 0.00395326 0)
(1.0028 0.00386733 0)
(1.00135 0.00383351 0)
(0.999072 0.00387403 0)
(0.99983 9.14042e-05 0)
(1.00056 -0.00122815 0)
(0.998692 -0.000571093 0)