/*--------------------------------*- C++ -*----------------------------------*\
| =========                 |                                                 |
| \\      /  F ield         | OpenFOAM: The Open Source CFD Toolbox           |
|  \\    /   O peration     | Version:  v2012                                 |
|   \\  /    A nd           | Website:  www.openfoam.com                      |
|    \\/     M anipulation  |                                                 |
\*---------------------------------------------------------------------------*/
FoamFile
{
    version     2.0;
    format      ascii;
    class       volVectorField;
    location    "6.7";
    object      U;
}
// * * * * * * * * * * * * * * * * * * * * * * * * * * * * * * * * * * * * * //

dimensions      [0 1 -1 0 0 0 0];


internalField   nonuniform List<vector> 
7000
(
(0.972467 0.00227176 0)
(1.06456 -0.00606806 0)
(0.825044 0.00629173 0)
(1.21727 0.00885697 0)
(0.767 -0.0143502 0)
(1.09361 -0.00643356 0)
(0.9936 -0.0107211 0)
(1.03695 0.00511254 0)
(1.00968 0.0112901 0)
(1.04348 0.00174844 0)
(0.975881 0.0228054 0)
(1.06287 0.00680318 0)
(0.927099 0.0246316 0)
(1.07589 0.00666232 0)
(0.884209 0.0202968 0)
(1.0886 0.00387553 0)
(0.865448 0.0118666 0)
(1.09169 -0.00121934 0)
(0.855044 0.00218665 0)
(1.08553 -0.0063861 0)
(0.974359 0.00209875 0)
(1.06035 -0.00529425 0)
(0.832919 0.00542401 0)
(1.20243 0.00939981 0)
(0.803073 -0.0136847 0)
(1.08686 -0.00810371 0)
(1.00138 -0.0104179 0)
(1.03651 0.00513985 0)
(1.01434 0.0111722 0)
(1.04037 0.00219428 0)
(0.982004 0.0225 0)
(1.05146 0.00759476 0)
(0.942267 0.024312 0)
(1.04953 0.00762735 0)
(0.916777 0.0199265 0)
(1.04359 0.0045765 0)
(0.920218 0.0118177 0)
(1.0287 -0.00117731 0)
(0.933066 0.0026895 0)
(1.00524 -0.00702946 0)
(0.978065 0.00193661 0)
(1.05288 -0.00455886 0)
(0.850176 0.004454 0)
(1.17496 0.00982937 0)
(0.849369 -0.0132303 0)
(1.07124 -0.00938901 0)
(1.01208 -0.0100378 0)
(1.03389 0.00504336 0)
(1.02362 0.0111124 0)
(1.03439 0.00265204 0)
(0.995128 0.0222522 0)
(1.03477 0.00832064 0)
(0.967554 0.0242225 0)
(1.02016 0.00819634 0)
(0.956419 0.0198837 0)
(1.00865 0.0044808 0)
(0.967088 0.0119472 0)
(0.997916 -0.001519 0)
(0.977721 0.00351588 0)
(0.984345 -0.00639964 0)
(0.983115 0.00180818 0)
(1.0431 -0.00395453 0)
(0.875038 0.00371721 0)
(1.13924 0.00995651 0)
(0.896964 -0.0127771 0)
(1.04866 -0.0103429 0)
(1.02116 -0.00979571 0)
(1.02927 0.00487587 0)
(1.03301 0.0111342 0)
(1.0282 0.00297814 0)
(1.00862 0.0222594 0)
(1.02256 0.00874053 0)
(0.989015 0.0245032 0)
(1.00464 0.00832243 0)
(0.982642 0.0201792 0)
(0.997224 0.00408858 0)
(0.990861 0.0123527 0)
(0.993732 -0.00195627 0)
(0.995443 0.00427275 0)
(0.986068 -0.00600064 0)
(0.98879 0.00170114 0)
(1.03227 -0.00345534 0)
(0.90376 0.00318317 0)
(1.10074 0.00990815 0)
(0.938239 -0.0123123 0)
(1.02464 -0.0110967 0)
(1.02476 -0.0097199 0)
(1.02442 0.00471401 0)
(1.03787 0.0111791 0)
(1.02381 0.0032409 0)
(1.01631 0.0223746 0)
(1.01699 0.00902174 0)
(1.00031 0.0248699 0)
(1.00087 0.00837372 0)
(0.994312 0.0204553 0)
(0.997808 0.00375833 0)
(0.999459 0.012662 0)
(0.997556 -0.00234211 0)
(1.00056 0.00486103 0)
(0.99163 -0.00561582 0)
(0.994305 0.00161613 0)
(1.02181 -0.00306596 0)
(0.932018 0.00281469 0)
(1.06518 0.00975839 0)
(0.968547 -0.0118832 0)
(1.00513 -0.0116349 0)
(1.02175 -0.00979431 0)
(1.02033 0.00455168 0)
(1.03722 0.0112144 0)
(1.02095 0.0034998 0)
(1.01708 0.0224867 0)
(1.01449 0.00927232 0)
(1.00298 0.025182 0)
(1.00108 0.00843165 0)
(0.997517 0.0206011 0)
(1.00068 0.0034882 0)
(1.00161 0.0128182 0)
(1.00148 -0.00258922 0)
(1.00149 0.00537124 0)
(0.995956 -0.00518975 0)
(0.999029 0.00155392 0)
(1.01287 -0.00278911 0)
(0.956349 0.0025941 0)
(1.0368 0.00956407 0)
(0.987441 -0.0115212 0)
(0.993313 -0.0119599 0)
(1.01408 -0.00997696 0)
(1.01635 0.00435635 0)
(1.03303 0.0112386 0)
(1.01842 0.00376523 0)
(1.01343 0.0225899 0)
(1.01205 0.00950466 0)
(1.00124 0.025438 0)
(1.00116 0.00845599 0)
(0.997785 0.0206723 0)
(1.0028 0.00323037 0)
(1.00231 0.012912 0)
(1.00411 -0.00271554 0)
(1.00192 0.00579379 0)
(0.998691 -0.00469867 0)
(1.00263 0.00151118 0)
(1.00598 -0.00261028 0)
(0.975066 0.00249079 0)
(1.01715 0.00937679 0)
(0.997438 -0.0112402 0)
(0.988796 -0.0121084 0)
(1.00516 -0.0102014 0)
(1.0114 0.00411158 0)
(1.02744 0.0112471 0)
(1.01541 0.00403127 0)
(1.00836 0.0226943 0)
(1.00914 0.00970831 0)
(0.998702 0.0256465 0)
(1.00072 0.00842746 0)
(0.998122 0.0206942 0)
(1.00424 0.00296603 0)
(1.00335 0.0129702 0)
(1.00578 -0.00275804 0)
(1.00268 0.00613627 0)
(1.00033 -0.00414234 0)
(1.00512 0.00148346 0)
(1.00104 -0.00250672 0)
(0.988256 0.00246498 0)
(1.00521 0.00922416 0)
(1.00194 -0.0110391 0)
(0.989072 -0.0121311 0)
(0.997765 -0.0103963 0)
(1.0053 0.00382268 0)
(1.02144 0.0112264 0)
(1.01164 0.0042875 0)
(1.00368 0.0227933 0)
(1.00643 0.00986928 0)
(0.997281 0.0258033 0)
(1.00052 0.00834393 0)
(0.999395 0.0206574 0)
(1.00544 0.00270707 0)
(1.00474 0.0129881 0)
(1.00682 -0.00270927 0)
(1.00348 0.00642137 0)
(1.00119 -0.00352809 0)
(1.00669 0.00146739 0)
(0.997561 -0.00245743 0)
(0.997087 0.00248259 0)
(0.998647 0.00911128 0)
(1.00376 -0.010906 0)
(0.991438 -0.0120745 0)
(0.992989 -0.010511 0)
(0.998788 0.00351427 0)
(1.01519 0.0111716 0)
(1.00713 0.00451903 0)
(0.999895 0.0228676 0)
(1.00426 0.00997048 0)
(0.997343 0.0259011 0)
(1.00086 0.00821755 0)
(1.00128 0.0205623 0)
(1.00647 0.00249575 0)
(1.00598 0.0129689 0)
(1.00727 -0.00255104 0)
(1.00389 0.00666114 0)
(1.0014 -0.00286488 0)
(1.00761 0.00146118 0)
(0.995013 -0.00244722 0)
(1.00298 0.00252189 0)
(0.995152 0.00903091 0)
(1.00461 -0.0108245 0)
(0.994085 -0.0119735 0)
(0.990571 -0.0105274 0)
(0.992807 0.00322027 0)
(1.00882 0.0110938 0)
(1.0021 0.00470952 0)
(0.996787 0.0228931 0)
(1.00246 0.00999679 0)
(0.998319 0.0259361 0)
(1.00151 0.00806865 0)
(1.00309 0.0204228 0)
(1.00715 0.00235742 0)
(1.00667 0.0129096 0)
(1.00715 -0.00227607 0)
(1.00376 0.00686104 0)
(1.0011 -0.00216439 0)
(1.00808 0.00146419 0)
(0.993071 -0.00246666 0)
(1.00703 0.00257183 0)
(0.993177 0.00897304 0)
(1.00522 -0.0107793 0)
(0.996166 -0.0118497 0)
(0.989691 -0.0104505 0)
(0.987967 0.00296947 0)
(1.00274 0.0110122 0)
(0.997029 0.00484784 0)
(0.99402 0.0228558 0)
(1.00067 0.00993976 0)
(0.999437 0.0259051 0)
(1.00211 0.00792528 0)
(1.00435 0.020246 0)
(1.00739 0.00230966 0)
(1.00667 0.0128094 0)
(1.00658 -0.00188962 0)
(1.00315 0.00702566 0)
(1.00045 -0.00144004 0)
(1.0082 0.0014761 0)
(0.991656 -0.00250992 0)
(1.0098 0.00262762 0)
(0.992059 0.00892897 0)
(1.00577 -0.010757 0)
(0.997437 -0.0117147 0)
(0.989572 -0.0102967 0)
(0.984435 0.00277496 0)
(0.997493 0.0109432 0)
(0.992563 0.0049334 0)
(0.991509 0.0227579 0)
(0.998783 0.00980547 0)
(1.00021 0.0257983 0)
(1.00254 0.00781313 0)
(1.0049 0.0200344 0)
(1.00726 0.00236883 0)
(1.00613 0.0126729 0)
(1.00572 -0.00140749 0)
(1.00226 0.00715575 0)
(0.999623 -0.000707927 0)
(1.00797 0.00149604 0)
(0.990859 -0.00257216 0)
(1.01141 0.00268674 0)
(0.991732 0.00889156 0)
(1.00621 -0.0107441 0)
(0.997927 -0.011574 0)
(0.989696 -0.0100859 0)
(0.982124 0.002633 0)
(0.993502 0.0108936 0)
(0.989244 0.00497507 0)
(0.989459 0.0226127 0)
(0.99698 0.0096119 0)
(1.00053 0.0256091 0)
(1.00287 0.00774508 0)
(1.00488 0.0197812 0)
(1.0069 0.00253604 0)
(1.00528 0.0125022 0)
(1.00474 -0.000847374 0)
(1.00128 0.00725605 0)
(0.998778 1.70922e-05 0)
(1.00739 0.00152214 0)
(0.990795 -0.00264744 0)
(1.01179 0.00274614 0)
(0.992349 0.00885439 0)
(1.00643 -0.0107251 0)
(0.997773 -0.0114301 0)
(0.989787 -0.00983795 0)
(0.980848 0.00252841 0)
(0.990948 0.0108615 0)
(0.987319 0.00498506 0)
(0.988165 0.0224377 0)
(0.995541 0.00938162 0)
(1.00053 0.0253351 0)
(1.00322 0.00773311 0)
(1.00451 0.0194771 0)
(1.00646 0.00280846 0)
(1.00435 0.0122947 0)
(1.00379 -0.000231392 0)
(1.0004 0.00733882 0)
(0.998023 0.000727068 0)
(1.0065 0.00155163 0)
(0.991475 -0.00272823 0)
(1.01091 0.00280147 0)
(0.993969 0.00881071 0)
(1.00638 -0.0106835 0)
(0.997154 -0.0112845 0)
(0.989743 -0.00956988 0)
(0.980371 0.00244075 0)
(0.989746 0.0108405 0)
(0.986662 0.00497299 0)
(0.987774 0.0222503 0)
(0.994656 0.00914181 0)
(1.00034 0.02497 0)
(1.00363 0.007791 0)
(1.004 0.019131 0)
(1.00605 0.00316766 0)
(1.00354 0.0120534 0)
(1.00297 0.000415339 0)
(0.999724 0.00740987 0)
(0.997421 0.00141382 0)
(1.0054 0.00158144 0)
(0.992734 -0.00280625 0)
(1.00897 0.00284763 0)
(0.99642 0.00875366 0)
(1.00606 -0.0106046 0)
(0.99626 -0.0111389 0)
(0.989586 -0.00929479 0)
(0.980415 0.00235066 0)
(0.989605 0.0108236 0)
(0.986879 0.00494615 0)
(0.988158 0.022061 0)
(0.994341 0.00892218 0)
(0.999999 0.0245161 0)
(1.004 0.00792249 0)
(1.00347 0.0187446 0)
(1.00569 0.00360303 0)
(1.00292 0.0117904 0)
(1.00233 0.00107173 0)
(0.999294 0.00747667 0)
(0.997003 0.0020777 0)
(1.00424 0.00160911 0)
(0.994257 -0.0028744 0)
(1.0064 0.00287978 0)
(0.999324 0.00867758 0)
(1.00554 -0.0104775 0)
(0.995256 -0.0109957 0)
(0.989415 -0.00902021 0)
(0.980705 0.00224323 0)
(0.990134 0.0108056 0)
(0.987511 0.00491159 0)
(0.988969 0.0218664 0)
(0.994474 0.00875495 0)
(0.999496 0.0239879 0)
(1.00419 0.00811564 0)
(1.00296 0.0183202 0)
(1.00538 0.00408382 0)
(1.00253 0.0115188 0)
(1.00189 0.00172478 0)
(0.999105 0.00753915 0)
(0.99678 0.00271254 0)
(1.00321 0.00163355 0)
(0.99568 -0.00292837 0)
(1.00372 0.00289437 0)
(1.00224 0.00857962 0)
(1.00493 -0.0102972 0)
(0.994272 -0.0108579 0)
(0.989345 -0.00874956 0)
(0.981022 0.00211053 0)
(0.990966 0.0107857 0)
(0.988226 0.00487474 0)
(0.989828 0.0216561 0)
(0.994876 0.00866423 0)
(0.998832 0.0233954 0)
(1.0041 0.00836448 0)
(1.00253 0.0178448 0)
(1.00509 0.00459901 0)
(1.00235 0.0112592 0)
(1.00163 0.0023747 0)
(0.999114 0.0076075 0)
(0.996743 0.00331598 0)
(1.00243 0.00165522 0)
(0.996715 -0.00296734 0)
(1.0014 0.00288936 0)
(1.00481 0.00846041 0)
(1.00435 -0.0100643 0)
(0.993397 -0.0107282 0)
(0.989455 -0.00848309 0)
(0.981259 0.0019519 0)
(0.991838 0.0107609 0)
(0.988896 0.0048461 0)
(0.990491 0.0214193 0)
(0.995398 0.00865742 0)
(0.998101 0.0227464 0)
(1.00375 0.00865884 0)
(1.00219 0.0173246 0)
(1.00484 0.00512833 0)
(1.00235 0.0109978 0)
(1.00153 0.00300517 0)
(0.999266 0.00769466 0)
(0.996869 0.00389811 0)
(1.00196 0.00167573 0)
(0.997242 -0.00299315 0)
(0.999686 0.00286405 0)
(1.00687 0.0083233 0)
(1.00389 -0.00978312 0)
(0.992692 -0.0106089 0)
(0.989764 -0.00821694 0)
(0.981412 0.00176992 0)
(0.992602 0.0107264 0)
(0.98954 0.00483663 0)
(0.990922 0.0211462 0)
(0.995943 0.00873627 0)
(0.997462 0.0220541 0)
(1.00326 0.00897677 0)
(1.00199 0.0167737 0)
(1.00463 0.00565267 0)
(1.00247 0.0107347 0)
(1.00157 0.00360908 0)
(0.999502 0.00780106 0)
(0.997118 0.00446045 0)
(1.00178 0.00169695 0)
(0.997315 -0.00300879 0)
(0.998586 0.00281856 0)
(1.0084 0.00817248 0)
(1.00361 -0.00945976 0)
(0.992186 -0.0105003 0)
(0.990235 -0.00794946 0)
(0.981536 0.00157252 0)
(0.993189 0.0106776 0)
(0.990203 0.00485032 0)
(0.991222 0.0208229 0)
(0.996461 0.00890255 0)
(0.997065 0.0213353 0)
(1.00278 0.00930431 0)
(1.00195 0.0161947 0)
(1.00449 0.00616246 0)
(1.00266 0.0104979 0)
(1.00169 0.00418272 0)
(0.999763 0.00792469 0)
(0.997439 0.00499705 0)
(1.00182 0.00172032 0)
(0.997103 -0.00301704 0)
(0.997932 0.00275383 0)
(1.00949 0.00801094 0)
(1.00354 -0.00910131 0)
(0.991891 -0.0103993 0)
(0.990802 -0.00768094 0)
(0.9817 0.00136827 0)
(0.993564 0.0106086 0)
(0.990877 0.00489771 0)
(0.991518 0.0204425 0)
(0.996928 0.00913185 0)
(0.996984 0.0205953 0)
(1.0024 0.0096471 0)
(1.00205 0.0156078 0)
(1.00441 0.00663507 0)
(1.00286 0.0102845 0)
(1.00185 0.00470761 0)
(1 0.00806388 0)
(0.997779 0.00552267 0)
(1.00197 0.00174642 0)
(0.996806 -0.00301953 0)
(0.997503 0.0026717 0)
(1.0102 0.00783937 0)
(1.00366 -0.00871416 0)
(0.991803 -0.0103037 0)
(0.991392 -0.00740872 0)
(0.981954 0.00116465 0)
(0.993704 0.0105101 0)
(0.991485 0.00498133 0)
(0.991875 0.0200134 0)
(0.997322 0.00941056 0)
(0.997203 0.0198315 0)
(1.00217 0.00999288 0)
(1.00223 0.0150145 0)
(1.00437 0.0070905 0)
(1.00302 0.0101184 0)
(1.002 0.00518696 0)
(1.0002 0.00817337 0)
(0.998096 0.00602666 0)
(1.00214 0.00177469 0)
(0.996593 -0.00301594 0)
(0.997117 0.00257473 0)
(1.01061 0.00765639 0)
(1.00396 -0.0083054 0)
(0.991907 -0.0102088 0)
(0.991943 -0.00713295 0)
(0.982324 0.000972284 0)
(0.993602 0.0103862 0)
(0.991937 0.00509054 0)
(0.992289 0.0195229 0)
(0.997622 0.00974954 0)
(0.997637 0.0190582 0)
(1.00205 0.0103297 0)
(1.00245 0.014424 0)
(1.00434 0.00749858 0)
(1.00311 0.0100326 0)
(1.0021 0.00570286 0)
(1.00032 0.00825371 0)
(0.998368 0.00646872 0)
(1.00227 0.00180363 0)
(0.996572 -0.00300528 0)
(0.99668 0.00246684 0)
(1.01072 0.00745998 0)
(1.00437 -0.0078851 0)
(0.992182 -0.0101062 0)
(0.992402 -0.00685792 0)
(0.982809 0.000796436 0)
(0.99328 0.0102351 0)
(0.992174 0.00524485 0)
(0.992706 0.0189655 0)
(0.997815 0.0101028 0)
(0.998174 0.0182891 0)
(1.00198 0.0106549 0)
(1.00265 0.0139123 0)
(1.00429 0.00783918 0)
(1.00313 0.00993315 0)
(1.00214 0.006252 0)
(1.00037 0.00841622 0)
(0.998585 0.00689037 0)
(1.00231 0.00183186 0)
(0.996787 -0.00298704 0)
(0.996177 0.00235213 0)
(1.01053 0.00724883 0)
(1.00485 -0.0074609 0)
(0.992601 -0.00998901 0)
(0.992737 -0.00659413 0)
(0.983394 0.000663842 0)
(0.99279 0.0100302 0)
(0.992202 0.00542482 0)
(0.993069 0.0183877 0)
(0.997892 0.0104561 0)
(0.998715 0.017506 0)
(1.00193 0.0109552 0)
(1.00279 0.0134428 0)
(1.0042 0.00822781 0)
(1.0031 0.0098244 0)
(1.00213 0.00665318 0)
(1.00036 0.0085727 0)
(0.998738 0.00735175 0)
(1.00225 0.00185795 0)
(0.997231 -0.00296107 0)
(0.995651 0.00223959 0)
(1.01004 0.00701406 0)
(1.00532 -0.00703282 0)
(0.993127 -0.00985822 0)
(0.992935 -0.00633084 0)
(0.984051 0.000555436 0)
(0.992206 0.00984658 0)
(0.992083 0.00556927 0)
(0.993339 0.017758 0)
(0.997859 0.0108381 0)
(0.999185 0.0167679 0)
(1.00186 0.0111969 0)
(1.00287 0.0130227 0)
(1.00406 0.0085242 0)
(1.00299 0.00984755 0)
(1.00207 0.00701149 0)
(1.00035 0.00866239 0)
(0.99887 0.00773501 0)
(1.00208 0.00187922 0)
(0.99786 -0.00292711 0)
(0.995169 0.00213649 0)
(1.0093 0.00676068 0)
(1.00571 -0.00662161 0)
(0.993714 -0.00970368 0)
(0.993 -0.00606022 0)
(0.984751 0.000464167 0)
(0.991606 0.00963781 0)
(0.991898 0.0057858 0)
(0.993515 0.0170733 0)
(0.997742 0.0111239 0)
(0.999538 0.0161266 0)
(1.00173 0.0113923 0)
(1.00287 0.0126814 0)
(1.00389 0.00882596 0)
(1.00287 0.00983202 0)
(1.00197 0.00739824 0)
(1.0003 0.00877629 0)
(0.998959 0.00805634 0)
(1.00182 0.00189467 0)
(0.998609 -0.00288492 0)
(0.994794 0.00203621 0)
(1.00835 0.0065047 0)
(1.006 -0.00624167 0)
(0.994313 -0.00950098 0)
(0.992958 -0.00585269 0)
(0.985458 0.000503092 0)
(0.991062 0.00930901 0)
(0.991738 0.00603988 0)
(0.993598 0.0163734 0)
(0.997579 0.0114714 0)
(0.999774 0.0152814 0)
(1.00155 0.0117577 0)
(1.00283 0.012192 0)
(1.00368 0.00921895 0)
(1.00273 0.00985924 0)
(1.00185 0.00789703 0)
(1.00027 0.00882237 0)
(0.999044 0.00839485 0)
(1.0015 0.00190866 0)
(0.999405 -0.00284453 0)
(0.994568 0.00196666 0)
(1.00729 0.00621483 0)
(1.00614 -0.00586142 0)
(0.994875 -0.00929475 0)
(0.992843 -0.0056024 0)
(0.986155 0.000459175 0)
(0.990611 0.00914581 0)
(0.991665 0.00615629 0)
(0.993644 0.0157035 0)
(0.997386 0.0116993 0)
(0.999916 0.014778 0)
(1.00135 0.0117286 0)
(1.00274 0.0120705 0)
(1.0035 0.00928433 0)
(1.00263 0.0099205 0)
(1.00172 0.00835679 0)
(1.00027 0.00902937 0)
(0.999177 0.00861879 0)
(1.00115 0.00190658 0)
(1.00018 -0.00278357 0)
(0.994503 0.00189792 0)
(1.0062 0.00595186 0)
(1.00616 -0.00556462 0)
(0.995366 -0.00899782 0)
(0.992685 -0.00543541 0)
(0.986829 0.000543528 0)
(0.990281 0.00882193 0)
(0.991706 0.00643552 0)
(0.993672 0.014963 0)
(0.997247 0.0118639 0)
(0.999965 0.0142221 0)
(1.00116 0.0118593 0)
(1.00265 0.0118657 0)
(1.00328 0.00941213 0)
(1.00257 0.00987952 0)
(1.00163 0.00862741 0)
(1.00025 0.00927449 0)
(0.999227 0.00899134 0)
(1.00079 0.00190738 0)
(1.00086 -0.00274316 0)
(0.994585 0.00185683 0)
(1.00516 0.00567231 0)
(1.00607 -0.00526471 0)
(0.995752 -0.00872323 0)
(0.992535 -0.00523694 0)
(0.987458 0.00059348 0)
(0.990072 0.0085437 0)
(0.99187 0.00658696 0)
(0.993727 0.0143951 0)
(0.997135 0.0118546 0)
(1.00002 0.0137664 0)
(1.00099 0.0118736 0)
(1.00254 0.0117017 0)
(1.00314 0.00952478 0)
(1.00255 0.00999222 0)
(1.00158 0.00876938 0)
(1.00037 0.00947942 0)
(0.999384 0.00936708 0)
(1.00045 0.0019112 0)
(1.00142 -0.00271402 0)
(0.994781 0.00186258 0)
(1.00425 0.00536123 0)
(1.00591 -0.00495298 0)
(0.996038 -0.00844923 0)
(0.992409 -0.00499021 0)
(0.98805 0.000545608 0)
(0.989972 0.00845728 0)
(0.99213 0.00658867 0)
(0.993816 0.0138717 0)
(0.997118 0.0118955 0)
(1.00004 0.0133777 0)
(1.00086 0.011743 0)
(1.00247 0.0117657 0)
(1.00301 0.00950986 0)
(1.00255 0.0100545 0)
(1.00156 0.00914965 0)
(1.00048 0.0096851 0)
(0.999478 0.00942906 0)
(1.00017 0.00188003 0)
(1.00184 -0.00262304 0)
(0.995047 0.00180092 0)
(1.00348 0.00517517 0)
(1.0057 -0.00483174 0)
(0.996229 -0.00797011 0)
(0.992342 -0.00497842 0)
(0.988597 0.000875227 0)
(0.989952 0.00788967 0)
(0.992447 0.00703106 0)
(0.993981 0.0129825 0)
(0.997123 0.0122636 0)
(1.0001 0.0125067 0)
(1.00081 0.0121331 0)
(1.0024 0.0111697 0)
(1.00293 0.0100403 0)
(1.00265 0.0100348 0)
(1.00157 0.00985505 0)
(1.00054 0.00975849 0)
(0.999591 0.0095558 0)
(0.999935 0.00188042 0)
(1.00213 -0.00261369 0)
(0.995331 0.00181916 0)
(1.00289 0.00491171 0)
(1.00548 -0.00460967 0)
(0.996361 -0.00764863 0)
(0.992325 -0.00473008 0)
(0.9891 0.000803422 0)
(0.99001 0.00776726 0)
(0.992782 0.00698001 0)
(0.994182 0.0126078 0)
(0.997187 0.0119475 0)
(1.00017 0.0123894 0)
(1.00078 0.011898 0)
(1.00239 0.0112378 0)
(1.00293 0.0100328 0)
(1.00274 0.0101701 0)
(1.00163 0.00977678 0)
(1.00064 0.0100043 0)
(0.999758 0.00984947 0)
(0.999766 0.0018766 0)
(1.0023 -0.002599 0)
(0.9956 0.00186315 0)
(1.00246 0.00464401 0)
(1.00526 -0.00436836 0)
(0.996447 -0.00732117 0)
(0.992357 -0.00451781 0)
(0.989591 0.000743914 0)
(0.990092 0.00780043 0)
(0.993124 0.00670398 0)
(0.994406 0.0123953 0)
(0.997282 0.0117441 0)
(1.00026 0.0120814 0)
(1.00081 0.0117352 0)
(1.00235 0.0116386 0)
(1.0029 0.00986264 0)
(1.00283 0.010217 0)
(1.00168 0.009654 0)
(1.00078 0.0101537 0)
(0.999855 0.0099457 0)
(0.999655 0.00182739 0)
(1.00238 -0.0024795 0)
(0.995843 0.00176179 0)
(1.00214 0.00456487 0)
(1.00506 -0.00439675 0)
(0.996499 -0.00672037 0)
(0.992462 -0.00456733 0)
(0.990041 0.00112389 0)
(0.990206 0.00710571 0)
(0.993441 0.00729071 0)
(0.99466 0.0113384 0)
(0.997349 0.012246 0)
(1.00035 0.0112969 0)
(1.00089 0.011968 0)
(1.00232 0.0111606 0)
(1.00287 0.010521 0)
(1.00291 0.0100685 0)
(1.00175 0.010309 0)
(1.00087 0.010262 0)
(0.999967 0.0100687 0)
(0.999584 0.00183112 0)
(1.00239 -0.00248987 0)
(0.996041 0.00179341 0)
(1.00192 0.0043371 0)
(1.00486 -0.00421717 0)
(0.996552 -0.00637921 0)
(0.992605 -0.00429398 0)
(0.990469 0.000966351 0)
(0.99037 0.00717048 0)
(0.993696 0.00692519 0)
(0.994922 0.0111773 0)
(0.997442 0.0118542 0)
(1.0004 0.0112342 0)
(1.00095 0.0116589 0)
(1.00231 0.0113106 0)
(1.00286 0.0103997 0)
(1.00299 0.0102025 0)
(1.00189 0.0101333 0)
(1.00094 0.0105538 0)
(1.00009 0.0103572 0)
(0.99955 0.00182604 0)
(1.00238 -0.00247987 0)
(0.996199 0.001819 0)
(1.00177 0.00415476 0)
(1.00468 -0.00404266 0)
(0.9966 -0.0060414 0)
(0.992775 -0.00400576 0)
(0.990925 0.000736101 0)
(0.9905 0.00734699 0)
(0.993958 0.00653192 0)
(0.995176 0.0110379 0)
(0.997489 0.0114962 0)
(1.00045 0.0112366 0)
(1.00104 0.0113137 0)
(1.00225 0.0115776 0)
(1.0028 0.010087 0)
(1.00301 0.0103747 0)
(1.00198 0.009866 0)
(1.0011 0.0106688 0)
(1.00014 0.0105458 0)
(0.999545 0.00176265 0)
(1.00233 -0.00231726 0)
(0.996347 0.00164363 0)
(1.00164 0.00417796 0)
(1.00451 -0.00416215 0)
(0.996639 -0.00539249 0)
(0.992987 -0.00408546 0)
(0.991353 0.0011847 0)
(0.990693 0.00655181 0)
(0.99416 0.00722481 0)
(0.995428 0.00988701 0)
(0.997557 0.0119512 0)
(1.00046 0.0105066 0)
(1.00111 0.0115805 0)
(1.0022 0.0111024 0)
(1.00275 0.0109411 0)
(1.00305 0.0103005 0)
(1.00206 0.0105946 0)
(1.0012 0.01063 0)
(1.00021 0.0105742 0)
(0.999541 0.0017647 0)
(1.00229 -0.00232989 0)
(0.996473 0.00165482 0)
(1.00153 0.00399845 0)
(1.00433 -0.00400801 0)
(0.996694 -0.00506634 0)
(0.993223 -0.0037228 0)
(0.991779 0.000910585 0)
(0.990907 0.00670792 0)
(0.994333 0.0068463 0)
(0.995685 0.00964548 0)
(0.997599 0.0115869 0)
(1.00047 0.0104866 0)
(1.00119 0.0112574 0)
(1.00222 0.0112911 0)
(1.00269 0.0108401 0)
(1.00303 0.0103966 0)
(1.00216 0.0103472 0)
(1.00122 0.0108969 0)
(1.00029 0.0109202 0)
(0.999547 0.00176713 0)
(1.00225 -0.00230694 0)
(0.996593 0.0016263 0)
(1.00142 0.00388863 0)
(1.00415 -0.0038439 0)
(0.996755 -0.00479734 0)
(0.993429 -0.00330356 0)
(0.992251 0.000549158 0)
(0.991126 0.00685777 0)
(0.994493 0.00660327 0)
(0.995948 0.0094131 0)
(0.997677 0.0112251 0)
(1.00045 0.0105581 0)
(1.00127 0.0107842 0)
(1.00216 0.0114891 0)
(1.00261 0.0104342 0)
(1.003 0.0105621 0)
(1.00228 0.010104 0)
(1.00146 0.0109567 0)
(1.00032 0.0111647 0)
(0.999563 0.00166257 0)
(1.0022 -0.00207049 0)
(0.996731 0.00136677 0)
(1.00129 0.00400655 0)
(1.00398 -0.00403474 0)
(0.996803 -0.00413268 0)
(0.993675 -0.00341155 0)
(0.992684 0.00112513 0)
(0.991401 0.00589439 0)
(0.994643 0.00743526 0)
(0.996207 0.00842359 0)
(0.997753 0.0115857 0)
(1.00044 0.00989139 0)
(1.00139 0.011041 0)
(1.00217 0.0108558 0)
(1.00254 0.0112853 0)
(1.00298 0.0105592 0)
(1.00231 0.0110995 0)
(1.00156 0.0107937 0)
(1.0004 0.0110119 0)
(0.999556 0.00170534 0)
(1.00217 -0.00213449 0)
(0.996868 0.00138711 0)
(1.00116 0.00381463 0)
(1.0038 -0.0037917 0)
(0.996874 -0.00398903 0)
(0.993908 -0.00280051 0)
(0.993116 0.000574139 0)
(0.991724 0.00627218 0)
(0.994779 0.00701439 0)
(0.996469 0.00830696 0)
(0.997855 0.0112019 0)
(1.0004 0.0101333 0)
(1.00145 0.0104819 0)
(1.00224 0.0105878 0)
(1.00255 0.0109162 0)
(1.00302 0.0105434 0)
(1.00239 0.0109072 0)
(1.00153 0.0111297 0)
(1.00049 0.0114453 0)
(0.999545 0.00165366 0)
(1.00216 -0.00200851 0)
(0.997007 0.00126436 0)
(1.00105 0.00378844 0)
(1.0036 -0.00362142 0)
(0.99697 -0.00379017 0)
(0.994096 -0.00229286 0)
(0.993608 0.000255404 0)
(0.992039 0.00635381 0)
(0.994906 0.00671674 0)
(0.99676 0.00841285 0)
(0.998003 0.0106189 0)
(1.00034 0.0104238 0)
(1.00149 0.00978556 0)
(1.00229 0.0104979 0)
(1.00255 0.0101853 0)
(1.00303 0.0106009 0)
(1.00254 0.0105138 0)
(1.00182 0.0114679 0)
(1.00051 0.0119514 0)
(0.999552 0.00156716 0)
(1.00212 -0.0018062 0)
(0.997175 0.00100974 0)
(1.00089 0.00389234 0)
(1.00341 -0.00371478 0)
(0.997056 -0.00332372 0)
(0.994316 -0.00218152 0)
(0.994032 0.000571147 0)
(0.992409 0.00572172 0)
(0.995074 0.00730681 0)
(0.997002 0.0077765 0)
(0.99816 0.0106925 0)
(1.00028 0.01008 0)
(1.00151 0.00984513 0)
(1.00235 0.010031 0)
(1.00262 0.0104624 0)
(1.00314 0.0107345 0)
(1.00271 0.0110323 0)
(1.00206 0.0114729 0)
(1.00059 0.0119152 0)
(0.999545 0.00162079 0)
(1.0021 -0.00185775 0)
(0.997357 0.00101003 0)
(1.00074 0.00371443 0)
(1.00322 -0.00344383 0)
(0.997175 -0.00323941 0)
(0.994514 -0.00166748 0)
(0.994476 0.000393433 0)
(0.992815 0.00572178 0)
(0.995181 0.00721928 0)
(0.997271 0.00761358 0)
(0.998355 0.0104304 0)
(1.00022 0.00987792 0)
(1.00152 0.00991804 0)
(1.00247 0.00997124 0)
(1.00277 0.0106695 0)
(1.00325 0.0107278 0)
(1.00284 0.0110248 0)
(1.00221 0.0112018 0)
(1.00063 0.0114534 0)
(0.999533 0.00148446 0)
(1.00208 -0.00160844 0)
(0.99754 0.000789031 0)
(1.0006 0.00375009 0)
(1.00302 -0.00326506 0)
(0.997302 -0.00299462 0)
(0.994712 -0.00137048 0)
(0.994897 0.000527316 0)
(0.993221 0.00531694 0)
(0.995352 0.00739143 0)
(0.997516 0.00751704 0)
(0.998525 0.0099588 0)
(1.00023 0.00989087 0)
(1.00157 0.00994624 0)
(1.00259 0.00992923 0)
(1.00287 0.0105048 0)
(1.00332 0.0105496 0)
(1.00294 0.0108714 0)
(1.0023 0.0109224 0)
(1.00067 0.0110275 0)
(0.99952 0.00149749 0)
(1.00206 -0.00154797 0)
(0.997726 0.000664989 0)
(1.00046 0.00368973 0)
(1.00281 -0.00305895 0)
(0.997443 -0.00288245 0)
(0.994915 -0.000947823 0)
(0.995298 0.000487525 0)
(0.993674 0.00518687 0)
(0.995511 0.00748053 0)
(0.997707 0.0072427 0)
(0.998766 0.00968394 0)
(1.00026 0.00996355 0)
(1.00157 0.00980533 0)
(1.00267 0.00975972 0)
(1.00299 0.0102651 0)
(1.00344 0.0105147 0)
(1.00303 0.0107508 0)
(1.00236 0.0107237 0)
(1.00074 0.0107979 0)
(0.999505 0.00142003 0)
(1.00204 -0.00140862 0)
(0.997917 0.000531813 0)
(1.00033 0.0035726 0)
(1.00261 -0.0027636 0)
(0.997602 -0.00269673 0)
(0.995109 -0.000616893 0)
(0.995689 0.000585763 0)
(0.994133 0.00496067 0)
(0.995672 0.00738238 0)
(0.997921 0.00725889 0)
(0.99902 0.00943088 0)
(1.00029 0.00974268 0)
(1.00157 0.00967641 0)
(1.00278 0.00977883 0)
(1.00314 0.0101755 0)
(1.00355 0.0104187 0)
(1.00309 0.0105036 0)
(1.00241 0.0106058 0)
(1.00082 0.01065 0)
(0.999494 0.00137594 0)
(1.00201 -0.00128011 0)
(0.998104 0.000398393 0)
(1.00022 0.00346503 0)
(1.0024 -0.00244362 0)
(0.997754 -0.00257927 0)
(0.995316 -0.000258321 0)
(0.996051 0.000701291 0)
(0.994601 0.00473843 0)
(0.995882 0.00737218 0)
(0.998104 0.00725357 0)
(0.999241 0.008964 0)
(1.00036 0.00961398 0)
(1.00163 0.00969839 0)
(1.00287 0.00969433 0)
(1.00325 0.00991381 0)
(1.00363 0.0102097 0)
(1.00319 0.0103657 0)
(1.00252 0.0106054 0)
(1.00089 0.0105326 0)
(0.999482 0.00132081 0)
(1.00198 -0.00115943 0)
(0.998295 0.000290963 0)
(1.00012 0.00332009 0)
(1.0022 -0.00212489 0)
(0.997924 -0.00242859 0)
(0.995522 6.97652e-05 0)
(0.996395 0.000844926 0)
(0.995083 0.00452597 0)
(0.99609 0.00728466 0)
(0.998257 0.00719374 0)
(0.999504 0.00867399 0)
(1.0005 0.00954079 0)
(1.00165 0.00958372 0)
(1.00291 0.00953054 0)
(1.00338 0.00974758 0)
(1.0038 0.0101496 0)
(1.00334 0.0102976 0)
(1.00258 0.0104397 0)
(1.0009 0.0103261 0)
(0.999473 0.00125963 0)
(1.00195 -0.0010246 0)
(0.998476 0.000161013 0)
(1.00004 0.00316765 0)
(1.00201 -0.00176682 0)
(0.998084 -0.00224702 0)
(0.995743 0.000351572 0)
(0.99671 0.000997148 0)
(0.995557 0.00429447 0)
(0.996342 0.00718436 0)
(0.998421 0.00720918 0)
(0.999749 0.00846136 0)
(1.00061 0.00931118 0)
(1.00169 0.00944124 0)
(1.00301 0.00948026 0)
(1.00353 0.00963018 0)
(1.00392 0.00997035 0)
(1.0034 0.0100552 0)
(1.00264 0.0102248 0)
(1.00096 0.0102235 0)
(0.999466 0.00120483 0)
(1.0019 -0.000906355 0)
(0.99866 7.08627e-05 0)
(0.999981 0.0029991 0)
(1.00182 -0.001454 0)
(0.998259 -0.00206862 0)
(0.995961 0.00063997 0)
(0.99701 0.00120492 0)
(0.996043 0.0041444 0)
(0.996606 0.00701275 0)
(0.998565 0.00719542 0)
(0.999987 0.00815465 0)
(1.00079 0.0090761 0)
(1.00176 0.00934161 0)
(1.00305 0.0094204 0)
(1.00363 0.00947307 0)
(1.00405 0.00976469 0)
(1.00355 0.00992831 0)
(1.00278 0.0101402 0)
(1.00103 0.0101604 0)
(0.999461 0.00113591 0)
(1.00186 -0.000779359 0)
(0.998831 -3.72452e-05 0)
(0.99993 0.00284589 0)
(1.00165 -0.00113627 0)
(0.998428 -0.00186081 0)
(0.996204 0.000846568 0)
(0.997287 0.00144305 0)
(0.996497 0.00398137 0)
(0.996902 0.00684996 0)
(0.998713 0.00718052 0)
(1.00021 0.00795325 0)
(1.00096 0.00887701 0)
(1.00185 0.00921305 0)
(1.00314 0.0093153 0)
(1.00374 0.00935615 0)
(1.0042 0.00959174 0)
(1.00368 0.00979688 0)
(1.00287 0.00994078 0)
(1.00108 0.00999051 0)
(0.999457 0.00108892 0)
(1.00181 -0.000650111 0)
(0.999005 -0.000131378 0)
(0.9999 0.00267599 0)
(1.00149 -0.000866322 0)
(0.998601 -0.00160841 0)
(0.996443 0.00107856 0)
(0.997553 0.0016095 0)
(0.996961 0.00384283 0)
(0.997213 0.00666213 0)
(0.99886 0.00716535 0)
(1.00043 0.00777394 0)
(1.00117 0.00867168 0)
(1.00195 0.00905967 0)
(1.00319 0.00916648 0)
(1.00382 0.00924252 0)
(1.00434 0.00939831 0)
(1.00383 0.00962131 0)
(1.003 0.00973503 0)
(1.00116 0.00985577 0)
(0.999457 0.000986704 0)
(1.00176 -0.000477027 0)
(0.999159 -0.000231016 0)
(0.999885 0.00253001 0)
(1.00134 -0.00061004 0)
(0.998767 -0.00130075 0)
(0.996688 0.00129324 0)
(0.997794 0.00188473 0)
(0.997396 0.00375313 0)
(0.997562 0.00643285 0)
(0.999026 0.00709712 0)
(1.00064 0.0075785 0)
(1.00138 0.00839838 0)
(1.00208 0.00885956 0)
(1.0033 0.00902363 0)
(1.00394 0.00917794 0)
(1.00448 0.00923646 0)
(1.00395 0.00946851 0)
(1.00313 0.00956504 0)
(1.00125 0.009712 0)
(0.999455 0.000958301 0)
(1.0017 -0.000403827 0)
(0.999321 -0.000277508 0)
(0.999883 0.00226777 0)
(1.0012 -0.00027916 0)
(0.998949 -0.0012062 0)
(0.996943 0.00149597 0)
(0.998027 0.00213253 0)
(0.997806 0.00374305 0)
(0.997896 0.00624561 0)
(0.999179 0.00704924 0)
(1.00082 0.00744139 0)
(1.0016 0.00819936 0)
(1.00222 0.00873917 0)
(1.0034 0.00887665 0)
(1.00401 0.0090633 0)
(1.00459 0.00905299 0)
(1.00411 0.00929918 0)
(1.00328 0.00938485 0)
(1.00136 0.00951775 0)
(0.999458 0.000880219 0)
(1.00164 -0.000264883 0)
(0.999453 -0.000333308 0)
(0.999902 0.00205493 0)
(1.00109 -4.94945e-05 0)
(0.999114 -0.000996737 0)
(0.997226 0.0017076 0)
(0.998253 0.00242328 0)
(0.998204 0.0037506 0)
(0.998271 0.0060763 0)
(0.99937 0.00699039 0)
(1.00101 0.00734617 0)
(1.00183 0.00799883 0)
(1.00238 0.00857753 0)
(1.00352 0.00869207 0)
(1.00411 0.00895636 0)
(1.00471 0.00892826 0)
(1.00425 0.00914907 0)
(1.00339 0.00921121 0)
(1.00146 0.00932084 0)
(0.999459 0.00080194 0)
(1.00158 -0.000123668 0)
(0.999589 -0.000398336 0)
(0.999936 0.00190264 0)
(1.00098 0.000159872 0)
(0.999285 -0.000653371 0)
(0.997497 0.00189075 0)
(0.998468 0.00264851 0)
(0.998576 0.00378447 0)
(0.998637 0.00586612 0)
(0.999569 0.0068768 0)
(1.00119 0.00721039 0)
(1.00206 0.00775134 0)
(1.00255 0.00839409 0)
(1.00366 0.00850095 0)
(1.00422 0.0088008 0)
(1.00482 0.00877913 0)
(1.00439 0.00896936 0)
(1.00352 0.00904125 0)
(1.00157 0.00912516 0)
(0.999462 0.000752583 0)
(1.00151 -1.43253e-05 0)
(0.999705 -0.000395073 0)
(0.999982 0.00169141 0)
(1.0009 0.000434912 0)
(0.999451 -0.000410348 0)
(0.99778 0.00195787 0)
(0.998673 0.00277288 0)
(0.998914 0.00373353 0)
(0.999007 0.00564416 0)
(0.999787 0.00674873 0)
(1.00135 0.00710046 0)
(1.0023 0.00754278 0)
(1.00273 0.00823469 0)
(1.00381 0.00833299 0)
(1.00435 0.00864538 0)
(1.00494 0.00866746 0)
(1.00452 0.00881301 0)
(1.00364 0.00889175 0)
(1.00168 0.0089355 0)
(0.999466 0.000688058 0)
(1.00144 9.00313e-05 0)
(0.99982 -0.000359746 0)
(1.00005 0.00159241 0)
(1.00083 0.000639327 0)
(0.999607 -0.00018918 0)
(0.998055 0.00199071 0)
(0.998876 0.00285801 0)
(0.999245 0.00375305 0)
(0.999383 0.00548426 0)
(1.00003 0.00663237 0)
(1.00151 0.00701234 0)
(1.00254 0.00736257 0)
(1.00293 0.00806718 0)