/*--------------------------------*- C++ -*----------------------------------*\
| =========                 |                                                 |
| \\      /  F ield         | OpenFOAM: The Open Source CFD Toolbox           |
|  \\    /   O peration     | Version:  v2012                                 |
|   \\  /    A nd           | Website:  www.openfoam.com                      |
|    \\/     M anipulation  |                                                 |
\*---------------------------------------------------------------------------*/
FoamFile
{
    version     2.0;
    format      ascii;
    class       volVectorField;
    location    "0.3";
    object      U;
}
// * * * * * * * * * * * * * * * * * * * * * * * * * * * * * * * * * * * * * //

dimensions      [0 1 -1 0 0 0 0];


internalField   nonuniform List<vector> 
7000
(
(0.83884 -0.00557626 0)
(1.10518 -0.00225179 0)
(0.987733 0.00666061 0)
(1.13012 0.00317032 0)
(0.740436 -0.0115418 0)
(1.34982 -0.00325854 0)
(0.760939 -0.00604511 0)
(1.261 0.00955122 0)
(0.881816 0.00927061 0)
(1.18098 0.0170846 0)
(0.856167 0.00326678 0)
(1.15915 -0.00529191 0)
(0.864194 -0.014736 0)
(1.15955 -0.0153679 0)
(0.888244 -0.020608 0)
(1.16529 -0.0146072 0)
(0.906342 -0.0151623 0)
(1.16814 -0.00856084 0)
(0.912418 -0.00793862 0)
(1.16209 -0.0028892 0)
(0.848856 -0.00540278 0)
(1.10049 -0.00291849 0)
(0.992919 0.00635813 0)
(1.12178 0.00501283 0)
(0.768937 -0.0135224 0)
(1.3328 -0.0029943 0)
(0.789398 -0.00571895 0)
(1.24587 0.00898752 0)
(0.910626 0.0095952 0)
(1.1558 0.0176335 0)
(0.913139 0.00331162 0)
(1.11378 -0.00504429 0)
(0.926281 -0.0150229 0)
(1.10109 -0.0155946 0)
(0.948303 -0.0209313 0)
(1.09954 -0.0151034 0)
(0.973701 -0.0151811 0)
(1.09232 -0.00911528 0)
(0.995638 -0.00730567 0)
(1.07003 -0.00306484 0)
(0.865541 -0.00526343 0)
(1.09025 -0.00349382 0)
(1.00341 0.00621554 0)
(1.1069 0.00634591 0)
(0.813312 -0.0152048 0)
(1.29807 -0.00274912 0)
(0.843226 -0.00540275 0)
(1.21047 0.0081711 0)
(0.961145 0.0103236 0)
(1.11706 0.0179396 0)
(0.975526 0.00374126 0)
(1.06671 -0.00501472 0)
(0.977138 -0.0148474 0)
(1.0451 -0.0159369 0)
(0.991813 -0.0207967 0)
(1.04049 -0.0158233 0)
(1.01418 -0.0148775 0)
(1.03897 -0.00997703 0)
(1.03043 -0.00634497 0)
(1.02965 -0.00353332 0)
(0.886396 -0.00514857 0)
(1.07497 -0.00402885 0)
(1.01683 0.00612802 0)
(1.08761 0.00738832 0)
(0.86414 -0.0165528 0)
(1.24646 -0.00273083 0)
(0.90806 -0.00497696 0)
(1.16216 0.00734778 0)
(1.01172 0.0111395 0)
(1.08357 0.0178907 0)
(1.01797 0.00438033 0)
(1.03644 -0.00495475 0)
(1.00186 -0.0143545 0)
(1.01218 -0.0162638 0)
(1.00549 -0.0204997 0)
(1.00894 -0.0165649 0)
(1.02051 -0.0146832 0)
(1.0156 -0.0107538 0)
(1.03186 -0.00581047 0)
(1.01674 -0.00370499 0)
(0.908974 -0.00503817 0)
(1.05684 -0.00457059 0)
(1.02962 0.00605229 0)
(1.06668 0.00823749 0)
(0.912293 -0.0175977 0)
(1.1845 -0.00295002 0)
(0.965881 -0.00446017 0)
(1.11507 0.00656857 0)
(1.04727 0.0117852 0)
(1.06454 0.0178642 0)
(1.03914 0.00507511 0)
(1.02465 -0.00469273 0)
(1.00843 -0.0137548 0)
(0.999944 -0.016449 0)
(1.00326 -0.0201722 0)
(0.99677 -0.0172062 0)
(1.01253 -0.0145996 0)
(1.00635 -0.0114649 0)
(1.02241 -0.0055247 0)
(1.01195 -0.00389039 0)
(0.930913 -0.00492887 0)
(1.03879 -0.00510358 0)
(1.03849 0.00600589 0)
(1.04718 0.00887386 0)
(0.951197 -0.0182889 0)
(1.12225 -0.00333132 0)
(1.00521 -0.00401546 0)
(1.07963 0.00590065 0)
(1.06482 0.0121813 0)
(1.05796 0.0179924 0)
(1.04691 0.00575225 0)
(1.02378 -0.00425165 0)
(1.00845 -0.0130955 0)
(0.998088 -0.0165017 0)
(0.997981 -0.019791 0)
(0.992529 -0.0177411 0)
(1.00302 -0.0145326 0)
(1.00103 -0.0121416 0)
(1.01212 -0.00539106 0)
(1.00779 -0.00415064 0)
(0.950346 -0.00482271 0)
(1.02331 -0.00559831 0)
(1.04166 0.00598437 0)
(1.03144 0.00931381 0)
(0.978448 -0.0186334 0)
(1.06902 -0.00378196 0)
(1.02426 -0.00377438 0)
(1.05763 0.0053727 0)
(1.06864 0.0123316 0)
(1.05684 0.0181975 0)
(1.04865 0.00640498 0)
(1.02607 -0.00372189 0)
(1.00831 -0.0123765 0)
(0.99919 -0.0164708 0)
(0.994714 -0.0193261 0)
(0.990425 -0.018171 0)
(0.996042 -0.0144359 0)
(0.996302 -0.0127646 0)
(1.00382 -0.00534032 0)
(1.00283 -0.00444197 0)
(0.966218 -0.00472337 0)
(1.01166 -0.0060283 0)
(1.03918 0.00597142 0)
(1.02035 0.00959552 0)
(0.99514 -0.0186925 0)
(1.02999 -0.00421818 0)
(1.02782 -0.00377086 0)
(1.04461 0.00493178 0)
(1.06442 0.0122959 0)
(1.05538 0.0183844 0)
(1.04795 0.00703941 0)
(1.02752 -0.00318696 0)
(1.00938 -0.0116075 0)
(1.00038 -0.016387 0)
(0.993803 -0.0187707 0)
(0.988917 -0.0184934 0)
(0.991682 -0.0142849 0)
(0.991869 -0.0132824 0)
(0.997509 -0.00534311 0)
(0.997513 -0.0047219 0)
(0.978317 -0.00463452 0)
(1.00388 -0.00637742 0)
(1.03255 0.0059547 0)
(1.01348 0.00975244 0)
(1.00404 -0.0185464 0)
(1.00543 -0.00458448 0)
(1.0227 -0.00395042 0)
(1.03505 0.00451535 0)
(1.0561 0.0121577 0)
(1.05105 0.0184938 0)
(1.04569 0.00764616 0)
(1.02724 -0.00270212 0)
(1.01098 -0.0108134 0)
(1.00124 -0.0162627 0)
(0.994272 -0.0181443 0)
(0.987954 -0.0187043 0)
(0.989117 -0.0140652 0)
(0.988086 -0.0136695 0)
(0.992583 -0.00536564 0)
(0.992411 -0.00496925 0)
(0.987051 -0.00455879 0)
(0.999191 -0.00663864 0)
(1.02391 0.00592737 0)
(1.00979 0.00980834 0)
(1.00801 -0.0182691 0)
(0.992328 -0.00486365 0)
(1.01459 -0.00421651 0)
(1.02573 0.00410006 0)
(1.04567 0.0119752 0)
(1.04387 0.0184962 0)
(1.04194 0.00820032 0)
(1.02576 -0.00230024 0)
(1.01227 -0.0100227 0)
(1.00195 -0.016109 0)
(0.995274 -0.0174763 0)
(0.987604 -0.0187989 0)
(0.987654 -0.0137835 0)
(0.985183 -0.0139039 0)
(0.988643 -0.00538962 0)
(0.987884 -0.0051496 0)
(0.993143 -0.00449689 0)
(0.996609 -0.00681404 0)
(1.01522 0.00588616 0)
(1.00814 0.00978167 0)
(1.00925 -0.0179166 0)
(0.986756 -0.0050629 0)
(1.00679 -0.00447407 0)
(1.01606 0.00369758 0)
(1.03425 0.0117731 0)
(1.035 0.0183804 0)
(1.03701 0.00867096 0)
(1.02378 -0.00200171 0)
(1.01295 -0.00925735 0)
(1.00267 -0.0159399 0)
(0.996329 -0.0167857 0)
(0.987747 -0.0187826 0)
(0.986842 -0.0134554 0)
(0.983158 -0.0139717 0)
(0.9855 -0.00538876 0)
(0.984123 -0.00524038 0)
(0.997358 -0.00444752 0)
(0.995274 -0.00691467 0)
(1.00772 0.0058298 0)
(1.00765 0.00968869 0)
(1.00916 -0.0175253 0)
(0.985381 -0.00519987 0)
(1.00062 -0.00465907 0)
(1.0069 0.00333222 0)
(1.02286 0.0115619 0)
(1.02582 0.0181451 0)
(1.03158 0.00903512 0)
(1.0218 -0.00181477 0)
(1.01304 -0.00853073 0)
(1.00343 -0.0157642 0)
(0.997215 -0.016087 0)
(0.988172 -0.0186599 0)
(0.98639 -0.0130999 0)
(0.981869 -0.0138857 0)
(0.983062 -0.00534394 0)
(0.981192 -0.0052203 0)
(1.00033 -0.00440883 0)
(0.994602 -0.00695409 0)
(1.00184 0.00575891 0)
(1.00763 0.00954444 0)
(1.00852 -0.0171154 0)
(0.985953 -0.00529365 0)
(0.996153 -0.00474731 0)
(0.999214 0.00302281 0)
(1.01258 0.011351 0)
(1.01745 0.0177957 0)
(1.02633 0.00928613 0)
(1.02004 -0.00173464 0)
(1.01273 -0.00784945 0)
(1.00415 -0.0155827 0)
(0.997858 -0.0153965 0)
(0.988697 -0.0184304 0)
(0.986126 -0.0127397 0)
(0.981122 -0.0136543 0)
(0.981252 -0.00527403 0)
(0.979047 -0.00510233 0)
(1.00252 -0.00437901 0)
(0.99425 -0.00694469 0)
(0.997454 0.00567582 0)
(1.00762 0.00936115 0)
(1.00772 -0.0166968 0)
(0.987164 -0.00536031 0)
(0.993024 -0.00474118 0)
(0.993468 0.00277506 0)
(1.00417 0.0111492 0)
(1.01057 0.0173456 0)
(1.0217 0.00943026 0)
(1.01853 -0.00174717 0)
(1.01216 -0.00721627 0)
(1.00475 -0.0153884 0)
(0.998266 -0.0147306 0)
(0.989215 -0.0180978 0)
(0.985972 -0.012386 0)
(0.98075 -0.0132992 0)
(0.979985 -0.00517892 0)
(0.977572 -0.00489967 0)
(1.00417 -0.00435643 0)
(0.99404 -0.00689617 0)
(0.994191 0.00558424 0)
(1.00733 0.00914742 0)
(1.00691 -0.0162745 0)
(0.98835 -0.00540991 0)
(0.990802 -0.004656 0)
(0.989559 0.00258128 0)
(0.997877 0.0109629 0)
(1.00535 0.0168133 0)
(1.01784 0.00948565 0)
(1.01716 -0.00183379 0)
(1.01143 -0.00663192 0)
(1.00514 -0.0151691 0)
(0.998483 -0.0141067 0)
(0.989688 -0.017666 0)
(0.985914 -0.0120376 0)
(0.980641 -0.0128559 0)
(0.979185 -0.00504441 0)
(0.976639 -0.004623 0)
(1.0054 -0.00433948 0)
(0.993884 -0.00681554 0)
(0.991676 0.00548852 0)
(1.00669 0.00890867 0)
(1.00613 -0.0158504 0)
(0.989252 -0.00544899 0)
(0.989174 -0.00451075 0)
(0.987085 0.0024265 0)
(0.993501 0.0107949 0)
(1.00162 0.0162212 0)
(1.01468 0.00947413 0)
(1.01585 -0.00197505 0)
(1.01057 -0.00610014 0)
(1.00529 -0.0149132 0)
(0.998565 -0.0135342 0)
(0.990118 -0.0171454 0)
(0.985972 -0.0116966 0)
(0.980743 -0.012338 0)
(0.978786 -0.00487925 0)
(0.976144 -0.0042962 0)
(1.00623 -0.00432631 0)
(0.993748 -0.00670818 0)
(0.989682 0.00539266 0)
(1.00577 0.0086483 0)
(1.00536 -0.0154257 0)
(0.989846 -0.0054824 0)
(0.987967 -0.00432206 0)
(0.985607 0.00229668 0)
(0.990628 0.0106435 0)
(0.999036 0.0155922 0)
(1.01208 0.00941183 0)
(1.01452 -0.00214977 0)
(1.00963 -0.00562839 0)
(1.0052 -0.0146119 0)
(0.998562 -0.0130232 0)
(0.990519 -0.0165491 0)
(0.986164 -0.0113709 0)
(0.981036 -0.0117669 0)
(0.978736 -0.00467947 0)
(0.976023 -0.00392775 0)
(1.00665 -0.00431469 0)
(0.993622 -0.00657926 0)
(0.988138 0.00529943 0)
(1.00478 0.00836938 0)
(1.00459 -0.0150006 0)
(0.990224 -0.00551339 0)
(0.987109 -0.0041025 0)
(0.984795 0.00217973 0)
(0.988854 0.0105073 0)
(0.997323 0.0149435 0)
(1.00998 0.00931462 0)
(1.01318 -0.00233432 0)
(1.00866 -0.00522459 0)
(1.00494 -0.0142625 0)
(0.998513 -0.0125815 0)
(0.990897 -0.015891 0)
(0.986489 -0.0110578 0)
(0.981506 -0.0111732 0)
(0.978988 -0.00445178 0)
(0.976235 -0.00353363 0)
(1.00668 -0.00430206 0)
(0.993508 -0.00643473 0)
(0.987077 0.00520981 0)
(1.00389 0.00807578 0)
(1.00383 -0.0145745 0)
(0.990503 -0.00554584 0)
(0.98658 -0.00386177 0)
(0.984451 0.00206857 0)
(0.987887 0.0103799 0)
(0.996285 0.0142908 0)
(1.00834 0.00919559 0)
(1.01192 -0.00250878 0)
(1.00771 -0.0048941 0)
(1.00455 -0.0138694 0)
(0.99844 -0.0122039 0)
(0.991248 -0.015192 0)
(0.98692 -0.0107404 0)
(0.982124 -0.0105682 0)
(0.979492 -0.00420701 0)
(0.976736 -0.00312878 0)
(1.00638 -0.00428587 0)
(0.993412 -0.00628156 0)
(0.986547 0.00512311 0)
(1.00326 0.00777227 0)
(1.00314 -0.0141454 0)
(0.990764 -0.00558424 0)
(0.986363 -0.0036064 0)
(0.984467 0.00195813 0)
(0.987546 0.0102576 0)
(0.995811 0.0136419 0)
(1.00717 0.00905055 0)
(1.01081 -0.00265721 0)
(1.00686 -0.0046402 0)
(1.00411 -0.0134297 0)
(0.998356 -0.0118895 0)
(0.991559 -0.0144752 0)
(0.98741 -0.0104153 0)
(0.982842 -0.00995671 0)
(0.980182 -0.00393556 0)
(0.977473 -0.00270748 0)
(1.00586 -0.00426377 0)
(0.993335 -0.00612725 0)
(0.986541 0.00503755 0)
(1.00292 0.00746383 0)
(1.00256 -0.0137114 0)
(0.991034 -0.00563037 0)
(0.986422 -0.00334159 0)
(0.984771 0.00184592 0)
(0.987704 0.0101343 0)
(0.995803 0.0130057 0)
(1.00645 0.00887564 0)
(1.00993 -0.00275927 0)
(1.00616 -0.00446094 0)
(1.00368 -0.0129379 0)
(0.998266 -0.0116335 0)
(0.991817 -0.0137617 0)
(0.987905 -0.0100831 0)
(0.983601 -0.00936039 0)
(0.980987 -0.00365892 0)
(0.978372 -0.00228636 0)
(1.00525 -0.00423436 0)
(0.993278 -0.00597744 0)
(0.986965 0.00495161 0)
(1.00283 0.00715454 0)
(1.00213 -0.0132695 0)
(0.991302 -0.00568585 0)
(0.986692 -0.00307283 0)
(0.985287 0.00173193 0)
(0.988233 0.00999951 0)
(0.996135 0.0123942 0)
(1.0061 0.00868065 0)
(1.0093 -0.00280054 0)
(1.00563 -0.00434319 0)
(1.00328 -0.0124041 0)
(0.998175 -0.0114106 0)
(0.99202 -0.0130603 0)
(0.98836 -0.0097425 0)
(0.984345 -0.00878973 0)
(0.981831 -0.00338904 0)
(0.979349 -0.00187759 0)
(1.00466 -0.00419698 0)
(0.993242 -0.00583664 0)
(0.987656 0.00486401 0)
(1.00287 0.00684712 0)
(1.00186 -0.0128176 0)
(0.991541 -0.00575015 0)
(0.987089 -0.0028067 0)
(0.98593 0.00161333 0)
(0.988985 0.00984929 0)
(0.996654 0.0118168 0)
(1.00599 0.00845703 0)
(1.00886 -0.00277943 0)
(1.00524 -0.00427313 0)
(1.00294 -0.0118399 0)
(0.998092 -0.0111992 0)
(0.992173 -0.0123827 0)
(0.98875 -0.00938384 0)
(0.985036 -0.00823473 0)
(0.982654 -0.00311111 0)
(0.980328 -0.00147369 0)
(1.00416 -0.00415162 0)
(0.993231 -0.0057078 0)
(0.988434 0.00477414 0)
(1.00296 0.00654227 0)
(1.0017 -0.0123548 0)
(0.991738 -0.0058219 0)
(0.987529 -0.0025442 0)
(0.98661 0.00149339 0)
(0.989811 0.00967265 0)
(0.997204 0.0112838 0)
(1.00596 0.00819382 0)
(1.00856 -0.00269494 0)
(1.00498 -0.00424546 0)
(1.00263 -0.0112467 0)
(0.998026 -0.0109844 0)
(0.992296 -0.0117414 0)
(0.989078 -0.00901223 0)
(0.985657 -0.00769834 0)
(0.983417 -0.00285019 0)
(0.981248 -0.00109694 0)
(1.00379 -0.00409913 0)
(0.993248 -0.00559067 0)
(0.989156 0.00468272 0)
(1.003 0.00623958 0)
(1.00162 -0.0118813 0)
(0.991895 -0.00589837 0)
(0.987946 -0.00228905 0)
(0.987257 0.00137779 0)
(0.990591 0.00945892 0)
(0.997672 0.0108034 0)
(1.00591 0.00789408 0)
(1.00832 -0.00256073 0)
(1.00477 -0.00424444 0)
(1.00236 -0.0106368 0)
(0.99798 -0.0107534 0)
(0.992409 -0.0111289 0)
(0.989359 -0.00863559 0)
(0.986214 -0.00719051 0)
(0.984107 -0.00260588 0)
(0.982083 -0.000746491 0)
(1.00354 -0.00404051 0)
(0.993296 -0.00548368 0)
(0.989744 0.0045908 0)
(1.00298 0.00593756 0)
(1.00157 -0.0113982 0)
(0.992032 -0.00597581 0)
(0.988307 -0.00204854 0)
(0.987826 0.00127023 0)
(0.991253 0.00920772 0)
(0.998002 0.0103765 0)
(1.00577 0.00756609 0)
(1.00806 -0.00238335 0)
(1.00459 -0.00425017 0)
(1.00211 -0.010036 0)
(0.997954 -0.0104985 0)
(0.992529 -0.0105319 0)
(0.989616 -0.00823762 0)
(0.986725 -0.00669364 0)
(0.984735 -0.00236704 0)
(0.98283 -0.000416303 0)
(1.00337 -0.00397663 0)
(0.993372 -0.00538516 0)
(0.990186 0.00450022 0)
(1.00287 0.00563404 0)
(1.00153 -0.0109069 0)
(0.992166 -0.00605176 0)
(0.988603 -0.00182387 0)
(0.988303 0.00117858 0)
(0.991782 0.00891554 0)
(0.998192 0.0100007 0)
(1.00554 0.0072003 0)
(1.00778 -0.00217518 0)
(1.0044 -0.00425984 0)
(1.00186 -0.00945005 0)
(0.997947 -0.0102142 0)
(0.992668 -0.00995733 0)
(0.98987 -0.00782967 0)
(0.987209 -0.00621158 0)
(0.985319 -0.0021365 0)
(0.983507 -0.000106514 0)
(1.00325 -0.00390818 0)
(0.993472 -0.00529318 0)
(0.990507 0.00441185 0)
(1.00271 0.00532904 0)
(1.00146 -0.0104113 0)
(0.992311 -0.00612188 0)
(0.988847 -0.00161818 0)
(0.988698 0.00111399 0)
(0.992196 0.00857675 0)
(0.998272 0.00966559 0)
(1.00524 0.00679937 0)
(1.00745 -0.00195484 0)
(1.00419 -0.00425903 0)
(1.00162 -0.00888757 0)
(0.997951 -0.00989955 0)
(0.99283 -0.00940982 0)
(0.990133 -0.00742186 0)
(0.987684 -0.00576163 0)
(0.985884 -0.00191094 0)
(0.984134 0.000186022 0)
(1.00316 -0.00383565 0)
(0.993592 -0.00520668 0)
(0.99075 0.00432697 0)
(1.00251 0.00502194 0)
(1.00138 -0.00991393 0)
(0.992471 -0.00618203 0)
(0.989058 -0.00143703 0)
(0.989031 0.0010817 0)
(0.992528 0.00819662 0)
(0.998281 0.0093619 0)
(1.00488 0.00638796 0)
(1.0071 -0.00173672 0)
(1.00396 -0.00422976 0)
(1.00139 -0.00835657 0)
(0.997962 -0.00955788 0)
(0.993014 -0.00888071 0)
(0.990407 -0.00699309 0)
(0.988158 -0.00532281 0)
(0.986444 -0.00169016 0)
(0.984732 0.0004597 0)
(1.00308 -0.00375912 0)
(0.993725 -0.00512545 0)
(0.990949 0.00424645 0)
(1.0023 0.00471267 0)
(1.00128 -0.00941633 0)
(0.992646 -0.00623045 0)
(0.989255 -0.00128356 0)
(0.989322 0.00109313 0)
(0.992812 0.00777095 0)
(0.998252 0.0090902 0)
(1.00451 0.00598589 0)
(1.00672 -0.00153615 0)
(1.00372 -0.00416752 0)
(1.00116 -0.00784909 0)
(0.997977 -0.00918945 0)
(0.993219 -0.0083658 0)
(0.990695 -0.0065377 0)
(0.988632 -0.00488743 0)
(0.987008 -0.00147623 0)
(0.985314 0.000718412 0)
(1.00301 -0.00367882 0)
(0.993866 -0.00504877 0)
(0.991129 0.00416975 0)
(1.00208 0.00440283 0)
(1.00117 -0.00892382 0)
(0.992831 -0.00625971 0)
(0.989451 -0.0011607 0)
(0.989588 0.00114336 0)
(0.993068 0.00731475 0)
(0.998207 0.00883727 0)
(1.00413 0.00558319 0)
(1.00634 -0.00137024 0)
(1.00347 -0.00407457 0)
(1.00094 -0.00736341 0)
(0.997996 -0.00881018 0)
(0.993442 -0.0078679 0)
(0.990995 -0.00606607 0)
(0.989104 -0.00446365 0)
(0.987578 -0.00129056 0)
(0.985889 0.00094663 0)
(1.00292 -0.00359465 0)
(0.994015 -0.00497669 0)
(0.991303 0.00409666 0)
(1.00186 0.00409267 0)
(1.00105 -0.00843771 0)
(0.993023 -0.00626633 0)
(0.989652 -0.00108031 0)
(0.989839 0.00122852 0)
(0.993313 0.00683688 0)
(0.998157 0.00859565 0)
(1.00375 0.00519939 0)
(1.00597 -0.00125029 0)
(1.00322 -0.00394995 0)
(1.00073 -0.00689708 0)
(0.998016 -0.00842673 0)
(0.993683 -0.00739786 0)
(0.991303 -0.00559684 0)
(0.989567 -0.00403637 0)
(0.988152 -0.00112539 0)
(0.986462 0.00114268 0)
(1.00284 -0.00350652 0)
(0.994167 -0.00491006 0)
(0.991478 0.00402872 0)
(1.00165 0.00378396 0)
(1.00092 -0.0079595 0)
(0.993217 -0.0062504 0)
(0.989862 -0.00104056 0)
(0.990083 0.00134629 0)
(0.993554 0.00634486 0)
(0.99811 0.00834628 0)
(1.00337 0.004871 0)
(1.0056 -0.00117264 0)
(1.00298 -0.00380052 0)
(1.00052 -0.00643666 0)
(0.998037 -0.00803145 0)
(0.993939 -0.00694762 0)
(0.991624 -0.00514054 0)
(0.99002 -0.00359504 0)
(0.988725 -0.000973124 0)
(0.987035 0.001299 0)
(1.00275 -0.00341453 0)
(0.994323 -0.00484889 0)
(0.991655 0.00396608 0)
(1.00145 0.00347996 0)
(1.00079 -0.00749817 0)
(0.993411 -0.00620213 0)
(0.990082 -0.00103793 0)
(0.990321 0.0014844 0)
(0.993791 0.00585346 0)
(0.998069 0.00807645 0)
(1.003 0.00458624 0)
(1.00524 -0.00114251 0)
(1.00275 -0.00363967 0)
(1.00031 -0.00596952 0)
(0.998057 -0.00761228 0)
(0.99421 -0.0065087 0)
(0.991957 -0.00469919 0)
(0.990459 -0.00314943 0)
(0.989287 -0.000835342 0)
(0.987609 0.00140379 0)
(1.00266 -0.00331855 0)
(0.994481 -0.00479216 0)
(0.991835 0.00390419 0)
(1.00126 0.00318454 0)
(1.00066 -0.00705481 0)
(0.993604 -0.00611689 0)
(0.990312 -0.00107555 0)
(0.990553 0.00163878 0)
(0.994027 0.005369 0)
(0.998036 0.00778007 0)
(1.00262 0.00435711 0)
(1.00489 -0.00113929 0)
(1.00253 -0.00347986 0)
(1.00012 -0.00549748 0)
(0.998077 -0.00716562 0)
(0.994492 -0.00608854 0)
(0.992306 -0.00428813 0)
(0.990885 -0.002704 0)
(0.989832 -0.00069143 0)
(0.988181 0.00146674 0)
(1.00257 -0.00321905 0)
(0.994641 -0.0047394 0)
(0.992015 0.00384329 0)
(1.00108 0.00289431 0)
(1.00054 -0.00662984 0)
(0.993796 -0.00599686 0)
(0.990554 -0.00114473 0)
(0.990782 0.00180382 0)
(0.994259 0.00490859 0)
(0.998014 0.00743871 0)
(1.00225 0.00419045 0)
(1.00454 -0.0011387 0)
(1.00234 -0.00333822 0)
(0.999933 -0.00502753 0)
(0.998092 -0.00670568 0)
(0.99478 -0.00568575 0)
(0.992672 -0.00391865 0)
(0.991301 -0.00227 0)
(0.990352 -0.000526702 0)
(0.988748 0.00149335 0)
(1.00248 -0.00311561 0)
(0.994804 -0.00469161 0)
(0.992196 0.00378423 0)
(1.00091 0.00261589 0)
(1.00041 -0.00623457 0)
(0.993984 -0.0058387 0)
(0.990808 -0.00123821 0)
(0.991006 0.00196567 0)
(0.994483 0.00448251 0)
(0.998004 0.00704774 0)
(1.00189 0.00406818 0)
(1.0042 -0.00112991 0)
(1.00217 -0.00321542 0)
(0.999764 -0.0045679 0)
(0.998102 -0.00622772 0)
(0.995069 -0.00528725 0)
(0.993056 -0.00358925 0)
(0.991714 -0.00186359 0)
(0.990842 -0.000327743 0)
(0.989302 0.00150095 0)
(1.00238 -0.00300876 0)
(0.994969 -0.00464725 0)
(0.992376 0.00372652 0)
(1.00074 0.00235457 0)
(1.00029 -0.00586918 0)
(0.994169 -0.00564732 0)
(0.991075 -0.00135114 0)
(0.991228 0.00210974 0)
(0.994698 0.00410035 0)
(0.998008 0.00661136 0)
(1.00153 0.00396564 0)
(1.00385 -0.00110435 0)
(1.00202 -0.00310573 0)
(0.999612 -0.00411791 0)
(0.998107 -0.00573124 0)
(0.995355 -0.00488946 0)
(0.993455 -0.00328841 0)
(0.992131 -0.00151358 0)
(0.991302 -9.84629e-05 0)
(0.989837 0.00150992 0)
(1.00229 -0.00289851 0)
(0.995138 -0.00460721 0)
(0.992557 0.0036638 0)
(1.00058 0.0021101 0)
(1.00018 -0.00553194 0)
(0.99435 -0.00543026 0)
(0.991353 -0.00147579 0)
(0.99145 0.00222923 0)
(0.9949 0.00377568 0)
(0.998026 0.00614003 0)
(1.00118 0.00388845 0)
(1.00351 -0.00104561 0)
(1.00189 -0.00300194 0)
(0.999483 -0.00368974 0)
(0.998107 -0.00521942 0)
(0.995631 -0.00450536 0)
(0.99386 -0.0030019 0)
(0.992558 -0.00123509 0)
(0.991739 0.000139167 0)
(0.990346 0.00152859 0)
(1.0022 -0.00278477 0)
(0.99531 -0.00457155 0)
(0.992737 0.003594 0)
(1.00043 0.00188721 0)
(1.00007 -0.005226 0)
(0.994525 -0.00518451 0)
(0.991643 -0.0016001 0)
(0.991676 0.00231552 0)
(0.995088 0.00351032 0)
(0.998058 0.00564938 0)
(1.00085 0.00382414 0)
(1.00316 -0.000953179 0)
(1.00177 -0.00290888 0)
(0.999379 -0.00328839 0)
(0.998102 -0.00471102 0)
(0.995896 -0.00412623 0)
(0.994268 -0.0027246 0)
(0.992995 -0.000999021 0)
(0.992161 0.000364715 0)
(0.990829 0.00156076 0)
(1.00211 -0.00266915 0)
(0.995487 -0.00453594 0)
(0.992918 0.0035166 0)
(1.00028 0.00168872 0)
(0.999967 -0.00494602 0)
(0.994695 -0.0049241 0)
(0.991942 -0.00171025 0)
(0.991906 0.00235344 0)
(0.995261 0.00330021 0)
(0.998102 0.00514477 0)
(1.00054 0.00373989 0)
(1.0028 -0.000833928 0)
(1.00168 -0.00282511 0)
(0.999302 -0.00291729 0)
(0.998094 -0.00420569 0)
(0.996147 -0.00375402 0)
(0.994673 -0.00245344 0)
(0.993442 -0.000800365 0)
(0.99257 0.000559975 0)
(0.991286 0.00160442 0)
(1.00201 -0.00255024 0)
(0.995668 -0.00450301 0)
(0.993101 0.0034274 0)
(1.00013 0.00152235 0)
(0.999871 -0.00469447 0)
(0.994859 -0.00465557 0)
(0.992247 -0.00180067 0)
(0.992145 0.00234259 0)
(0.99542 0.00313527 0)
(0.998156 0.00464737 0)
(1.00025 0.00363385 0)
(1.00245 -0.000682061 0)
(1.0016 -0.00273726 0)
(0.999255 -0.0025883 0)
(0.998083 -0.0036788 0)
(0.996382 -0.00339569 0)
(0.99507 -0.00219052 0)
(0.993893 -0.000639999 0)
(0.992975 0.00072386 0)
(0.991721 0.00166096 0)
(1.00192 -0.00243044 0)
(0.995854 -0.00446827 0)
(0.993286 0.00332514 0)
(0.999988 0.0013884 0)
(0.999781 -0.00446771 0)
(0.995018 -0.0043851 0)
(0.992556 -0.00186307 0)
(0.992392 0.00229395 0)
(0.995567 0.00299256 0)
(0.998219 0.00417975 0)
(0.999993 0.00351793 0)
(1.00209 -0.000502719 0)
(1.00152 -0.00263499 0)
(0.999243 -0.00230705 0)
(0.998073 -0.00315643 0)
(0.996594 -0.00303723 0)
(0.995456 -0.00194965 0)
(0.994347 -0.000498853 0)
(0.993381 0.00085522 0)
(0.992139 0.00172225 0)
(1.00183 -0.00230872 0)
(0.996043 -0.00443413 0)
(0.993477 0.00320894 0)
(0.999847 0.00127874 0)
(0.999697 -0.00425478 0)
(0.995172 -0.00412526 0)
(0.992864 -0.00189035 0)
(0.992645 0.00221088 0)
(0.995704 0.00286829 0)
(0.99829 0.00374303 0)
(0.999762 0.00338553 0)
(1.00173 -0.000300126 0)
(1.00145 -0.00251601 0)
(0.999263 -0.0020856 0)
(0.998068 -0.00266175 0)
(0.996781 -0.00265964 0)
(0.995828 -0.0017272 0)
(0.994802 -0.000373012 0)
(0.99379 0.000958639 0)
(0.992544 0.00178146 0)
(1.00174 -0.0021856 0)
(0.996236 -0.00440026 0)
(0.993672 0.0030789 0)
(0.999711 0.00119504 0)
(0.999619 -0.0040586 0)
(0.995323 -0.00387525 0)
(0.99317 -0.00189069 0)
(0.992905 0.0021057 0)
(0.995831 0.00275965 0)
(0.998366 0.00332948 0)
(0.999564 0.00323933 0)
(1.00138 -7.32442e-05 0)
(1.00137 -0.0023776 0)
(0.999317 -0.00191354 0)
(0.998081 -0.00220863 0)
(0.996942 -0.00225178 0)
(0.996175 -0.00151587 0)
(0.995255 -0.00026941 0)
(0.994204 0.00103899 0)
(0.992937 0.0018381 0)
(1.00165 -0.00206316 0)
(0.996431 -0.00436147 0)
(0.993874 0.00293373 0)
(0.999581 0.00113297 0)
(0.999546 -0.00387222 0)
(0.995472 -0.00363774 0)
(0.993473 -0.00187203 0)
(0.99317 0.00198908 0)
(0.995948 0.00266015 0)
(0.998447 0.00293292 0)
(0.999402 0.00308438 0)
(1.00103 0.000164349 0)
(1.00129 -0.00221148 0)
(0.999398 -0.00177813 0)
(0.998119 -0.00182005 0)
(0.997079 -0.00183699 0)
(0.99649 -0.00130343 0)
(0.995703 -0.000185263 0)
(0.994626 0.00109096 0)
(0.993322 0.00188651 0)
(1.00156 -0.00193999 0)
(0.996627 -0.00432153 0)
(0.994083 0.00277752 0)
(0.999456 0.00108439 0)
(0.999479 -0.00368444 0)
(0.995619 -0.00342423 0)
(0.993771 -0.00183457 0)
(0.993438 0.00186972 0)
(0.996055 0.00257053 0)
(0.998531 0.00256886 0)
(0.999279 0.00291082 0)
(1.00069 0.000406506 0)
(1.00119 -0.00201008 0)
(0.999501 -0.00167317 0)
(0.998188 -0.00149806 0)
(0.997201 -0.0014307 0)
(0.996769 -0.00106798 0)
(0.996138 -0.000114508 0)
(0.995056 0.00111058 0)
(0.993705 0.00191763 0)
(1.00147 -0.00181783 0)
(0.996824 -0.0042774 0)
(0.994299 0.00261531 0)
(0.999339 0.00104665 0)
(0.999417 -0.00349528 0)
(0.995764 -0.00322821 0)
(0.994065 -0.00178128 0)
(0.993707 0.00175035 0)
(0.996152 0.0024916 0)
(0.998614 0.00224111 0)
(0.999195 0.0027179 0)
(1.00037 0.000654079 0)
(1.00107 -0.00176643 0)
(0.999617 -0.00157633 0)
(0.998294 -0.00125204 0)
(0.99732 -0.00105038 0)
(0.997007 -0.000816024 0)
(0.996549 -3.77084e-05 0)
(0.995495 0.0011064 0)
(0.99409 0.0019288 0)
(1.00139 -0.00169679 0)
(0.997021 -0.00422756 0)
(0.994521 0.00244785 0)
(0.99923 0.00101338 0)
(0.99936 -0.00329338 0)
(0.995909 -0.00304408 0)
(0.994354 -0.00172379 0)
(0.993979 0.0016278 0)
(0.996238 0.00242965 0)
(0.998693 0.00194846 0)
(0.99915 0.00249838 0)
(1.00008 0.000892375 0)
(1.00093 -0.00148716 0)
(0.999732 -0.00146134 0)
(0.998434 -0.00107924 0)
(0.997447 -0.000717833 0)
(0.997211 -0.000553625 0)
(0.996929 5.6917e-05 0)
(0.995933 0.00108125 0)
(0.99448 0.00190772 0)
(1.0013 -0.00157786 0)
(0.997217 -0.00417156 0)
(0.994749 0.00227297 0)
(0.99913 0.000978187 0)
(0.999308 -0.00307913 0)
(0.996052 -0.00287115 0)
(0.99464 -0.00166573 0)
(0.994253 0.00149715 0)
(0.996315 0.00239203 0)
(0.998762 0.0016871 0)
(0.999143 0.00226324 0)
(0.999817 0.001103 0)
(1.00077 -0.0011833 0)
(0.999835 -0.00131219 0)
(0.998601 -0.000960148 0)
(0.997593 -0.000440767 0)
(0.997387 -0.000285524 0)
(0.997266 0.000155905 0)
(0.996359 0.00103533 0)
(0.994876 0.00183467 0)
(1.00122 -0.00145992 0)
(0.997412 -0.00410821 0)
(0.994983 0.00209061 0)
(0.99904 0.000935034 0)
(0.99926 -0.00285595 0)
(0.996194 -0.00269838 0)
(0.994921 -0.00161238 0)
(0.994533 0.00135762 0)
(0.996383 0.00236901 0)
(0.998817 0.0014679 0)
(0.999171 0.00200808 0)
(0.999589 0.00128454 0)
(1.0006 -0.000872791 0)
(0.999917 -0.0011323 0)
(0.998785 -0.000862422 0)
(0.997766 -0.000235432 0)
(0.997541 -2.33477e-05 0)
(0.997555 0.00027211 0)
(0.996758 0.000999418 0)
(0.995274 0.00171982 0)
(1.00113 -0.00134678 0)
(0.997604 -0.00402899 0)
(0.995221 0.00189825 0)
(0.99896 0.000888325 0)
(0.999216 -0.00262753 0)
(0.996331 -0.00252551 0)
(0.995195 -0.00156182 0)
(0.994818 0.00120614 0)
(0.996449 0.00234773 0)
(0.998854 0.00131351 0)
(0.999231 0.00173151 0)
(0.999404 0.00143355 0)
(1.00043 -0.000570567 0)
(0.999975 -0.000917532 0)
(0.998971 -0.000757075 0)
(0.997968 -0.000101437 0)
(0.997692 0.000214771 0)
(0.997798 0.000390524 0)
(0.997114 0.000985704 0)
(0.995664 0.00157649 0)
(1.00105 -0.00123769 0)
(0.997791 -0.00393392 0)
(0.995463 0.0016996 0)
(0.998891 0.000834258 0)
(0.999177 -0.00240247 0)
(0.996463 -0.00234214 0)
(0.995462 -0.00150923 0)
(0.995109 0.0010486 0)
(0.996516 0.00232909 0)
(0.99887 0.00122063 0)
(0.999315 0.00145935 0)
(0.999263 0.00152245 0)
(1.00025 -0.000282314 0)
(1.00001 -0.000677579 0)
(0.999144 -0.000623672 0)
(0.998193 -2.35218e-05 0)
(0.997843 0.000408725 0)
(0.998003 0.000485958 0)
(0.99742 0.000990341 0)
(0.996036 0.00142227 0)
(1.00098 -0.00113195 0)
(0.997974 -0.00382486 0)
(0.995707 0.00149484 0)
(0.998833 0.000773338 0)
(0.999143 -0.00218759 0)
(0.996588 -0.00214217 0)
(0.995718 -0.00145106 0)
(0.995407 0.000875813 0)
(0.996589 0.0023001 0)
(0.998864 0.00118275 0)
(0.999413 0.00120439 0)
(0.999169 0.00154817 0)
(1.00008 -1.78673e-05 0)
(1.00003 -0.000440982 0)
(0.999294 -0.000455115 0)
(0.998429 6.20927e-06 0)
(0.998001 0.000556445 0)
(0.99818 0.000553262 0)
(0.997678 0.00100746 0)
(0.99638 0.0012787 0)
(1.0009 -0.00103215 0)
(0.99815 -0.00369748 0)
(0.995952 0.00128169 0)
(0.998786 0.000708593 0)
(0.999115 -0.00198781 0)
(0.996706 -0.00194006 0)
(0.995958 -0.0013686 0)
(0.995708 0.000686531 0)
(0.996674 0.00224044 0)
(0.998838 0.00120043 0)
(0.999516 0.000978894 0)
(0.999121 0.00153696 0)
(0.999936 0.000227422 0)
(1.00003 -0.000227699 0)
(0.999412 -0.000246962 0)
(0.998663 1.20929e-05 0)
(0.998168 0.000669506 0)
(0.998339 0.000602711 0)
(0.997896 0.00103058 0)
(0.996691 0.00116377 0)
(1.00083 -0.000936833 0)
(0.99832 -0.00355848 0)
(0.996195 0.0010666 0)
(0.99875 0.00064326 0)
(0.999094 -0.00180765 0)
(0.996819 -0.00173084 0)
(0.996179 -0.00126077 0)
(0.996007 0.000496209 0)
(0.996776 0.00214708 0)
(0.998795 0.00126311 0)
(0.999616 0.000796523 0)
(0.999118 0.00149279 0)
(0.999803 0.000457166 0)
(1.00004 -5.0902e-05 0)
(0.999499 -1.09247e-05 0)
(0.998883 2.2841e-05 0)
(0.998345 0.000742218 0)
(0.998483 0.000639578 0)
(0.998081 0.00104637 0)
(0.996968 0.00107676 0)
(1.00076 -0.000846817 0)
(0.998482 -0.0034087 0)
(0.996437 0.000854085 0)
(0.998725 0.000574766 0)
(0.999081 -0.00164561 0)
(0.996927 -0.00152696 0)
(0.996379 -0.00111959 0)
(0.996299 0.000315615 0)
(0.996899 0.002015 0)
(0.998741 0.00133823 0)
(0.999704 0.000674195 0)
(0.999155 0.00140232 0)
(0.999689 0.000661869 0)
(1.00004 7.85069e-05 0)
(0.999563 0.000233595 0)
(0.999076 6.681e-05 0)
(0.998527 0.000778956 0)
(0.998621 0.000666875 0)
(0.998241 0.00105528 0)
(0.997212 0.00102243 0)
(1.0007 -0.00076289 0)
(0.998635 -0.00324906 0)
(0.996675 0.000648912 0)
(0.998712 0.000500752 0)
(0.999075 -0.00150071 0)
(0.997036 -0.00133112 0)
(0.996557 -0.000956161 0)
(0.996576 0.000168114 0)
(0.997042 0.00183406 0)
(0.998684 0.00141265 0)
(0.999772 0.000619066 0)
(0.999225 0.00127933 0)
(0.999592 0.000850668 0)
(1.00005 0.000177964 0)
(0.999617 0.000462825 0)
(0.999232 0.000160392 0)
(0.998705 0.000800031 0)
(0.998756 0.000689655 0)
(0.998386 0.00105527 0)
(0.997426 0.000997697 0)
(1.00064 -0.000683963 0)
(0.99878 -0.00308586 0)
(0.996909 0.000458137 0)
(0.998707 0.000425018 0)
(0.999079 -0.0013784 0)
(0.997146 -0.00114765 0)
(0.996715 -0.000780879 0)
(0.996832 6.62928e-05 0)
(0.997203 0.00162026 0)
(0.998634 0.00146528 0)
(0.999816 0.000618256 0)
(0.999322 0.00115255 0)
(0.999516 0.00101527 0)
(1.00007 0.000257718 0)
(0.999671 0.000639054 0)
(0.999352 0.000282942 0)
(0.998864 0.00082357 0)
(0.998885 0.000713399 0)
(0.998524 0.00104104 0)
(0.997615 0.000994701 0)
(1.00058 -0.00061042 0)
(0.998916 -0.0029192 0)
(0.997138 0.000285008 0)
(0.998711 0.000342907 0)
(0.99909 -0.00127696 0)
(0.99726 -0.000981954 0)
(0.996857 -0.000601147 0)
(0.997062 1.51197e-05 0)
(0.997376 0.00140509 0)
(0.998599 0.00146746 0)
(0.999837 0.000664744 0)
(0.999434 0.00103356 0)
(0.999455 0.00114653 0)
(1.00008 0.000316258 0)
(0.999733 0.000768792 0)
(0.999449 0.000419141 0)
(0.999005 0.00086421 0)
(0.999003 0.000752914 0)
(0.998659 0.00101809 0)
(0.997788 0.00100713 0)
(1.00052 -0.000542759 0)
(0.999043 -0.00275047 0)
(0.99736 0.000130361 0)
(0.998722 0.000258108 0)
(0.999109 -0.00119343 0)
(0.997379 -0.000833603 0)
(0.996986 -0.00041963 0)
(0.997266 5.59064e-06 0)
(0.997552 0.00120945 0)
(0.998585 0.00141351 0)
(0.99984 0.000741667 0)
(0.999553 0.000929587 0)