/*--------------------------------*- C++ -*----------------------------------*\
| =========                 |                                                 |
| \\      /  F ield         | OpenFOAM: The Open Source CFD Toolbox           |
|  \\    /   O peration     | Version:  v2012                                 |
|   \\  /    A nd           | Website:  www.openfoam.com                      |
|    \\/     M anipulation  |                                                 |
\*---------------------------------------------------------------------------*/
FoamFile
{
    version     2.0;
    format      ascii;
    class       surfaceScalarField;
    location    "3.3";
    object      phi;
}
// * * * * * * * * * * * * * * * * * * * * * * * * * * * * * * * * * * * * * //

dimensions      [0 3 -1 0 0 0 0];
oriented        oriented;


internalField   nonuniform List<scalar> 
13830
(
1.0023e-06
-1.22757e-06
9.09461e-07
2.69581e-06
9.05229e-07
-1.50139e-06
1.00287e-06
-2.34739e-06
1.01464e-06
-1.92001e-06
9.76386e-07
-3.81993e-07
1.00523e-06
-1.07017e-07
9.6269e-07
1.47428e-07
9.82684e-07
5.0882e-07
9.62886e-07
4.4817e-07
9.63536e-07
1.58236e-07
9.67523e-07
1.10895e-07
9.62444e-07
-1.6348e-07
9.67547e-07
-4.83993e-08
9.6926e-07
-2.65122e-07
9.68555e-07
-1.62418e-07
9.72959e-07
-2.32585e-07
9.6774e-07
-1.57258e-07
9.69561e-07
-1.34737e-07
-1.2122e-07
9.50413e-07
1.0405e-06
-1.29554e-06
9.88265e-07
2.74804e-06
9.61775e-07
-1.4749e-06
1.02993e-06
-2.41555e-06
1.05629e-06
-1.94637e-06
1.01959e-06
-3.45286e-07
1.04771e-06
-1.3514e-07
1.00474e-06
1.904e-07
1.01861e-06
4.9495e-07
1.01102e-06
4.55756e-07
1.00272e-06
1.66537e-07
1.01647e-06
9.71475e-08
1.00276e-06
-1.49774e-07
1.01485e-06
-6.04903e-08
1.00629e-06
-2.56565e-07
1.01385e-06
-1.69975e-07
1.00641e-06
-2.25147e-07
1.01212e-06
-1.6297e-07
9.99993e-07
-1.22606e-07
-1.21021e-07
9.99794e-07
1.07762e-06
-1.3637e-06
1.06146e-06
2.7642e-06
1.0114e-06
-1.42484e-06
1.05586e-06
-2.46001e-06
1.0953e-06
-1.98581e-06
1.06908e-06
-3.19063e-07
1.09086e-06
-1.56918e-07
1.05727e-06
2.23987e-07
1.05742e-06
4.94798e-07
1.06594e-06
4.4724e-07
1.04715e-06
1.85324e-07
1.06571e-06
7.85879e-08
1.04468e-06
-1.28739e-07
1.05641e-06
-7.2227e-08
1.04121e-06
-2.4136e-07
1.04968e-06
-1.78446e-07
1.03819e-06
-2.13654e-07
1.04561e-06
-1.70397e-07
1.03377e-06
-1.10764e-07
-1.20955e-07
1.03371e-06
1.11385e-06
-1.42977e-06
1.12569e-06
2.75236e-06
1.05584e-06
-1.35499e-06
1.08191e-06
-2.48608e-06
1.12967e-06
-2.03357e-06
1.11965e-06
-3.09045e-07
1.13314e-06
-1.7041e-07
1.11283e-06
2.44301e-07
1.10266e-06
5.04972e-07
1.11907e-06
4.30828e-07
1.09682e-06
2.07575e-07
1.11022e-06
6.51879e-08
1.08823e-06
-1.06753e-07
1.09271e-06
-7.67063e-08
1.07653e-06
-2.25177e-07
1.08098e-06
-1.82894e-07
1.07017e-06
-2.02851e-07
1.07633e-06
-1.76554e-07
1.06742e-06
-1.0185e-07
-1.20769e-07
1.06723e-06
1.14878e-06
-1.491e-06
1.17861e-06
2.72252e-06
1.09697e-06
-1.27334e-06
1.10914e-06
-2.49826e-06
1.15927e-06
-2.0837e-06
1.16696e-06
-3.16733e-07
1.17336e-06
-1.76811e-07
1.16573e-06
2.51933e-07
1.15331e-06
5.17396e-07
1.16886e-06
4.15279e-07
1.14857e-06
2.27865e-07
1.15231e-06
6.14445e-08
1.13172e-06
-8.61616e-08
1.12893e-06
-7.39168e-08
1.11268e-06
-2.08924e-07
1.1135e-06
-1.83715e-07
1.10318e-06
-1.92533e-07
1.10808e-06
-1.81452e-07
1.10128e-06
-9.50553e-08
-1.20685e-07
1.1012e-06
1.18232e-06
-1.54447e-06
1.22104e-06
2.68379e-06
1.13803e-06
-1.19032e-06
1.13889e-06
-2.49912e-06
1.18596e-06
-2.13078e-06
1.20919e-06
-3.39964e-07
1.21218e-06
-1.79802e-07
1.21433e-06
2.49792e-07
1.20617e-06
5.25547e-07
1.21645e-06
4.05002e-07
1.19895e-06
2.45369e-07
1.19402e-06
6.63673e-08
1.17392e-06
-6.60533e-08
1.16687e-06
-6.68742e-08
1.14988e-06
-1.91934e-07
1.14853e-06
-1.82358e-07
1.13776e-06
-1.81766e-07
1.14145e-06
-1.85145e-07
1.13569e-06
-8.92942e-08
-1.20596e-07
1.1356e-06
1.21488e-06
-1.58765e-06
1.25574e-06
2.64294e-06
1.18116e-06
-1.11574e-06
1.17227e-06
-2.49023e-06
1.21239e-06
-2.17089e-06
1.24706e-06
-3.74632e-07
1.25073e-06
-1.83476e-07
1.25973e-06
2.40795e-07
1.25778e-06
5.275e-07
1.26253e-06
4.00254e-07
1.246e-06
2.61898e-07
1.2357e-06
7.66664e-08
1.21494e-06
-4.52955e-08
1.20647e-06
-5.84087e-08
1.18859e-06
-1.7405e-07
1.18611e-06
-1.7988e-07
1.17448e-06
-1.70137e-07
1.17681e-06
-1.87474e-07
1.17134e-06
-8.38256e-08
-1.20061e-07
1.17081e-06
1.24749e-06
-1.61897e-06
1.28666e-06
2.60377e-06
1.22712e-06
-1.0562e-06
1.21004e-06
-2.47315e-06
1.24089e-06
-2.20175e-06
1.28241e-06
-4.16152e-07
1.28938e-06
-1.9044e-07
1.30322e-06
2.26957e-07
1.30591e-06
5.24807e-07
1.30679e-06
3.99373e-07
1.28958e-06
2.79107e-07
1.27706e-06
8.91895e-08
1.25562e-06
-2.38644e-08
1.24752e-06
-5.03026e-08
1.22923e-06
-1.55764e-07
1.22623e-06
-1.7688e-07
1.21389e-06
-1.57792e-07
1.21461e-06
-1.88202e-07
1.20913e-06
-7.83376e-08
-1.18541e-07
1.20761e-06
1.28159e-06
-1.6382e-06
1.31786e-06
2.5675e-06
1.27563e-06
-1.01398e-06
1.25242e-06
-2.44993e-06
1.27294e-06
-2.22227e-06
1.31704e-06
-4.60257e-07
1.32774e-06
-2.01141e-07
1.34508e-06
2.0962e-07
1.34992e-06
5.19969e-07
1.34875e-06
4.00543e-07
1.33056e-06
2.97296e-07
1.31806e-06
1.0169e-07
1.29681e-06
-2.6128e-09
1.29006e-06
-4.35584e-08
1.2721e-06
-1.37804e-07
1.26888e-06
-1.73654e-07
1.25629e-06
-1.452e-07
1.25523e-06
-1.87146e-07
1.2497e-06
-7.28078e-08
-1.15664e-07
1.24682e-06
1.31866e-06
-1.64658e-06
1.35255e-06
2.53361e-06
1.32612e-06
-9.87549e-07
1.2991e-06
-2.42292e-06
1.30916e-06
-2.23233e-06
1.35225e-06
-5.03343e-07
1.36541e-06
-2.14295e-07
1.38507e-06
1.89953e-07
1.39021e-06
5.14831e-07
1.38839e-06
4.02361e-07
1.37006e-06
3.15634e-07
1.35907e-06
1.12677e-07
1.3391e-06
1.73514e-08
1.33428e-06
-3.87357e-08
1.31733e-06
-1.20847e-07
1.314e-06
-1.70327e-07
1.30172e-06
-1.32921e-07
1.29882e-06
-1.84248e-07
1.29334e-06
-6.73266e-08
-1.11329e-07
1.289e-06
1.35981e-06
-1.64637e-06
1.39253e-06
2.50089e-06
1.37815e-06
-9.73171e-07
1.3494e-06
-2.39417e-06
1.34964e-06
-2.23257e-06
1.38896e-06
-5.42661e-07
1.40242e-06
-2.27753e-07
1.42321e-06
1.69159e-07
1.42779e-06
5.10254e-07
1.42639e-06
4.0376e-07
1.40918e-06
3.32848e-07
1.40071e-06
1.21147e-07
1.38297e-06
3.50924e-08
1.38032e-06
-3.60896e-08
1.36489e-06
-1.05418e-07
1.36149e-06
-1.66928e-07
1.35003e-06
-1.21462e-07
1.34537e-06
-1.79588e-07
1.34004e-06
-6.19959e-08
-1.0565e-07
1.33436e-06
1.40548e-06
-1.64019e-06
1.43816e-06
2.4682e-06
1.43154e-06
-9.66545e-07
1.40251e-06
-2.36514e-06
1.39411e-06
-2.22418e-06
1.42788e-06
-5.76429e-07
1.43944e-06
-2.39313e-07
1.46018e-06
1.48417e-07
1.46404e-06
5.064e-07
1.46394e-06
4.03853e-07
1.449e-06
3.47791e-07
1.44369e-06
1.26457e-07
1.42876e-06
5.00233e-08
1.42826e-06
-3.5596e-08
1.41473e-06
-9.18816e-08
1.41122e-06
-1.63422e-07
1.40098e-06
-1.11218e-07
1.39476e-06
-1.73372e-07
1.38966e-06
-5.68937e-08
-9.88617e-08
1.38287e-06
1.45545e-06
-1.6304e-06
1.48878e-06
2.43487e-06
1.48622e-06
-9.63987e-07
1.45773e-06
-2.33664e-06
1.44218e-06
-2.20863e-06
1.46959e-06
-6.03833e-07
1.47759e-06
-2.4732e-07
1.49726e-06
1.28755e-07
1.50056e-06
5.03097e-07
1.50251e-06
4.019e-07
1.49057e-06
3.59734e-07
1.48871e-06
1.28315e-07
1.47681e-06
6.19245e-08
1.47818e-06
-3.69687e-08
1.46678e-06
-8.04784e-08
1.46307e-06
-1.59711e-07
1.45429e-06
-1.02445e-07
1.44682e-06
-1.65897e-07
1.442e-06
-5.20761e-08
-9.12482e-08
1.43439e-06
1.50914e-06
-1.61866e-06
1.54334e-06
2.40067e-06
1.54224e-06
-9.62889e-07
1.51466e-06
-2.30906e-06
1.4935e-06
-2.18748e-06
1.51456e-06
-6.24896e-07
1.5182e-06
-2.50954e-07
1.53599e-06
1.10965e-07
1.539e-06
5.00088e-07
1.54355e-06
3.9735e-07
1.53485e-06
3.68432e-07
1.53638e-06
1.26782e-07
1.52743e-06
7.08775e-08
1.53016e-06
-3.97042e-08
1.52103e-06
-7.13481e-08
1.51696e-06
-1.55634e-07
1.50975e-06
-9.52392e-08
1.50136e-06
-1.57506e-07
1.49686e-06
-4.75801e-08
-8.31021e-08
1.48872e-06
1.56593e-06
-1.60598e-06
1.60097e-06
2.36563e-06
1.59971e-06
-9.61637e-07
1.57315e-06
-2.2825e-06
1.54785e-06
-2.16217e-06
1.56322e-06
-6.40264e-07
1.56248e-06
-2.50219e-07
1.57788e-06
9.55608e-08
1.5808e-06
4.97174e-07
1.58825e-06
3.89895e-07
1.58266e-06
3.74028e-07
1.58718e-06
1.22263e-07
1.5809e-06
7.71521e-08
1.58435e-06
-4.31549e-08
1.57753e-06
-6.45276e-08
1.57292e-06
-1.51027e-07
1.56719e-06
-8.95083e-08
1.55823e-06
-1.48539e-07
1.55405e-06
-4.34045e-08
-7.46988e-08
1.54565e-06
1.62539e-06
-1.59283e-06
1.66115e-06
2.32988e-06
1.65879e-06
-9.59281e-07
1.63325e-06
-2.25695e-06
1.60513e-06
-2.13405e-06
1.61586e-06
-6.50994e-07
1.61133e-06
-2.4569e-07
1.62414e-06
8.2756e-08
1.62703e-06
4.94281e-07
1.63742e-06
3.79501e-07
1.63456e-06
3.76892e-07
1.64138e-06
1.15445e-07
1.63745e-06
8.10784e-08
1.64091e-06
-4.6612e-08
1.63631e-06
-5.99339e-08
1.63107e-06
-1.45782e-07
1.62657e-06
-8.50051e-08
1.61733e-06
-1.39303e-07
1.61342e-06
-3.94964e-08
-6.62721e-08
1.605e-06
1.68733e-06
-1.57942e-06
1.72373e-06
2.29348e-06
1.71968e-06
-9.55233e-07
1.69507e-06
-2.23234e-06
1.66534e-06
-2.10433e-06
1.6727e-06
-6.5835e-07
1.66521e-06
-2.38201e-07
1.67548e-06
7.24874e-08
1.67829e-06
4.91466e-07
1.69138e-06
3.66413e-07
1.69082e-06
3.77456e-07
1.69906e-06
1.07206e-07
1.6972e-06
8.29319e-08
1.7e-06
-4.94058e-08
1.69744e-06
-5.73785e-08
1.69154e-06
-1.39878e-07
1.68793e-06
-8.13951e-08
1.67866e-06
-1.30031e-07
1.67494e-06
-3.57749e-08
-5.79872e-08
1.66665e-06
1.75171e-06
-1.56581e-06
1.78874e-06
2.25645e-06
1.78261e-06
-9.49095e-07
1.75879e-06
-2.20853e-06
1.72851e-06
-2.07404e-06
1.73379e-06
-6.63637e-07
1.72417e-06
-2.28582e-07
1.73218e-06
6.44868e-08
1.73473e-06
4.88907e-07
1.75002e-06
3.51129e-07
1.7514e-06
3.76078e-07
1.76011e-06
9.8491e-08
1.76017e-06
8.28771e-08
1.76179e-06
-5.10244e-08
1.76097e-06
-5.65669e-08
1.75448e-06
-1.33382e-07
1.75141e-06
-7.83292e-08
1.74227e-06
-1.20888e-07
1.73865e-06
-3.21588e-08
-4.99411e-08
1.73061e-06
1.81856e-06
-1.55203e-06
1.85629e-06
2.21872e-06
1.84779e-06
-9.406e-07
1.82463e-06
-2.18537e-06
1.79463e-06
-2.04404e-06
1.79906e-06
-6.68066e-07
1.78802e-06
-2.17537e-07
1.79413e-06
5.83795e-08
1.79618e-06
4.86847e-07
1.81295e-06
3.34361e-07
1.81603e-06
3.73001e-07
1.82431e-06
9.0206e-08
1.82619e-06
8.10039e-08
1.82636e-06
-5.11997e-08
1.82692e-06
-5.71252e-08
1.82e-06
-1.2646e-07
1.81716e-06
-7.54953e-08
1.80826e-06
-1.11987e-07
1.8047e-06
-2.85987e-08
-4.21822e-08
1.79694e-06
1.88793e-06
-1.53806e-06
1.92646e-06
2.18019e-06
1.91547e-06
-9.29618e-07
1.89281e-06
-2.1627e-06
1.86372e-06
-2.01496e-06
1.86831e-06
-6.72653e-07
1.85639e-06
-2.0562e-07
1.86101e-06
5.37654e-08
1.86232e-06
4.85533e-07
1.87971e-06
3.1697e-07
1.88437e-06
3.6834e-07
1.89142e-06
8.31593e-08
1.89505e-06
7.7375e-08
1.89375e-06
-4.98959e-08
1.89529e-06
-5.86648e-08
1.88816e-06
-1.19338e-07
1.88533e-06
-7.26633e-08
1.87675e-06
-1.03408e-07
1.87325e-06
-2.50939e-08
-3.47419e-08
1.86581e-06
1.95989e-06
-1.52385e-06
1.99935e-06
2.14073e-06
1.98588e-06
-9.16148e-07
1.96355e-06
-2.14037e-06
1.93575e-06
-1.98716e-06
1.94125e-06
-6.78153e-07
1.9289e-06
-1.93268e-07
1.9324e-06
5.02614e-08
1.93281e-06
4.85124e-07
1.9499e-06
2.99877e-07
1.95614e-06
3.62103e-07
1.96132e-06
7.79841e-08
1.9666e-06
7.20897e-08
1.96394e-06
-4.72328e-08
1.96607e-06
-6.08003e-08
1.95901e-06
-1.12274e-07
1.95604e-06
-6.969e-08
1.94783e-06
-9.52004e-08
1.94443e-06
-2.16945e-08
-2.76594e-08
1.93735e-06
2.03453e-06
-1.50933e-06
2.07505e-06
2.10022e-06
2.05921e-06
-9.00311e-07
2.03709e-06
-2.11825e-06
2.01066e-06
-1.96073e-06
2.01751e-06
-6.85009e-07
2.00509e-06
-1.80841e-07
2.00784e-06
4.7509e-08
2.00736e-06
4.85606e-07
2.02326e-06
2.83979e-07
2.03113e-06
3.54226e-07
2.03404e-06
7.50726e-08
2.04078e-06
6.53554e-08
2.03697e-06
-4.34297e-08
2.03934e-06
-6.31639e-08
2.03257e-06
-1.0551e-07
2.02939e-06
-6.65072e-08
2.02158e-06
-8.73859e-08
2.01836e-06
-1.84762e-08
-2.09945e-08
2.01169e-06
2.11195e-06
-1.49444e-06
2.15363e-06
2.05853e-06
2.13564e-06
-8.82327e-07
2.11363e-06
-2.09623e-06
2.08839e-06
-1.93549e-06
2.09671e-06
-6.93332e-07
2.08453e-06
-1.6866e-07
2.08687e-06
4.51742e-08
2.08574e-06
4.86732e-07
2.09966e-06
2.70062e-07
2.1092e-06
3.44684e-07
2.10973e-06
7.45421e-08
2.11763e-06
5.74576e-08
2.11297e-06
-3.87762e-08
2.1152e-06
-6.53932e-08
2.10893e-06
-9.92352e-08
2.10553e-06
-6.3107e-08
2.09808e-06
-7.99365e-08
2.09512e-06
-1.55161e-08
-1.48248e-08
2.08895e-06
2.19224e-06
-1.47909e-06
2.23515e-06
2.01562e-06
2.21532e-06
-8.62497e-07
2.19336e-06
-2.07427e-06
2.1689e-06
-1.91103e-06
2.17849e-06
-7.02923e-07
2.16686e-06
-1.57024e-07
2.16908e-06
4.29542e-08
2.16782e-06
4.87992e-07
2.17913e-06
2.58746e-07
2.19036e-06
3.33456e-07
2.18861e-06
7.62983e-08
2.19731e-06
4.87519e-08
2.19212e-06
-3.35861e-08
2.19387e-06
-6.71384e-08
2.18818e-06
-9.35505e-08
2.18462e-06
-5.95445e-08
2.17743e-06
-7.27481e-08
2.17479e-06
-1.28715e-08
-9.23009e-09
2.16919e-06
2.27551e-06
-1.46321e-06
2.3197e-06
1.97143e-06
2.29838e-06
-8.4118e-07
2.27647e-06
-2.05236e-06
2.2522e-06
-1.88676e-06
2.26261e-06
-7.13335e-07
2.25183e-06
-1.46241e-07
2.25418e-06
4.06002e-08
2.25352e-06
4.88655e-07
2.26192e-06
2.50351e-07
2.27477e-06
3.20607e-07
2.27098e-06
8.00866e-08
2.28007e-06
3.96579e-08
2.27465e-06
-2.81683e-08
2.2756e-06
-6.80873e-08
2.27048e-06
-8.84244e-08
2.26684e-06
-5.59066e-08
2.25977e-06
-6.56823e-08
2.25746e-06
-1.05576e-08
-4.25919e-09
2.25249e-06
2.36188e-06
-1.44671e-06
2.40737e-06
1.92594e-06
2.38495e-06
-8.18762e-07
2.36311e-06
-2.03051e-06
2.33834e-06
-1.86199e-06
2.34897e-06
-7.23964e-07
2.33937e-06
-1.3664e-07
2.34202e-06
3.79507e-08
2.34279e-06
4.8789e-07
2.34828e-06
2.44858e-07
2.36261e-06
3.06277e-07
2.35715e-06
8.55497e-08
2.36619e-06
3.0611e-08
2.36079e-06
-2.2765e-08
2.36074e-06
-6.8034e-08
2.35599e-06
-8.3674e-08
2.35227e-06
-5.21866e-08
2.3453e-06
-5.87127e-08
2.34327e-06
-8.52655e-09
9.39365e-11
2.33891e-06
2.45145e-06
-1.42948e-06
2.4983e-06
1.87909e-06
2.47517e-06
-7.9563e-07
2.45338e-06
-2.00873e-06
2.42746e-06
-1.83607e-06
2.43763e-06
-7.34143e-07
2.42959e-06
-1.28592e-07
2.43259e-06
3.49484e-08
2.43558e-06
4.84899e-07
2.43845e-06
2.41984e-07
2.45406e-06
2.90667e-07
2.44736e-06
9.22516e-08
2.45595e-06
2.20235e-08
2.4507e-06
-1.75212e-08
2.44958e-06
-6.69071e-08
2.4449e-06
-7.89956e-08
2.4405e-06
-4.77862e-08
2.43419e-06
-5.2405e-08
2.43239e-06
-6.72848e-09
3.91481e-09
2.42857e-06
2.54434e-06
-1.41142e-06
2.59266e-06
1.83078e-06
2.56916e-06
-7.72134e-07
2.5474e-06
-1.98697e-06
2.51971e-06
-1.80837e-06
2.52878e-06
-7.43216e-07
2.52268e-06
-1.22496e-07
2.52597e-06
3.16615e-08
2.53185e-06
4.79018e-07
2.53258e-06
2.41259e-07
2.54921e-06
2.74035e-07
2.54177e-06
9.96946e-08
2.54952e-06
1.42714e-08
2.54457e-06
-1.25756e-08
2.5423e-06
-6.46302e-08
2.53749e-06
-7.41944e-08
2.53643e-06
-4.67226e-08
2.52927e-06
-4.52409e-08
2.52505e-06
-2.5071e-09
7.32991e-09
2.52163e-06
2.64068e-06
-1.39243e-06
2.69061e-06
1.78085e-06
2.66705e-06
-7.48572e-07
2.64521e-06
-1.96512e-06
2.61531e-06
-1.77847e-06
2.62267e-06
-7.50579e-07
2.61888e-06
-1.18704e-07
2.62231e-06
2.82268e-08
2.63152e-06
4.69813e-07
2.6307e-06
2.42072e-07
2.64803e-06
2.5671e-07
2.64047e-06
1.0725e-07
2.64691e-06
7.83138e-09
2.64258e-06
-8.24142e-09
2.63929e-06
-6.13429e-08
2.6327e-06
-6.75995e-08
2.6282e-06
-4.22228e-08
2.62181e-06
-3.88576e-08
2.62124e-06
-1.93676e-09
1.02713e-08
2.6183e-06
2.74061e-06
-1.37238e-06
2.79233e-06
1.72913e-06
2.76893e-06
-7.25174e-07
2.74684e-06
-1.94303e-06
2.7145e-06
-1.74613e-06
2.71964e-06
-7.5572e-07
2.71836e-06
-1.17419e-07
2.72182e-06
2.47622e-08
2.73449e-06
4.57147e-07
2.73284e-06
2.43719e-07
2.75038e-06
2.39174e-07
2.74361e-06
1.14016e-07
2.74804e-06
3.40387e-09
2.74491e-06
-5.11078e-09
2.74008e-06
-5.65163e-08
2.73258e-06
-6.00977e-08
2.72691e-06
-3.65494e-08
2.71995e-06
-3.18981e-08
2.72148e-06
-3.47292e-09
1.30958e-08
2.71866e-06
2.84426e-06
-1.35118e-06
2.89797e-06
1.67542e-06
2.87489e-06
-7.02094e-07
2.85231e-06
-1.92046e-06
2.81755e-06
-1.71137e-06
2.82006e-06
-7.58227e-07
2.82136e-06
-1.18721e-07
2.82472e-06
2.13968e-08
2.84074e-06
4.41127e-07
2.83892e-06
2.45543e-07
2.8562e-06
2.21889e-07
2.85107e-06
1.19148e-07
2.85295e-06
1.52064e-09
2.85164e-06
-3.79876e-09
2.84551e-06
-5.03824e-08
2.84541e-06
-6.00038e-08
2.84529e-06
-3.64249e-08
2.83958e-06
-2.61919e-08
2.82685e-06
9.2571e-09
1.71955e-08
2.82275e-06
2.9518e-06
-1.32873e-06
3.00764e-06
1.61958e-06
2.98496e-06
-6.79417e-07
2.96165e-06
-1.89715e-06
2.92471e-06
-1.67443e-06
2.92429e-06
-7.57808e-07
2.92811e-06
-1.22532e-07
2.93129e-06
1.82137e-08
2.95031e-06
4.22104e-07
2.94884e-06
2.47012e-07
2.96558e-06
2.05147e-07
2.96255e-06
1.22178e-07
2.96194e-06
2.13298e-09
2.96332e-06
-5.17831e-09
2.9569e-06
-4.39653e-08
2.94843e-06
-5.15259e-08
2.93825e-06
-2.62505e-08
2.93029e-06
-1.82278e-08
2.93432e-06
5.22962e-09
2.00822e-08
2.93143e-06
3.0634e-06
-1.30497e-06
3.12147e-06
1.56151e-06
3.09922e-06
-6.57167e-07
3.0749e-06
-1.87283e-06
3.03625e-06
-1.63578e-06
3.03276e-06
-7.54323e-07
3.03884e-06
-1.28609e-07
3.0418e-06
1.52489e-08
3.06332e-06
4.0059e-07
3.06261e-06
2.47724e-07
3.07877e-06
1.88988e-07
3.07751e-06
1.23431e-07
3.0758e-06
3.84409e-09
3.07695e-06
-6.3227e-09
3.07151e-06
-3.85259e-08
3.07237e-06
-5.23936e-08
3.07109e-06
-2.49697e-08
3.06503e-06
-1.21686e-08
3.04846e-06
2.18088e-08
2.47276e-08
3.04381e-06
3.17925e-06
-1.27986e-06
3.23955e-06
1.5012e-06
3.21772e-06
-6.35335e-07
3.19211e-06
-1.84721e-06
3.1524e-06
-1.59608e-06
3.14578e-06
-7.47696e-07
3.15388e-06
-1.36716e-07
3.15649e-06
1.26408e-08
3.18012e-06
3.76964e-07
3.18004e-06
2.47802e-07
3.19633e-06
1.72703e-07
3.19491e-06
1.2485e-07
3.19526e-06
3.49309e-09
3.19411e-06
-5.17309e-09
3.19007e-06
-3.44898e-08
3.17382e-06
-3.61381e-08
3.16604e-06
-1.7193e-08
3.16036e-06
-6.49212e-09
3.16395e-06
1.82179e-08
2.73945e-08
3.16129e-06
3.29954e-06
-1.25339e-06
3.36199e-06
1.43875e-06
3.34054e-06
-6.13883e-07
3.31342e-06
-1.8201e-06
3.27332e-06
-1.55598e-06
3.26376e-06
-7.3813e-07
3.27336e-06
-1.46319e-07
3.27588e-06
1.01192e-08
3.30066e-06
3.52184e-07
3.30207e-06
2.46397e-07
3.31735e-06
1.57419e-07
3.31768e-06
1.24518e-07
3.31686e-06
4.31979e-09
3.30979e-06
1.89e-09
3.30161e-06
-2.63036e-08
3.29333e-06
-2.78564e-08
3.28642e-06
-1.02894e-08
3.28043e-06
-4.94646e-10
3.2854e-06
1.32427e-08
2.99703e-08
3.28283e-06
3.42449e-06
-1.22559e-06
3.48891e-06
1.37433e-06
3.46781e-06
-5.92791e-07
3.43901e-06
-1.79129e-06
3.39909e-06
-1.51606e-06
3.38706e-06
-7.26099e-07
3.3974e-06
-1.56653e-07
3.40048e-06
7.0386e-09
3.42501e-06
3.27651e-07
3.42929e-06
2.42122e-07
3.44162e-06
1.45087e-07
3.44615e-06
1.1999e-07
3.44053e-06
9.93943e-09
3.44798e-06
-5.56366e-09
3.44496e-06
-2.32795e-08
3.44379e-06
-2.66902e-08
3.44143e-06
-7.93148e-09
3.4357e-06
5.2407e-09
3.41368e-06
3.526e-08
3.52113e-08
3.40844e-06
3.5543e-06
-1.19654e-06
3.62044e-06
1.30819e-06
3.59973e-06
-5.72077e-07
3.56896e-06
-1.76052e-06
3.52999e-06
-1.47709e-06
3.51559e-06
-7.11701e-07
3.52667e-06
-1.67738e-07
3.52971e-06
4.00624e-09
3.55483e-06
3.02526e-07
3.55924e-06
2.37711e-07
3.57331e-06
1.3102e-07
3.57583e-06
1.17473e-07
3.57493e-06
1.08355e-08
3.57096e-06
-1.59204e-09
3.5598e-06
-1.21233e-08
3.54745e-06
-1.43414e-08
3.54066e-06
-1.13625e-09
3.53617e-06
9.72503e-09
3.54209e-06
2.93489e-08
3.7445e-08
3.53985e-06
3.68918e-06
-1.16634e-06
3.75676e-06
1.24061e-06
3.73645e-06
-5.51767e-07
3.70361e-06
-1.72768e-06
3.66593e-06
-1.43942e-06
3.64975e-06
-6.9552e-07
3.66092e-06
-1.78908e-07
3.66468e-06
2.51392e-10
3.68911e-06
2.78097e-07
3.69493e-06
2.31883e-07
3.70854e-06
1.17415e-07
3.71144e-06
1.14569e-07
3.71074e-06
1.15364e-08
3.69952e-06
9.62734e-09
3.69311e-06
-5.70963e-09
3.68225e-06
-3.48642e-09
3.6748e-06
6.32121e-09
3.6699e-06
1.46261e-08
3.67773e-06
2.15115e-08
3.95743e-08
3.6756e-06
3.82935e-06
-1.1351e-06
3.89804e-06
1.17192e-06
3.87819e-06
-5.31917e-07
3.8433e-06
-1.69279e-06
3.80691e-06
-1.40303e-06
3.78992e-06
-6.78529e-07
3.79988e-06
-1.88872e-07
3.80611e-06
-5.97462e-09
3.82747e-06
2.5674e-07
3.83722e-06
2.22129e-07
3.84533e-06
1.09303e-07
3.85521e-06
1.04693e-07
3.84345e-06
2.3292e-08
3.85763e-06
-4.54774e-09
3.85784e-06
-5.92131e-09
3.8577e-06
-3.34486e-09
3.85517e-06
8.84818e-09
3.84726e-06
2.25392e-08
3.82175e-06
4.70185e-08
4.59133e-08
3.81541e-06
3.97503e-06
-1.10297e-06
4.04447e-06
1.10247e-06
4.02527e-06
-5.12713e-07
3.98806e-06
-1.65558e-06
3.95349e-06
-1.36846e-06
3.93537e-06
-6.60411e-07
3.9454e-06
-1.98894e-07
3.95109e-06
-1.16662e-08
3.97461e-06
2.33216e-07
3.97936e-06
2.17376e-07
3.99498e-06
9.36836e-08
3.99698e-06
1.02692e-07
4.00008e-06
2.01964e-08
3.98349e-06
1.20393e-08
3.97663e-06
9.38089e-10
3.96647e-06
6.81778e-09
3.96012e-06
1.52023e-08
3.9563e-06
2.63597e-08
3.9639e-06
3.94147e-08
4.73012e-08
3.96251e-06
4.12641e-06
-1.0701e-06
4.19629e-06
1.03259e-06
4.17778e-06
-4.94205e-07
4.13853e-06
-1.61634e-06
4.10535e-06
-1.33528e-06
4.08718e-06
-6.42234e-07
4.0957e-06
-2.07414e-07
4.1034e-06
-1.93662e-08
4.12514e-06
2.11473e-07
4.13054e-06
2.11978e-07
4.14538e-06
7.8836e-08
4.14228e-06
1.05793e-07
4.13798e-06
2.45047e-08
4.13015e-06
1.98681e-08
4.12689e-06
4.19474e-09
4.11771e-06
1.60002e-08
4.11067e-06
2.22447e-08
4.10617e-06
3.08574e-08
4.11531e-06
3.02685e-08
4.8675e-08
4.11394e-06
4.2837e-06
-1.03661e-06
4.35369e-06
9.62606e-07
4.33595e-06
-4.76465e-07
4.29506e-06
-1.57545e-06
4.26251e-06
-1.30273e-06
4.24593e-06
-6.25653e-07
4.25015e-06
-2.11632e-07
4.26378e-06
-3.29992e-08
4.27783e-06
1.97426e-07
4.29319e-06
1.96616e-07
4.29092e-06
8.11056e-08
4.31184e-06
8.48833e-08
4.2994e-06
3.69401e-08
4.31387e-06
5.40161e-09
4.31692e-06
1.13855e-09
4.32045e-06
1.24744e-08
4.31812e-06
2.4571e-08
4.30778e-06
4.11957e-08
4.27756e-06
6.04934e-08
5.65799e-08
4.26965e-06
4.44718e-06
-1.0027e-06
4.51689e-06
8.92891e-07
4.50018e-06
-4.59755e-07
4.45738e-06
-1.53265e-06
4.42621e-06
-1.27156e-06
4.40949e-06
-6.08928e-07
4.4139e-06
-2.1604e-07
4.42547e-06
-4.45679e-08
4.44277e-06
1.80122e-07
4.45177e-06
1.8762e-07
4.45382e-06
7.90483e-08
4.46068e-06
7.80245e-08
4.45551e-06
4.21128e-08
4.44786e-06
1.30473e-08
4.44353e-06
5.47483e-09
4.43884e-06
1.71641e-08
4.42967e-06
3.37431e-08
4.42607e-06
4.47937e-08
4.43533e-06
5.12317e-08
5.77118e-08
4.4342e-06
4.61697e-06
-9.68469e-07
4.68622e-06
8.23647e-07
4.67046e-06
-4.44003e-07
4.62637e-06
-1.48855e-06
4.59572e-06
-1.24092e-06
4.5798e-06
-5.93007e-07
4.58366e-06
-2.19906e-07
4.59304e-06
-5.3942e-08
4.61436e-06
1.58799e-07
4.61703e-06
1.84948e-07
4.62478e-06
7.12983e-08
4.62659e-06
7.62158e-08
4.62469e-06
4.40163e-08
4.61552e-06
2.2214e-08
4.61241e-06
8.58894e-09
4.60662e-06
2.29504e-08
4.60419e-06
3.61766e-08
4.6019e-06
4.70787e-08
4.60299e-06
5.01446e-08
5.68389e-08
4.60386e-06
4.79334e-06
-9.34023e-07
4.86183e-06
7.55155e-07
4.84712e-06
-4.29288e-07
4.80221e-06
-1.44364e-06
4.77116e-06
-1.20986e-06
4.75732e-06
-5.79174e-07
4.7588e-06
-2.2138e-07
4.76871e-06
-6.3854e-08
4.78861e-06
1.38893e-07
4.79299e-06
1.80573e-07
4.79611e-06
6.81807e-08
4.8011e-06
7.12278e-08
4.79858e-06
4.65274e-08
4.79102e-06
2.97778e-08
4.78672e-06
1.2891e-08
4.78329e-06
2.63773e-08
4.78333e-06
3.61381e-08
4.78373e-06
4.66811e-08
4.77872e-06
5.5148e-08
5.61253e-08
4.77944e-06
4.97654e-06
-8.9949e-07
5.04399e-06
6.87701e-07
5.03041e-06
-4.15711e-07
4.98488e-06
-1.39811e-06
4.95328e-06
-1.17826e-06
4.94114e-06
-5.67032e-07
4.94137e-06
-2.2161e-07
4.95044e-06
-7.29223e-08
4.96956e-06
1.19769e-07
4.97518e-06
1.74953e-07
4.97582e-06
6.754e-08
4.9818e-06
6.52455e-08
4.97964e-06
4.86938e-08
4.97324e-06
3.61741e-08
4.96826e-06
1.78713e-08
4.96627e-06
2.83712e-08
4.96283e-06
3.95701e-08
4.95804e-06
5.14722e-08
4.96115e-06
5.20365e-08
5.5507e-08
4.96177e-06
5.16677e-06
-8.64951e-07
5.23306e-06
6.21411e-07
5.22045e-06
-4.03097e-07
5.17502e-06
-1.35268e-06
5.14195e-06
-1.14519e-06
5.13205e-06
-5.5714e-07
5.13075e-06
-2.20301e-07
5.13931e-06
-8.14864e-08
5.15697e-06
1.02114e-07
5.16395e-06
1.67971e-07
5.16298e-06
6.85031e-08
5.16928e-06
5.89522e-08
5.16778e-06
5.01954e-08
5.1626e-06
4.13465e-08
5.15685e-06
2.36218e-08
5.15538e-06
2.98398e-08
5.1546e-06
4.03551e-08
5.15691e-06
4.91657e-08
5.15104e-06
5.78976e-08
5.56185e-08
5.15093e-06
5.36432e-06
-8.30495e-07
5.42925e-06
5.56485e-07
5.41763e-06
-3.91482e-07
5.37266e-06
-1.30771e-06
5.33808e-06
-1.11061e-06
5.32947e-06
-5.48521e-07
5.3277e-06
-2.18535e-07
5.33491e-06
-8.87008e-08
5.35171e-06
8.53225e-08
5.35961e-06
1.60069e-07
5.35802e-06
7.00947e-08
5.36357e-06
5.33962e-08
5.36325e-06
5.05199e-08
5.35907e-06
4.55208e-08
5.35307e-06
2.96262e-08
5.35094e-06
3.19722e-08
5.34854e-06
4.27472e-08
5.34505e-06
5.26644e-08
5.34767e-06
5.52759e-08
5.57396e-08
5.34755e-06
5.56945e-06
-7.96208e-07
5.63287e-06
4.93069e-07
5.62213e-06
-3.80748e-07
5.5782e-06
-1.26377e-06
5.54208e-06
-1.07449e-06
5.5339e-06
-5.40342e-07
5.53198e-06
-2.16613e-07
5.53792e-06
-9.46388e-08
5.55394e-06
6.92998e-08
5.56281e-06
1.512e-07
5.56078e-06
7.21313e-08
5.56536e-06
4.88112e-08
5.56613e-06
4.97469e-08
5.56286e-06
4.87949e-08
5.55691e-06
3.55758e-08
5.55424e-06
3.46416e-08
5.55298e-06
4.4011e-08
5.55192e-06
5.37169e-08
5.55207e-06
5.5128e-08
5.61902e-08
5.55162e-06
5.78242e-06
-7.62152e-07
5.84423e-06
4.31265e-07
5.83431e-06
-3.70827e-07
5.79166e-06
-1.22112e-06
5.75428e-06
-1.03712e-06
5.7457e-06
-5.31759e-07
5.74366e-06
-2.14578e-07
5.74884e-06
-9.9818e-08
5.76393e-06
5.42164e-08
5.77382e-06
1.41311e-07
5.77147e-06
7.44812e-08
5.77508e-06
4.51985e-08
5.77658e-06
4.8244e-08
5.77421e-06
5.11703e-08
5.76866e-06
4.11196e-08
5.76562e-06
3.76801e-08
5.76591e-06
4.3724e-08
5.76813e-06
5.1494e-08
5.76435e-06
5.89149e-08
5.7039e-08
5.7635e-06
6.00356e-06
-7.28409e-07
6.06356e-06
3.71258e-07
6.0545e-06
-3.61764e-07
6.01271e-06
-1.17933e-06
5.97525e-06
-9.99661e-07
5.96491e-06
-5.2142e-07
5.96352e-06
-2.13191e-07
5.96754e-06
-1.03838e-07
5.98217e-06
3.95871e-08
5.99272e-06
1.30766e-07
5.99052e-06
7.66776e-08
5.9929e-06
4.28143e-08
5.99501e-06
4.61351e-08
5.99332e-06
5.28614e-08
5.98875e-06
4.56918e-08
5.98508e-06
4.13494e-08
5.9835e-06
4.53087e-08
5.9807e-06
5.42868e-08
5.98422e-06
5.53924e-08
5.75579e-08
5.98371e-06
6.23315e-06
-6.95057e-07
6.29125e-06
3.13152e-07
6.28293e-06
-3.53441e-07
6.24185e-06
-1.13826e-06
6.20485e-06
-9.62655e-07
6.19316e-06
-5.09735e-07
6.19167e-06
-2.11699e-07
6.19476e-06
-1.06923e-07
6.20873e-06
2.56152e-08
6.21992e-06
1.19571e-07
6.21811e-06
7.84902e-08
6.21923e-06
4.16921e-08
6.22171e-06
4.36611e-08
6.22068e-06
5.38924e-08
6.21714e-06
4.92307e-08
6.21314e-06
4.53503e-08
6.21328e-06
4.51655e-08
6.21529e-06
5.22773e-08
6.21261e-06
5.80714e-08
5.79058e-08
6.21226e-06
6.4715e-06
-6.62149e-07
6.52751e-06
2.57138e-07
6.52007e-06
-3.45995e-07
6.47942e-06
-1.09761e-06
6.44347e-06
-9.26706e-07
6.43054e-06
-4.96802e-07
6.42868e-06
-2.09841e-07
6.43086e-06
-1.09105e-07
6.44398e-06
1.25007e-08
6.45577e-06
1.07779e-07
6.45459e-06
7.96711e-08
6.45436e-06
4.19188e-08
6.45709e-06
4.09283e-08
6.4566e-06
5.43909e-08
6.45407e-06
5.17563e-08
6.45007e-06
4.93551e-08
6.44813e-06
4.71008e-08
6.4459e-06
5.4511e-08
6.44931e-06
5.46537e-08
5.76453e-08
6.44958e-06
6.71898e-06
-6.29787e-07
6.77273e-06
2.03381e-07
6.76611e-06
-3.39373e-07
6.72578e-06
-1.05728e-06
6.69134e-06
-8.92271e-07
6.67749e-06
-4.8295e-07
6.67501e-06
-2.07359e-07
6.67622e-06
-1.10321e-07
6.68821e-06
5.18716e-10
6.70044e-06
9.55462e-08
6.70015e-06
7.99586e-08
6.69872e-06
4.33498e-08
6.70147e-06
3.81836e-08
6.7015e-06
5.43609e-08
6.69979e-06
5.34654e-08
6.69617e-06
5.29752e-08
6.69524e-06
4.80235e-08
6.69706e-06
5.26899e-08
6.69527e-06
5.64466e-08
5.70496e-08
6.69587e-06
6.97587e-06
-5.98009e-07
7.02715e-06
1.52103e-07
7.02155e-06
-3.33773e-07
6.98146e-06
-1.01719e-06
6.94881e-06
-8.59621e-07
6.93416e-06
-4.68304e-07
6.93086e-06
-2.04057e-07
6.93116e-06
-1.10623e-07
6.94188e-06
-1.01944e-08
6.95432e-06
8.31031e-08
6.95522e-06
7.90533e-08
6.95277e-06
4.58043e-08
6.95514e-06
3.58117e-08
6.95572e-06
5.37775e-08
6.95463e-06
5.45555e-08
6.95163e-06
5.59828e-08
6.94931e-06
5.03422e-08
6.94751e-06
5.44889e-08
6.95038e-06
5.35714e-08
5.59987e-08
6.95144e-06
7.24258e-06
-5.66903e-07
7.29123e-06
1.03455e-07
7.28664e-06
-3.29181e-07
7.24678e-06
-9.77325e-07
7.21635e-06
-8.29195e-07
7.20101e-06
-4.52965e-07
7.19677e-06
-1.99809e-07
7.19606e-06
-1.09916e-07
7.20538e-06
-1.95108e-08
7.2177e-06
7.07791e-08
7.21994e-06
7.68085e-08
7.2168e-06
4.89454e-08
7.21849e-06
3.4128e-08
7.21969e-06
5.2571e-08
7.21901e-06
5.52389e-08
7.21681e-06
5.81837e-08
7.2152e-06
5.19522e-08
7.21648e-06
5.32053e-08
7.21543e-06
5.46256e-08
5.4757e-08
7.21667e-06
7.51943e-06
-5.36503e-07
7.56535e-06
5.75381e-08
7.56172e-06
-3.2555e-07
7.52239e-06
-9.37997e-07
7.49353e-06
-8.00335e-07
7.47847e-06
-4.37905e-07
7.473e-06
-1.94342e-07
7.47118e-06
-1.08098e-07
7.47909e-06
-2.74215e-08
7.49106e-06
5.88154e-08
7.49471e-06
7.31608e-08
7.49136e-06
5.22881e-08
7.49198e-06
3.35083e-08
7.49372e-06
5.08379e-08
7.49338e-06
5.55759e-08
7.49203e-06
5.95311e-08
7.48983e-06
5.41569e-08
7.48844e-06
5.45959e-08
7.4905e-06
5.25642e-08
5.34094e-08
7.49185e-06
7.80681e-06
-5.06856e-07
7.85001e-06
1.434e-08
7.84714e-06
-3.22679e-07
7.8085e-06
-8.99357e-07
7.7808e-06
-7.72642e-07
7.76723e-06
-4.24334e-07
7.76004e-06
-1.87151e-07
7.75692e-06
-1.04973e-07
7.76357e-06
-3.40785e-08
7.77484e-06
4.75473e-08
7.77969e-06
6.83147e-08
7.77665e-06
5.53248e-08
7.77604e-06
3.41146e-08
7.77814e-06
4.8746e-08
7.7782e-06
5.55114e-08
7.77758e-06
6.01497e-08
7.77573e-06
5.60098e-08
7.77601e-06
5.43169e-08
7.77611e-06
5.2466e-08
5.20672e-08
7.77745e-06
8.10512e-06
-4.78012e-07
8.1455e-06
-2.60461e-08
8.14333e-06
-3.2051e-07
8.10536e-06
-8.6138e-07
8.07933e-06
-7.46618e-07
8.0686e-06
-4.13599e-07
8.05776e-06
-1.76311e-07
8.05361e-06
-1.00824e-07
8.05914e-06
-3.96124e-08
8.06954e-06
3.71438e-08
8.07526e-06
6.25943e-08
8.0731e-06
5.74866e-08
8.07129e-06
3.59264e-08
8.07341e-06
4.66252e-08
8.07386e-06
5.50606e-08
8.07386e-06
6.0154e-08
8.07235e-06
5.7523e-08
8.07226e-06
5.44026e-08
8.07258e-06
5.21457e-08
5.07795e-08
8.07387e-06
8.41477e-06
-4.50016e-07
8.45229e-06
-6.35678e-08
8.4506e-06
-3.18819e-07
8.41297e-06
-8.2375e-07
8.38936e-06
-7.2301e-07
8.37398e-06
-3.9822e-07
8.36593e-06
-1.68267e-07
8.36191e-06
-9.68042e-08
8.3663e-06
-4.39942e-08
8.37569e-06
2.77461e-08
8.38188e-06
5.64116e-08
8.38091e-06
5.84493e-08
8.3781e-06
3.87403e-08
8.37994e-06
4.47807e-08
8.38077e-06
5.42386e-08
8.38128e-06
5.96406e-08
8.38029e-06
5.85133e-08
8.38013e-06