/*--------------------------------*- C++ -*----------------------------------*\
| =========                 |                                                 |
| \\      /  F ield         | OpenFOAM: The Open Source CFD Toolbox           |
|  \\    /   O peration     | Version:  v2012                                 |
|   \\  /    A nd           | Website:  www.openfoam.com                      |
|    \\/     M anipulation  |                                                 |
\*---------------------------------------------------------------------------*/
FoamFile
{
    version     2.0;
    format      ascii;
    class       volVectorField;
    location    "3.3";
    object      U;
}
// * * * * * * * * * * * * * * * * * * * * * * * * * * * * * * * * * * * * * //

dimensions      [0 1 -1 0 0 0 0];


internalField   nonuniform List<vector> 
7000
(
(0.806626 -0.0094308 0)
(1.30578 0.0238551 0)
(0.6725 -0.0154382 0)
(1.22612 -0.026127 0)
(0.930934 -0.0247233 0)
(1.22021 -0.00597607 0)
(0.8795 -0.00138136 0)
(1.25042 0.00222152 0)
(0.824932 0.0109274 0)
(1.25055 0.0103528 0)
(0.826465 0.00421223 0)
(1.21106 0.00346984 0)
(0.870406 -0.00581403 0)
(1.17082 -0.00168186 0)
(0.904572 -0.0116608 0)
(1.15597 -0.00783456 0)
(0.917174 -0.0129735 0)
(1.15364 -0.0098025 0)
(0.913235 -0.00968966 0)
(1.15045 -0.00987899 0)
(0.817483 -0.0100475 0)
(1.29475 0.0243174 0)
(0.769226 -0.0151558 0)
(1.18366 -0.0274734 0)
(0.947283 -0.0251126 0)
(1.21181 -0.00531999 0)
(0.89983 -0.00200822 0)
(1.23822 0.00307013 0)
(0.849137 0.010587 0)
(1.22434 0.0107266 0)
(0.874301 0.00430637 0)
(1.17172 0.00319116 0)
(0.930694 -0.00539967 0)
(1.12287 -0.00204104 0)
(0.969444 -0.0114115 0)
(1.09673 -0.0081369 0)
(0.989124 -0.0127238 0)
(1.07987 -0.0100458 0)
(0.999133 -0.00897388 0)
(1.05955 -0.0103431 0)
(0.836161 -0.0106549 0)
(1.27382 0.0248744 0)
(0.854256 -0.0147473 0)
(1.13304 -0.0280547 0)
(0.967391 -0.0254955 0)
(1.19205 -0.00479941 0)
(0.937349 -0.00247021 0)
(1.21144 0.00391724 0)
(0.899665 0.010353 0)
(1.17992 0.0108213 0)
(0.944388 0.0046807 0)
(1.12174 0.00267309 0)
(0.994615 -0.0047573 0)
(1.07372 -0.00259527 0)
(1.01837 -0.010829 0)
(1.04744 -0.0086498 0)
(1.02768 -0.0121131 0)
(1.03366 -0.010543 0)
(1.03138 -0.00818898 0)
(1.0226 -0.00994693 0)
(0.860494 -0.0111905 0)
(1.24393 0.0250358 0)
(0.923603 -0.01413 0)
(1.08272 -0.0284654 0)
(0.986574 -0.0260667 0)
(1.16214 -0.00454448 0)
(0.981687 -0.00275345 0)
(1.17388 0.00444319 0)
(0.960604 0.0104766 0)
(1.1352 0.0104979 0)
(1.00662 0.00526314 0)
(1.08469 0.00213557 0)
(1.03443 -0.00401242 0)
(1.04575 -0.00294851 0)
(1.03605 -0.0101504 0)
(1.02434 -0.00897459 0)
(1.03272 -0.0115278 0)
(1.01568 -0.0109593 0)
(1.03184 -0.00749121 0)
(1.01141 -0.00971992 0)
(0.887782 -0.0116884 0)
(1.20711 0.0248187 0)
(0.973644 -0.0133514 0)
(1.04047 -0.0286807 0)
(0.999858 -0.0267039 0)
(1.12739 -0.00453529 0)
(1.02069 -0.00289077 0)
(1.13462 0.00467496 0)
(1.01377 0.010767 0)
(1.10347 0.0100642 0)
(1.04718 0.00585512 0)
(1.06654 0.00185677 0)
(1.0501 -0.00328804 0)
(1.0359 -0.00296867 0)
(1.03544 -0.00945977 0)
(1.01677 -0.00907362 0)
(1.02471 -0.0109709 0)
(1.00931 -0.0112772 0)
(1.02243 -0.00695908 0)
(1.0075 -0.00961066 0)
(0.915003 -0.0121413 0)
(1.16629 0.0244449 0)
(1.00565 -0.0125074 0)
(1.01144 -0.0287548 0)
(1.0048 -0.0273341 0)
(1.09409 -0.00477368 0)
(1.04663 -0.00294476 0)
(1.1022 0.00469968 0)
(1.04963 0.0110107 0)
(1.08701 0.00973714 0)
(1.06692 0.00636183 0)
(1.06064 0.00189155 0)
(1.05165 -0.00259787 0)
(1.03349 -0.00275228 0)
(1.02921 -0.00873162 0)
(1.01387 -0.00903625 0)
(1.01532 -0.0103863 0)
(1.00511 -0.0115297 0)
(1.01241 -0.00652702 0)
(1.00337 -0.00959256 0)
(0.939422 -0.012523 0)
(1.12497 0.0240483 0)
(1.02315 -0.0117008 0)
(0.996147 -0.0286996 0)
(1.00236 -0.0278985 0)
(1.06633 -0.00521367 0)
(1.05821 -0.0029887 0)
(1.08004 0.00458293 0)
(1.06804 0.0111178 0)
(1.08019 0.00955984 0)
(1.07255 0.00680891 0)
(1.05838 0.00214735 0)
(1.0475 -0.00190013 0)
(1.03164 -0.00242875 0)
(1.02318 -0.00795891 0)
(1.01116 -0.00892901 0)
(1.00827 -0.0097539 0)
(1.00054 -0.0117178 0)
(1.00443 -0.00613685 0)
(0.997835 -0.00959005 0)
(0.959145 -0.0128149 0)
(1.0867 0.0236678 0)
(1.03071 -0.0110192 0)
(0.991541 -0.0285361 0)
(0.995865 -0.0283606 0)
(1.04489 -0.00578109 0)
(1.05855 -0.00307461 0)
(1.06615 0.00436522 0)
(1.07352 0.0110971 0)
(1.07608 0.00949766 0)
(1.07028 0.00725634 0)
(1.05486 0.0025111 0)
(1.04178 -0.00117289 0)
(1.02842 -0.00209294 0)
(1.01864 -0.00716037 0)
(1.00806 -0.00878788 0)
(1.00374 -0.009078 0)
(0.996033 -0.0118172 0)
(0.998596 -0.00575043 0)
(0.992111 -0.00952479 0)
(0.973409 -0.0130113 0)
(1.05441 0.0233151 0)
(1.03255 -0.0105051 0)
(0.993167 -0.0282883 0)
(0.988976 -0.0286961 0)
(1.02845 -0.00641455 0)
(1.05206 -0.00322582 0)
(1.0562 0.00407161 0)
(1.07086 0.0110027 0)
(1.07025 0.00950401 0)
(1.0638 0.00773367 0)
(1.0489 0.00290038 0)
(1.03569 -0.000433302 0)
(1.02419 -0.00180039 0)
(1.01526 -0.00636217 0)
(1.00511 -0.00863287 0)
(1.00094 -0.00837764 0)
(0.992461 -0.0118045 0)
(0.994391 -0.00535866 0)
(0.987412 -0.00935224 0)
(0.982521 -0.0131177 0)
(1.02984 0.0229936 0)
(1.0318 -0.0101598 0)
(0.997199 -0.0279869 0)
(0.984035 -0.0288956 0)
(1.01536 -0.00705984 0)
(1.04233 -0.00343189 0)
(1.04659 0.0037236 0)
(1.06333 0.0108875 0)
(1.06129 0.00954145 0)
(1.0549 0.00823043 0)
(1.0411 0.00326162 0)
(1.02948 0.000279645 0)
(1.01971 -0.00157767 0)
(1.01254 -0.00559389 0)
(1.00273 -0.00847319 0)
(0.999172 -0.00768377 0)
(0.990174 -0.0116653 0)
(0.991396 -0.00497001 0)
(0.984206 -0.00906162 0)
(0.987528 -0.0131485 0)
(1.01324 0.0226949 0)
(1.03029 -0.00995538 0)
(1.0013 -0.0276592 0)
(0.981637 -0.0289611 0)
(1.00463 -0.00767144 0)
(1.03153 -0.00366002 0)
(1.03573 0.00334405 0)
(1.05283 0.0107813 0)
(1.04965 0.00958192 0)
(1.04464 0.00871392 0)
(1.03244 0.00356008 0)
(1.02327 0.000930261 0)
(1.01543 -0.00143674 0)
(1.01019 -0.00488206 0)
(1.00095 -0.00831007 0)
(0.998031 -0.00702687 0)
(0.98903 -0.0114076 0)
(0.989351 -0.00459171 0)
(0.982381 -0.00866001 0)
(0.989773 -0.0131224 0)
(1.00349 0.0224038 0)
(1.02879 -0.00985107 0)
(1.00449 -0.0273245 0)
(0.981188 -0.0289056 0)
(0.995904 -0.00821174 0)
(1.02078 -0.00387263 0)
(1.02369 0.00295571 0)
(1.04059 0.0106925 0)
(1.03661 0.00960241 0)
(1.03387 0.00915094 0)
(1.02379 0.0037689 0)
(1.01733 0.00149322 0)
(1.01152 -0.00138269 0)
(1.00806 -0.00424588 0)
(0.999606 -0.00814012 0)
(0.997272 -0.00643069 0)
(0.988684 -0.0110555 0)
(0.988066 -0.004224 0)
(0.981606 -0.00815926 0)
(0.990491 -0.0130585 0)
(0.998703 0.0221082 0)
(1.02741 -0.00980694 0)
(1.00659 -0.0269938 0)
(0.981754 -0.0287468 0)
(0.989063 -0.00865987 0)
(1.01073 -0.00403726 0)
(1.01148 0.00257876 0)
(1.02767 0.010619 0)
(1.02361 0.00958243 0)
(1.0234 0.00951587 0)
(1.01578 0.00387428 0)
(1.01193 0.00195296 0)
(1.00803 -0.00140807 0)
(1.0061 -0.00370141 0)
(0.998524 -0.00795641 0)
(0.996719 -0.00591377 0)
(0.988787 -0.0106222 0)
(0.987354 -0.0038696 0)
(0.98154 -0.00758044 0)
(0.990576 -0.0129726 0)
(0.996897 0.021803 0)
(1.02608 -0.00979138 0)
(1.00772 -0.0266722 0)
(0.982605 -0.0285044 0)
(0.983956 -0.0090124 0)
(1.00183 -0.00413203 0)
(1.00027 0.00222971 0)
(1.01505 0.0105557 0)
(1.01188 0.00950548 0)
(1.01389 0.00979239 0)
(1.00888 0.00387827 0)
(1.00728 0.00230925 0)
(1.00496 -0.00149472 0)
(1.00428 -0.00325752 0)
(0.997589 -0.00775559 0)
(0.996229 -0.00548266 0)
(0.989071 -0.0101162 0)
(0.987016 -0.00353427 0)
(0.981882 -0.00694886 0)
(0.990537 -0.0128751 0)
(0.996551 0.0214887 0)
(1.02472 -0.00978279 0)
(1.00807 -0.0263618 0)
(0.983364 -0.0281991 0)
(0.980372 -0.00927455 0)
(0.994424 -0.00415225 0)
(0.990986 0.00192053 0)
(1.00358 0.0104964 0)
(1.00222 0.00936119 0)
(1.00586 0.00998334 0)
(1.00335 0.00377897 0)
(1.0035 0.00256789 0)
(1.00236 -0.00162204 0)
(1.00262 -0.00291674 0)
(0.996751 -0.00753406 0)
(0.995706 -0.00513285 0)
(0.989352 -0.00956103 0)
(0.986876 -0.00322324 0)
(0.982378 -0.00628643 0)
(0.990582 -0.0127718 0)
(0.996751 0.0211669 0)
(1.02335 -0.0097678 0)
(1.00782 -0.0260631 0)
(0.983904 -0.0278494 0)
(0.978087 -0.00946005 0)
(0.988726 -0.00410541 0)
(0.984094 0.00165756 0)
(0.993903 0.0104376 0)
(0.994923 0.00914598 0)
(0.999589 0.0100977 0)
(0.999245 0.00359536 0)
(1.0006 0.00273765 0)
(1.00024 -0.00176018 0)
(1.00116 -0.00268198 0)
(0.996002 -0.00728425 0)
(0.995123 -0.00485711 0)
(0.98953 -0.00898471 0)
(0.986809 -0.00293808 0)
(0.982843 -0.00561465 0)
(0.990758 -0.0126656 0)
(0.997078 0.0208392 0)
(1.02203 -0.00973827 0)
(1.0071 -0.0257756 0)
(0.984228 -0.0274719 0)
(0.976893 -0.00958739 0)
(0.98478 -0.00400264 0)
(0.979596 0.00144236 0)
(0.986398 0.010379 0)
(0.989868 0.00886487 0)
(0.995118 0.0101415 0)
(0.996432 0.00336427 0)
(0.998508 0.00283495 0)
(0.998594 -0.00187589 0)
(0.999926 -0.00254442 0)
(0.995342 -0.00700181 0)
(0.994512 -0.00464404 0)
(0.989575 -0.00840898 0)
(0.986755 -0.00266982 0)
(0.983177 -0.00494862 0)
(0.991043 -0.0125577 0)
(0.997389 0.0205064 0)
(1.0208 -0.00968914 0)
(1.00607 -0.0254983 0)
(0.984378 -0.0270812 0)
(0.976591 -0.00967583 0)
(0.98247 -0.00385809 0)
(0.97718 0.00127218 0)
(0.981132 0.0103227 0)
(0.986649 0.00852444 0)
(0.992247 0.010132 0)
(0.994651 0.00309861 0)
(0.997082 0.00286493 0)
(0.997352 -0.00195034 0)
(0.998914 -0.00248565 0)
(0.994759 -0.00668855 0)
(0.993923 -0.004467 0)
(0.989504 -0.00784507 0)
(0.9867 -0.00240734 0)
(0.983373 -0.00429505 0)
(0.991407 -0.0124483 0)
(0.997644 0.020168 0)
(1.01972 -0.00961713 0)
(1.00486 -0.0252297 0)
(0.984406 -0.0266895 0)
(0.976984 -0.00974385 0)
(0.981555 -0.00368525 0)
(0.976391 0.0011403 0)
(0.977922 0.0102751 0)
(0.984776 0.00813705 0)
(0.990626 0.0100759 0)
(0.993585 0.0028279 0)
(0.996141 0.00282434 0)
(0.99641 -0.00197399 0)
(0.99808 -0.00249056 0)
(0.994227 -0.00635056 0)
(0.993386 -0.00430278 0)
(0.989358 -0.00729233 0)
(0.98665 -0.00214843 0)
(0.983482 -0.00366316 0)
(0.991817 -0.0123375 0)
(0.997831 0.0198232 0)
(1.01879 -0.00952009 0)
(1.00361 -0.0249679 0)
(0.984358 -0.0263065 0)
(0.97787 -0.00980777 0)
(0.981721 -0.00349449 0)
(0.97677 0.00103908 0)
(0.976426 0.010242 0)
(0.98381 0.00772254 0)
(0.989862 0.00997167 0)
(0.992945 0.00259794 0)
(0.995506 0.00272256 0)
(0.995652 -0.00194102 0)
(0.99736 -0.00254639 0)
(0.993716 -0.00600015 0)
(0.992897 -0.00413843 0)
(0.989179 -0.00675271 0)
(0.986615 -0.00189713 0)
(0.983572 -0.0030564 0)
(0.992246 -0.0122251 0)
(0.997946 0.0194709 0)
(1.018 -0.00939706 0)
(1.00243 -0.0247113 0)
(0.984274 -0.0259384 0)
(0.979048 -0.00988118 0)
(0.982621 -0.00329257 0)
(0.977907 0.000961822 0)
(0.976237 0.0102266 0)
(0.983432 0.0073032 0)
(0.989616 0.00982627 0)
(0.992514 0.00241675 0)
(0.995029 0.00256138 0)
(0.994984 -0.00185561 0)
(0.996684 -0.0026344 0)
(0.993204 -0.00565198 0)
(0.992428 -0.00396908 0)
(0.988993 -0.00623004 0)
(0.986591 -0.00165301 0)
(0.983689 -0.00247826 0)
(0.992673 -0.0121105 0)
(0.997996 0.0191101 0)
(1.01735 -0.00924855 0)
(1.00144 -0.0244578 0)
(0.984186 -0.0255883 0)
(0.980314 -0.00997313 0)
(0.983906 -0.0030855 0)
(0.979452 0.000902555 0)
(0.976952 0.010229 0)
(0.983434 0.00690462 0)
(0.989651 0.00963554 0)
(0.992172 0.00229676 0)
(0.994621 0.00234537 0)
(0.994356 -0.00172543 0)
(0.99601 -0.00273682 0)
(0.992688 -0.00531967 0)
(0.991952 -0.00379248 0)
(0.988813 -0.00573258 0)
(0.986574 -0.00141747 0)
(0.983852 -0.00192876 0)
(0.993084 -0.0119932 0)
(0.997993 0.0187396 0)
(1.01677 -0.0090762 0)
(1.0007 -0.0242055 0)
(0.984123 -0.0252558 0)
(0.981482 -0.0100861 0)
(0.985255 -0.00288096 0)
(0.981108 0.000853306 0)
(0.978211 0.0102511 0)
(0.983699 0.0065459 0)
(0.989837 0.00939428 0)
(0.991889 0.00225513 0)
(0.994252 0.00209292 0)
(0.993769 -0.00155487 0)
(0.995335 -0.00284359 0)
(0.992185 -0.00501024 0)
(0.991459 -0.00360455 0)
(0.988643 -0.00526116 0)
(0.986558 -0.00119684 0)
(0.984052 -0.00141075 0)
(0.99347 -0.0118725 0)
(0.997945 0.0183582 0)
(1.01623 -0.00888268 0)
(1.00024 -0.0239541 0)
(0.984106 -0.0249358 0)
(0.982401 -0.0102198 0)
(0.986412 -0.00268401 0)
(0.982653 0.000806988 0)
(0.979719 0.0102821 0)
(0.984166 0.00624819 0)
(0.990127 0.00910761 0)
(0.991701 0.00227834 0)
(0.993945 0.00181052 0)
(0.993262 -0.00135687 0)
(0.994689 -0.00293337 0)
(0.991733 -0.004719 0)
(0.990964 -0.00340228 0)
(0.988488 -0.0048094 0)
(0.98654 -0.00100501 0)
(0.984269 -0.000938703 0)
(0.993824 -0.0117478 0)
(0.997861 0.0179656 0)
(1.0157 -0.00867244 0)
(1.00008 -0.0237029 0)
(0.984154 -0.024621 0)
(0.982978 -0.0103713 0)
(0.987216 -0.00249492 0)
(0.983942 0.00076466 0)
(0.981264 0.0103024 0)
(0.984813 0.00601853 0)
(0.990519 0.00877833 0)
(0.991672 0.00237116 0)
(0.993755 0.00149692 0)
(0.992896 -0.00114999 0)
(0.99413 -0.00298815 0)
(0.991378 -0.00446887 0)
(0.990506 -0.00318276 0)
(0.988359 -0.0043582 0)
(0.986527 -0.000838298 0)
(0.984487 -0.000519127 0)
(0.994137 -0.0116187 0)
(0.997747 0.0175616 0)
(1.01516 -0.00844881 0)
(1.0002 -0.0234515 0)
(0.984279 -0.024305 0)
(0.983178 -0.0105274 0)
(0.987609 -0.00232492 0)
(0.984911 0.000719475 0)
(0.982712 0.0103046 0)
(0.98563 0.00586307 0)
(0.991034 0.00840044 0)
(0.991855 0.00251743 0)
(0.993736 0.00118278 0)
(0.992726 -0.000939051 0)
(0.993713 -0.00298164 0)
(0.991162 -0.00426869 0)
(0.990137 -0.0029766 0)
(0.988272 -0.00389468 0)
(0.98653 -0.000690058 0)
(0.984698 -0.000152104 0)
(0.994393 -0.0114842 0)
(0.997614 0.0171454 0)
(1.01464 -0.00821397 0)
(1.00057 -0.0232019 0)
(0.984484 -0.0239754 0)
(0.983024 -0.0106849 0)
(0.987615 -0.00217154 0)
(0.985563 0.000663486 0)
(0.983992 0.010261 0)
(0.986596 0.00578053 0)
(0.991673 0.00800091 0)
(0.992271 0.0026929 0)
(0.993919 0.000879469 0)
(0.992785 -0.000766575 0)
(0.993479 -0.0029128 0)
(0.991108 -0.00404071 0)
(0.989904 -0.00282157 0)
(0.98825 -0.00343521 0)
(0.98657 -0.000545653 0)
(0.984909 0.000152947 0)
(0.994582 -0.0113431 0)
(0.997473 0.0167159 0)
(1.01414 -0.00797482 0)
(1.00115 -0.0229515 0)
(0.984762 -0.0236288 0)
(0.982579 -0.0108254 0)
(0.987313 -0.00206246 0)
(0.985936 0.000613318 0)
(0.985065 0.0101647 0)
(0.987669 0.00573234 0)
(0.992417 0.00757176 0)
(0.992891 0.00291824 0)
(0.994292 0.000597606 0)
(0.993067 -0.000589543 0)
(0.993452 -0.00286174 0)
(0.99122 -0.00375356 0)
(0.989834 -0.00262665 0)
(0.988322 -0.00310981 0)
(0.986672 -0.000316132 0)
(0.985135 0.000466968 0)
(0.994699 -0.011195 0)
(0.997331 0.0162727 0)
(1.01371 -0.00773508 0)
(1.00186 -0.022702 0)
(0.985095 -0.0232514 0)
(0.981931 -0.0109537 0)
(0.986798 -0.00197103 0)
(0.986086 0.000542863 0)
(0.985909 0.0100124 0)
(0.988771 0.00574093 0)
(0.993217 0.00710449 0)
(0.993648 0.00314459 0)
(0.994812 0.00036792 0)
(0.993523 -0.000384229 0)
(0.993613 -0.00275127 0)
(0.991495 -0.00350413 0)
(0.989916 -0.00234009 0)
(0.988498 -0.00276777 0)
(0.986877 -4.8593e-05 0)
(0.985375 0.000806746 0)
(0.99475 -0.0110412 0)
(0.997187 0.0158182 0)
(1.01335 -0.00749122 0)
(1.00264 -0.0224485 0)
(0.985459 -0.0228516 0)
(0.981189 -0.0110347 0)
(0.986164 -0.00194206 0)
(0.986066 0.000512451 0)
(0.986522 0.00974203 0)
(0.989816 0.0057979 0)
(0.994 0.00661703 0)
(0.994449 0.0034039 0)
(0.99541 0.000125345 0)
(0.994094 -0.000209009 0)
(0.993913 -0.00260312 0)
(0.991893 -0.00312717 0)
(0.990166 -0.00235319 0)
(0.988766 -0.00192873 0)
(0.987177 -0.000381275 0)
(0.985664 0.00076807 0)
(0.994751 -0.0108719 0)
(0.997037 0.0153351 0)
(1.01309 -0.00724942 0)
(1.00342 -0.022201 0)
(0.985834 -0.0224063 0)
(0.980453 -0.0111089 0)
(0.985494 -0.00192546 0)
(0.985932 0.000416962 0)
(0.986903 0.00947991 0)
(0.990722 0.00581562 0)
(0.994703 0.00616035 0)
(0.995201 0.00356596 0)
(0.996007 5.67616e-05 0)
(0.994703 -0.000180808 0)
(0.994312 -0.00235953 0)
(0.99233 -0.0029523 0)
(0.990593 -0.0019065 0)
(0.989071 -0.00195458 0)
(0.987461 0.000228314 0)
(0.9861 0.00124376 0)
(0.994725 -0.0107021 0)
(0.996873 0.0148506 0)
(1.0129 -0.00702944 0)
(1.00413 -0.0219225 0)
(0.986202 -0.0219565 0)
(0.979815 -0.0111046 0)
(0.984853 -0.00198945 0)
(0.985734 0.000383592 0)
(0.987087 0.00906709 0)
(0.991431 0.00589665 0)
(0.995263 0.00567346 0)
(0.995846 0.0037032 0)
(0.996533 3.26425e-05 0)
(0.995274 -0.000171747 0)
(0.994719 -0.00204908 0)
(0.992853 -0.00275315 0)
(0.990983 -0.00172801 0)
(0.989525 -0.00130706 0)
(0.988033 0.000480619 0)
(0.986417 0.00148925 0)
(0.994698 -0.0105214 0)
(0.996688 0.0143442 0)
(1.01277 -0.00678477 0)
(1.00471 -0.0216535 0)
(0.986557 -0.0214614 0)
(0.979335 -0.0110588 0)
(0.984301 -0.00210217 0)
(0.985513 0.000352286 0)
(0.987114 0.0086242 0)
(0.991925 0.00590294 0)
(0.995672 0.0052817 0)
(0.996325 0.00368744 0)
(0.99695 0.000143941 0)
(0.995767 -0.000278774 0)
(0.995112 -0.00172088 0)
(0.993257 -0.00253451 0)
(0.991582 -0.0015978 0)
(0.989922 -0.000793377 0)
(0.988368 0.00072087 0)
(0.986938 0.00173613 0)
(0.994691 -0.0103095 0)
(0.996482 0.0137775 0)
(1.01268 -0.00654607 0)
(1.00514 -0.0213991 0)
(0.986894 -0.0209133 0)
(0.979052 -0.0110555 0)
(0.983869 -0.00212463 0)
(0.985321 0.000171187 0)
(0.987049 0.00827903 0)
(0.992214 0.00582724 0)
(0.995919 0.00492417 0)
(0.996647 0.00370559 0)
(0.997236 0.000187881 0)
(0.996132 -0.000295212 0)
(0.995434 -0.00148743 0)
(0.993666 -0.00225382 0)
(0.992007 -0.000960962 0)
(0.990415 -0.000975231 0)
(0.988962 0.0015736 0)
(0.987287 0.00238948 0)
(0.994718 -0.0101211 0)
(0.99626 0.0132547 0)
(1.01258 -0.00636644 0)
(1.0054 -0.0210516 0)
(0.987218 -0.0204449 0)
(0.978966 -0.0108574 0)
(0.983586 -0.00237462 0)
(0.985186 0.000280314 0)
(0.986954 0.0075892 0)
(0.992332 0.00595179 0)
(0.996061 0.00432551 0)
(0.996797 0.00392363 0)
(0.997398 2.40882e-06 0)
(0.996383 6.60113e-05 0)
(0.995686 -0.00144704 0)
(0.993976 -0.00155724 0)
(0.992422 -0.000776693 0)
(0.990816 -3.55995e-05 0)
(0.989429 0.000833144 0)
(0.987709 0.00197187 0)
(0.994782 -0.00990369 0)
(0.996039 0.012689 0)
(1.01244 -0.0061333 0)
(1.00553 -0.0207257 0)
(0.987525 -0.0199328 0)
(0.979061 -0.0106926 0)
(0.98346 -0.0025304 0)
(0.985138 0.000205879 0)
(0.98687 0.0070889 0)
(0.992343 0.00586077 0)
(0.996105 0.00401442 0)
(0.996837 0.00369138 0)
(0.997475 0.000252555 0)
(0.996525 -3.23298e-05 0)
(0.995856 -0.00108586 0)
(0.994255 -0.00133835 0)
(0.992808 -0.000549668 0)
(0.991086 0.000149946 0)
(0.98977 0.00163707 0)
(0.988232 0.00260929 0)
(0.994883 -0.00965115 0)
(0.995831 0.0120406 0)
(1.01225 -0.00587618 0)
(1.00552 -0.0204652 0)
(0.987816 -0.0193328 0)
(0.979314 -0.0106114 0)
(0.983468 -0.00258867 0)
(0.985203 -3.46001e-05 0)
(0.986843 0.00679964 0)
(0.992293 0.00554346 0)
(0.996092 0.00388335 0)
(0.996814 0.00345974 0)
(0.997442 0.000499418 0)
(0.996597 -0.000280284 0)
(0.995952 -0.00067611 0)
(0.994407 -0.0010917 0)
(0.993067 -0.000243982 0)
(0.991538 0.000214695 0)
(0.990247 0.00240405 0)
(0.988497 0.00328966 0)
(0.99502 -0.00944631 0)
(0.995647 0.0115062 0)
(1.01199 -0.0057496 0)
(1.00542 -0.0199967 0)
(0.988111 -0.0189363 0)
(0.979662 -0.0102486 0)
(0.983614 -0.00293668 0)
(0.985369 0.000141681 0)
(0.986896 0.0059677 0)
(0.992216 0.00573554 0)
(0.996068 0.00315624 0)
(0.996737 0.00371989 0)
(0.997355 0.000197708 0)
(0.996619 0.000368579 0)
(0.996037 -0.000433673 0)
(0.994535 -0.000243701 0)
(0.993265 0.000220206 0)
(0.991799 0.00115924 0)
(0.990603 0.00155006 0)
(0.988871 0.00270026 0)
(0.995178 -0.00919782 0)
(0.9955 0.0108822 0)
(1.01167 -0.00549613 0)
(1.00525 -0.0196286 0)
(0.988399 -0.0184459 0)
(0.980091 -0.0100225 0)
(0.983858 -0.00307095 0)
(0.98562 8.34263e-06 0)
(0.987034 0.0055902 0)
(0.992136 0.00540121 0)
(0.996045 0.00302167 0)
(0.996643 0.00331754 0)
(0.997276 0.000605394 0)
(0.996664 0.000116671 0)
(0.996051 -0.000261806 0)
(0.994659 -0.000175212 0)
(0.993511 0.000415483 0)
(0.991952 0.00113271 0)
(0.990758 0.00231415 0)
(0.989306 0.0034031 0)
(0.995351 -0.00890226 0)
(0.995401 0.0101732 0)
(1.01128 -0.00525184 0)
(1.00505 -0.0193242 0)
(0.98868 -0.0178626 0)
(0.980567 -0.00991353 0)
(0.984168 -0.00308753 0)
(0.985968 -0.000309646 0)
(0.987219 0.00539859 0)
(0.992093 0.00499134 0)
(0.996001 0.0029833 0)
(0.996589 0.00290152 0)
(0.997109 0.000939493 0)
(0.99661 -0.000141545 0)
(0.996101 -5.84089e-05 0)
(0.994748 -0.000126759 0)
(0.993599 0.000661079 0)
(0.992313 0.001089 0)
(0.991238 0.00311044 0)
(0.989544 0.00413937 0)
(0.995542 -0.00871172 0)
(0.995337 0.0096819 0)
(1.01085 -0.00519771 0)
(1.0048 -0.0186874 0)
(0.988988 -0.0176402 0)
(0.981055 -0.00940764 0)
(0.984537 -0.00348814 0)
(0.986344 -0.000140717 0)
(0.987491 0.00443852 0)
(0.992043 0.00538404 0)
(0.995975 0.00201105 0)
(0.996522 0.00344581 0)
(0.996989 0.000494724 0)
(0.996609 0.000894752 0)
(0.996119 0.000150784 0)
(0.994841 0.000853139 0)
(0.993765 0.0010053 0)
(0.992551 0.00236422 0)
(0.991522 0.00232282 0)
(0.989854 0.00345003 0)
(0.995728 -0.00839432 0)
(0.995326 0.00895538 0)
(1.01037 -0.00488573 0)
(1.00456 -0.0183684 0)
(0.989299 -0.0170594 0)
(0.98156 -0.00929842 0)
(0.984924 -0.00346167 0)
(0.986752 -0.000495835 0)
(0.987795 0.00428144 0)
(0.991998 0.00486339 0)
(0.99597 0.00211322 0)
(0.996491 0.00286502 0)
(0.996875 0.00108892 0)
(0.996621 0.00042452 0)
(0.996155 0.000121184 0)
(0.994962 0.000718922 0)
(0.993994 0.00131435 0)
(0.992679 0.00218412 0)
(0.991595 0.00297998 0)
(0.990275 0.00406364 0)
(0.995909 -0.00812308 0)
(0.995365 0.00831597 0)
(1.00986 -0.0047503 0)
(1.00431 -0.0178704 0)
(0.989607 -0.0166567 0)
(0.982092 -0.0090814 0)
(0.985306 -0.00344338 0)
(0.987202 -0.000849817 0)
(0.988097 0.00418781 0)
(0.991994 0.00437935 0)
(0.99591 0.00233167 0)
(0.996504 0.0022537 0)
(0.996717 0.00154505 0)
(0.996533 7.76644e-05 0)
(0.996215 9.64913e-05 0)
(0.995137 0.000498321 0)
(0.994119 0.00165309 0)
(0.993019 0.00227737 0)
(0.992094 0.00413746 0)
(0.990482 0.00498107 0)
(0.996104 -0.0079059 0)
(0.995415 0.00779168 0)
(1.00935 -0.0046461 0)
(1.00404 -0.0172696 0)
(0.989952 -0.0163752 0)
(0.982608 -0.0086942 0)
(0.985703 -0.00369751 0)
(0.987637 -0.000822213 0)
(0.988428 0.00349653 0)
(0.991982 0.00450712 0)
(0.99587 0.00192051 0)
(0.996516 0.00242631 0)
(0.996612 0.00139948 0)
(0.996465 0.00077369 0)
(0.996277 0.000272603 0)
(0.995341 0.00109628 0)
(0.99441 0.00183084 0)
(0.993361 0.00311521 0)
(0.992364 0.00384933 0)
(0.990704 0.00456272 0)
(0.996296 -0.00755335 0)
(0.995487 0.00704867 0)
(1.00883 -0.00441565 0)
(1.00378 -0.0168596 0)
(0.9903 -0.0158514 0)
(0.983129 -0.00862456 0)
(0.98609 -0.00361427 0)
(0.988056 -0.0011347 0)
(0.988766 0.00310743 0)
(0.991978 0.0043548 0)
(0.995814 0.00185711 0)
(0.996546 0.00222261 0)
(0.996537 0.00155233 0)
(0.996411 0.00101847 0)
(0.996343 0.000500544 0)
(0.995537 0.00121591 0)
(0.994672 0.00202881 0)
(0.993621 0.00305848 0)
(0.99258 0.0036725 0)
(0.990966 0.00440868 0)
(0.996483 -0.00733635 0)
(0.995578 0.00650611 0)
(1.00831 -0.00431707 0)
(1.00352 -0.0162803 0)
(0.990647 -0.0155309 0)
(0.983663 -0.00836494 0)
(0.986465 -0.0036522 0)
(0.988467 -0.00129767 0)
(0.989118 0.00271889 0)
(0.991983 0.00424491 0)
(0.995741 0.00180199 0)
(0.996586 0.00205464 0)
(0.996485 0.00163058 0)
(0.996345 0.00129876 0)
(0.996376 0.000656522 0)
(0.995748 0.00131937 0)
(0.994931 0.00215439 0)
(0.993875 0.00309628 0)
(0.992842 0.00378745 0)
(0.991237 0.00444167 0)
(0.996667 -0.00704225 0)
(0.995682 0.00589974 0)
(1.0078 -0.00418204 0)
(1.00327 -0.0157655 0)
(0.991003 -0.0150689 0)
(0.984201 -0.0082074 0)
(0.986834 -0.00367182 0)
(0.988869 -0.00142287 0)
(0.98947 0.00231799 0)
(0.991997 0.00407983 0)
(0.995652 0.00181389 0)
(0.99663 0.00186735 0)
(0.996476 0.00169095 0)
(0.99629 0.00153314 0)
(0.996407 0.000897394 0)
(0.995948 0.00144996 0)
(0.995195 0.00226483 0)
(0.994151 0.00316658 0)
(0.993072 0.00390288 0)
(0.991481 0.00443336 0)
(0.996847 -0.00674777 0)
(0.995791 0.00527167 0)
(1.00729 -0.00406166 0)
(1.00302 -0.0152463 0)
(0.991348 -0.0146162 0)
(0.984737 -0.00812494 0)
(0.987202 -0.00360564 0)
(0.989258 -0.00160433 0)
(0.989833 0.00194531 0)
(0.992036 0.0038987 0)
(0.995553 0.00186565 0)
(0.996675 0.0016803 0)
(0.996492 0.00173662 0)
(0.996247 0.00168854 0)
(0.996415 0.00117269 0)
(0.996138 0.00150474 0)
(0.995454 0.00236915 0)
(0.994426 0.00321247 0)
(0.993321 0.00400149 0)
(0.991704 0.00446771 0)
(0.997026 -0.00651524 0)
(0.995907 0.0047421 0)
(1.0068 -0.00393873 0)
(1.00277 -0.0147475 0)
(0.991695 -0.0141832 0)
(0.985281 -0.00795651 0)
(0.987568 -0.00359137 0)
(0.989633 -0.00171273 0)
(0.990205 0.00160977 0)
(0.992091 0.00372442 0)
(0.995441 0.00190136 0)
(0.996714 0.00153028 0)
(0.996542 0.00169792 0)
(0.996228 0.00184727 0)
(0.996418 0.00143156 0)
(0.996308 0.00165162 0)
(0.995733 0.00240142 0)
(0.99472 0.00331799 0)
(0.993559 0.00404636 0)
(0.991908 0.0044812 0)
(0.997202 -0.00620039 0)
(0.996023 0.00414633 0)
(1.00631 -0.00385993 0)
(1.00254 -0.0142503 0)
(0.992036 -0.0136467 0)
(0.985817 -0.00785545 0)
(0.98793 -0.00357343 0)
(0.989999 -0.00183046 0)
(0.990585 0.00128102 0)
(0.992171 0.00348827 0)
(0.995326 0.00198039 0)
(0.996742 0.00141085 0)
(0.996617 0.0016735 0)
(0.996238 0.00195099 0)
(0.996418 0.00171674 0)
(0.996444 0.00175911 0)
(0.996001 0.00242778 0)
(0.995015 0.00329559 0)
(0.993791 0.00403199 0)
(0.992106 0.00451001 0)
(0.997375 -0.00595513 0)
(0.996141 0.00359872 0)
(1.00584 -0.00372126 0)
(1.00232 -0.0137736 0)
(0.992368 -0.013208 0)
(0.986351 -0.00772992 0)
(0.988292 -0.00353048 0)
(0.990353 -0.00189736 0)
(0.990968 0.000976678 0)
(0.992278 0.00323744 0)
(0.995212 0.00203767 0)
(0.996757 0.00131252 0)
(0.996711 0.00160066 0)
(0.996282 0.00202686 0)
(0.996413 0.00193509 0)
(0.996547 0.00191266 0)
(0.996254 0.00245493 0)
(0.995314 0.00331551 0)
(0.994064 0.00404636 0)
(0.992316 0.00460273 0)
(0.997544 -0.00567915 0)
(0.996267 0.00308346 0)
(1.00538 -0.00366608 0)
(1.00209 -0.0133101 0)
(0.992699 -0.0126991 0)
(0.986886 -0.00752927 0)
(0.988657 -0.00350997 0)
(0.990697 -0.00197494 0)
(0.991352 0.000661322 0)
(0.992409 0.0029778 0)
(0.9951 0.0021002 0)
(0.996751 0.00127149 0)
(0.996823 0.00153337 0)
(0.996354 0.00208632 0)
(0.996425 0.00210972 0)
(0.99663 0.00213596 0)
(0.996496 0.00250187 0)
(0.995624 0.00333961 0)
(0.994346 0.00402161 0)
(0.992529 0.0046268 0)
(0.997712 -0.00540895 0)
(0.996385 0.0025489 0)
(1.00493 -0.00356665 0)
(1.00188 -0.0128299 0)
(0.993028 -0.0122268 0)
(0.987408 -0.00737171 0)
(0.989011 -0.00349187 0)
(0.991025 -0.00202628 0)
(0.991738 0.000381246 0)
(0.992574 0.00270606 0)
(0.995002 0.00214817 0)
(0.996732 0.0012499 0)
(0.996942 0.00143916 0)
(0.996453 0.00210242 0)
(0.996457 0.00223959 0)
(0.996692 0.0023574 0)
(0.996697 0.00255684 0)
(0.995914 0.00333576 0)
(0.99464 0.00397393 0)
(0.992745 0.00461831 0)
(0.997871 -0.00516443 0)
(0.996518 0.00207453 0)
(1.0045 -0.00348572 0)
(1.00166 -0.0123855 0)
(0.993347 -0.0117906 0)
(0.987934 -0.00716434 0)
(0.989376 -0.00344444 0)
(0.991347 -0.00204309 0)
(0.992117 0.00012287 0)
(0.992759 0.00241439 0)
(0.994914 0.00215487 0)
(0.996687 0.00128289 0)
(0.997065 0.00133678 0)
(0.99658 0.00211562 0)
(0.996523 0.00232988 0)
(0.996748 0.00256927 0)
(0.996872 0.00263733 0)
(0.996203 0.00335016 0)
(0.994939 0.00392418 0)
(0.992982 0.00458611 0)
(0.998031 -0.00488712 0)
(0.996641 0.00158889 0)
(1.00408 -0.00344838 0)
(1.00146 -0.0119204 0)
(0.993674 -0.0113257 0)
(0.988451 -0.00694349 0)
(0.989726 -0.00340278 0)
(0.991649 -0.0020742 0)
(0.99249 -0.000125228 0)
(0.992977 0.0021141 0)
(0.99486 0.0021629 0)
(0.996634 0.00136092 0)
(0.997186 0.00124766 0)
(0.996731 0.00210299 0)
(0.996611 0.00239237 0)
(0.996801 0.00273155 0)
(0.99701 0.00274694 0)
(0.996455 0.00334468 0)
(0.995232 0.00386572 0)
(0.993216 0.00450788 0)
(0.99818 -0.00465671 0)
(0.996777 0.00113916 0)
(1.00368 -0.00336183 0)
(1.00126 -0.0114559 0)
(0.993988 -0.0109496 0)
(0.988964 -0.00674264 0)
(0.990084 -0.00334143 0)
(0.991947 -0.00205533 0)
(0.992855 -0.000320461 0)
(0.993218 0.00182234 0)
(0.994829 0.00211754 0)
(0.996553 0.00144015 0)
(0.997293 0.00116241 0)
(0.996904 0.00206655 0)
(0.996731 0.002417 0)
(0.99687 0.00286543 0)
(0.997126 0.00286647 0)
(0.996689 0.00336671 0)
(0.995515 0.00382371 0)
(0.993464 0.00442072 0)
(0.998328 -0.00439278 0)
(0.996907 0.000718727 0)
(1.0033 -0.0033541 0)
(1.00106 -0.0110102 0)
(0.994311 -0.0105522 0)
(0.989478 -0.00649924 0)
(0.990432 -0.00325163 0)
(0.992224 -0.00204545 0)
(0.993202 -0.000506448 0)
(0.993476 0.00151877 0)
(0.994837 0.00203286 0)
(0.996478 0.00155477 0)
(0.997391 0.00113973 0)
(0.997094 0.00200325 0)
(0.996877 0.00244758 0)
(0.996955 0.00295479 0)
(0.997221 0.00299807 0)
(0.996883 0.00338897 0)
(0.995769 0.00377594 0)
(0.993704 0.00430966 0)
(0.998467 -0.00417335 0)
(0.997042 0.00031867 0)
(1.00293 -0.00330411 0)
(1.00087 -0.0105352 0)
(0.994622 -0.0102116 0)
(0.989986 -0.00629562 0)
(0.990782 -0.0031526 0)
(0.992495 -0.00200255 0)
(0.993538 -0.0006575 0)
(0.993752 0.00124511 0)
(0.994883 0.00192023 0)
(0.996394 0.00165567 0)
(0.997454 0.00112617 0)
(0.997293 0.00191027 0)
(0.997051 0.0024503 0)
(0.997062 0.00299493 0)
(0.997309 0.00311072 0)
(0.997044 0.00341094 0)
(0.995997 0.00374439 0)
(0.99394 0.00419997 0)
(0.998603 -0.00391832 0)
(0.997174 -7.02984e-05 0)
(1.00258 -0.00327365 0)
(1.00068 -0.0101295 0)
(0.994937 -0.00984782 0)
(0.990502 -0.00612031 0)
(0.991129 -0.00299984 0)
(0.992745 -0.00192054 0)
(0.99385 -0.000780616 0)
(0.994034 0.000984136 0)
(0.994965 0.00175964 0)
(0.996327 0.00173228 0)
(0.997501 0.00118071 0)
(0.997501 0.0018262 0)
(0.997248 0.00243679 0)
(0.997192 0.00300591 0)
(0.997394 0.00320797 0)
(0.997178 0.00344006 0)
(0.996192 0.00373351 0)
(0.994162 0.0041027 0)
(0.998729 -0.00370665 0)
(0.997309 -0.000407708 0)
(1.00226 -0.00325572 0)
(1.0005 -0.00967587 0)
(0.995239 -0.00951331 0)
(0.991012 -0.00596259 0)
(0.991485 -0.00284872 0)
(0.992987 -0.001825 0)
(0.994147 -0.000878432 0)
(0.994324 0.000759491 0)
(0.995088 0.00160419 0)
(0.996282 0.00179487 0)
(0.997516 0.00127157 0)
(0.997692 0.00173183 0)
(0.997463 0.00239258 0)
(0.997351 0.00298582 0)
(0.997489 0.0032814 0)
(0.997293 0.00346701 0)
(0.996358 0.00373008 0)
(0.994364 0.00400854 0)
(0.998851 -0.00348631 0)
(0.997443 -0.000726378 0)
(1.00195 -0.00323183 0)
(1.00031 -0.00921908 0)
(0.995532 -0.00922009 0)
(0.99153 -0.00575737 0)
(0.991846 -0.00272184 0)
(0.993214 -0.00174857 0)
(0.994425 -0.000964508 0)
(0.994617 0.000550888 0)
(0.995242 0.00143153 0)
(0.996264 0.00179688 0)
(0.997509 0.001386 0)
(0.997867 0.0016721 0)
(0.997694 0.00234698 0)