/*--------------------------------*- C++ -*----------------------------------*\
| =========                 |                                                 |
| \\      /  F ield         | OpenFOAM: The Open Source CFD Toolbox           |
|  \\    /   O peration     | Version:  v2012                                 |
|   \\  /    A nd           | Website:  www.openfoam.com                      |
|    \\/     M anipulation  |                                                 |
\*---------------------------------------------------------------------------*/
FoamFile
{
    version     2.0;
    format      ascii;
    class       volScalarField;
    location    "3.6";
    object      p;
}
// * * * * * * * * * * * * * * * * * * * * * * * * * * * * * * * * * * * * * //

dimensions      [0 2 -2 0 0 0 0];


internalField   nonuniform List<scalar> 
7000
(
-6.50028e-11
0.00464517
0.00509692
0.00377013
-0.00279084
0.00234839
0.00348516
0.00740391
0.0102673
0.014288
0.0150922
0.0180665
0.0192233
0.0219643
0.0226502
0.0252512
0.0268035
0.0303519
0.0338325
0.0403645
3.05571e-07
0.00464995
0.00509099
0.00377098
-0.00277528
0.002346
0.00347763
0.00741139
0.0102705
0.014292
0.0150915
0.0180603
0.0192173
0.0219514
0.0226481
0.0252283
0.0268207
0.0303061
0.0338737
0.0400921
1.31671e-06
0.00466222
0.00508277
0.00377244
-0.00275764
0.00234078
0.00347047
0.00742858
0.0102732
0.014299
0.0150874
0.0180527
0.0192067
0.0219372
0.0226437
0.0252009
0.0268384
0.0302421
0.033908
0.0396115
4.4294e-06
0.00468131
0.00506842
0.00377364
-0.00272698
0.00233683
0.00346822
0.00744798
0.0102734
0.0143065
0.0150807
0.0180425
0.0191935
0.0219175
0.0226377
0.0251649
0.0268546
0.0301706
0.0339051
0.0391116
1.11352e-05
0.00470259
0.00504572
0.00377457
-0.00267959
0.00233628
0.00347053
0.00746623
0.0102723
0.0143117
0.0150726
0.0180272
0.0191797
0.0218901
0.0226328
0.0251192
0.0268722
0.0300871
0.0338718
0.0386404
2.22939e-05
0.00472227
0.00501437
0.00377568
-0.00261305
0.00234109
0.00347699
0.00748346
0.0102716
0.0143138
0.0150644
0.0180064
0.0191668
0.0218547
0.0226305
0.0250638
0.0268896
0.0299931
0.0338127
0.0382001
3.78839e-05
0.0047393
0.00497614
0.00377756
-0.00252852
0.00235161
0.0034873
0.00750021
0.0102722
0.0143128
0.0150565
0.01798
0.0191555
0.0218111
0.0226309
0.0249984
0.0269051
0.0298905
0.0337284
0.0377825
5.7123e-05
0.00475464
0.00493381
0.00378083
-0.00242902
0.00236649
0.00350045
0.00751643
0.0102744
0.0143086
0.0150489
0.0179477
0.0191457
0.0217589
0.0226333
0.0249236
0.0269165
0.0297812
0.0336176
0.0373797
7.88048e-05
0.00477003
0.00489037
0.003786
-0.00231819
0.00238341
0.00351505
0.00753164
0.0102782
0.0143008
0.0150411
0.0179087
0.0191371
0.0216977
0.0226369
0.02484
0.026921
0.0296668
0.0334792
0.0369865
0.000101709
0.00478712
0.00484833
0.00379338
-0.0021992
0.00240028
0.00352983
0.00754519
0.0102835
0.0142887
0.0150323
0.0178624
0.0191295
0.0216273
0.0226408
0.0247489
0.0269159
0.0295491
0.0333126
0.0365986
0.000124942
0.00480697
0.0048093
0.00380297
-0.00207412
0.00241595
0.00354399
0.00755652
0.0102903
0.0142718
0.015022
0.017808
0.0191225
0.0215474
0.0226439
0.0246519
0.0268982
0.0294287
0.0331187
0.0362122
0.000148088
0.0048298
0.00477385
0.00381442
-0.00194392
0.00243042
0.00355751
0.00756532
0.0102987
0.0142497
0.0150095
0.0177448
0.019116
0.0214584
0.0226445
0.024551
0.026865
0.0293057
0.0328991
0.0358238
0.000171187
0.0048551
0.00474162
0.00382716
-0.00180864
0.00244452
0.0035713
0.00757164
0.0103088
0.0142222
0.0149943
0.0176724
0.0191095
0.021361
0.0226408
0.0244483
0.0268141
0.0291791
0.0326559
0.0354297
0.00019457
0.00488195
0.00471166
0.00384058
-0.0016678
0.00245963
0.00358723
0.00757605
0.0103207
0.0141891
0.0149764
0.0175905
0.0191028
0.0212563
0.0226306
0.0243456
0.0267438
0.0290474
0.0323914
0.0350273
0.000218657
0.00490941
0.00468288
0.00385418
-0.00152094
0.00247737
0.00360777
0.0075796
0.0103345
0.0141508
0.0149559
0.0174992
0.0190954
0.0211459
0.0226112
0.0242445
0.0266532
0.0289083
0.032108
0.0346143
0.000243804
0.00493677
0.00465442
0.00386758
-0.00136799
0.00249913
0.0036353
0.00758351
0.0103507
0.0141072
0.0149333
0.0173988
0.0190865
0.021032
0.0225804
0.0241458
0.0265422
0.0287592
0.0318079
0.0341896
0.000270224
0.00496364
0.00462582
0.00388061
-0.00120938
0.00252558
0.00367125
0.00758869
0.0103694
0.0140586
0.0149091
0.0172902
0.0190749
0.0209171
0.022536
0.0240494
0.0264118
0.0285976
0.0314931
0.0337525
0.000297984
0.00498989
0.00459702
0.00389314
-0.00104575
0.00255662
0.00371605
0.00759537
0.0103911
0.014005
0.014884
0.0171745
0.019059
0.0208035
0.0224766
0.0239544
0.0262633
0.0284209
0.0311652
0.0333032
0.000327053
0.00501555
0.00456822
0.0039051
-0.000877835
0.00259151
0.00376849
0.0076031
0.0104159
0.0139464
0.0148581
0.0170534
0.0190369
0.0206928
0.022401
0.0238594
0.0260988
0.0282269
0.0308252
0.0328429
0.000357362
0.00504071
0.00453979
0.00391642
-0.000706267
0.00262918
0.00382699
0.00761097
0.010444
0.0138828
0.0148312
0.016929
0.0190067
0.0205864
0.0223092
0.023762
0.0259203
0.0280139
0.0304734
0.0323729
0.000388853
0.00506541
0.00451213
0.003927
-0.000531522
0.00266861
0.00389
0.007618
0.0104752
0.0138146
0.0148026
0.0168036
0.0189667
0.0204845
0.0222018
0.023659
0.0257294
0.0277813
0.0301102
0.0318945
0.000421495
0.00508968
0.00448561
0.00393679
-0.000353903
0.002709
0.00395631
0.00762338
0.0105093
0.0137424
0.0147712
0.0166789
0.0189156
0.0203869
0.0220801
0.0235475
0.0255278
0.0275291
0.0297354
0.031409
0.00045529
0.00511343
0.00446055
0.00394568
-0.000173602
0.0027498
0.00402521
0.00762666
0.0105459
0.013667
0.0147351
0.0165565
0.0188527
0.0202927
0.0219454
0.0234243
0.0253165
0.0272583
0.0293485
0.0309169
0.000490268
0.00513658
0.00443724
0.00395364
9.24467e-06
0.00279063
0.00409637
0.00762771
0.0105844
0.01359
0.0146926
0.0164373
0.0187776
0.0202005
0.0218003
0.023286
0.0250945
0.0269718
0.0289505
0.0304183
0.000526476
0.00515899
0.00441595
0.0039606
0.00019453
0.00283133
0.00416962
0.00762672
0.0106238
0.0135129
0.0146422
0.0163217
0.0186906
0.020107
0.0216475
0.0231334
0.0248584
0.0266685
0.0285446
0.0299152
0.000563976
0.00518051
0.00439695
0.00396653
0.000382121
0.00287193
0.00424472
0.00762418
0.0106629
0.0134371
0.0145829
0.0162098
0.0185936
0.0200092
0.0214855
0.0229693
0.0246108
0.0263437
0.0281287
0.0294111
0.00060284
0.00520099
0.00438049
0.00397144
0.000571866
0.00291251
0.00432145
0.00762071
0.0107003
0.0133639
0.0145142
0.0161003
0.0184875
0.019907
0.0213133
0.0227888
0.0243576
0.0260018
0.0276978
0.0289045
0.000643148
0.00522027
0.00436686
0.00397531
0.000763622
0.00295309
0.00439955
0.00761725
0.0107347
0.0132943
0.0144361
0.0159918
0.0183732
0.0197972
0.021135
0.0225896
0.0240933
0.0256513
0.0272552
0.0283923
0.000684986
0.00523816
0.00435632
0.00397825
0.000957026
0.00299411
0.00447833
0.00761474
0.0107652
0.0132288
0.0143481
0.0158838
0.018253
0.0196783
0.020946
0.0223761
0.0238189
0.0252905
0.0268008
0.0278763
0.000728446
0.00525451
0.00434911
0.00398035
0.00115182
0.00303593
0.00455682
0.00761435
0.0107903
0.0131684
0.0142499
0.0157772
0.0181243
0.0195539
0.0207469
0.0221388
0.0235342
0.0249224
0.0263456
0.0273554
0.000773673
0.00526909
0.00434544
0.00398174
0.00134756
0.00307909
0.00463437
0.00761702
0.0108096
0.0131126
0.0141446
0.0156634
0.0179937
0.0194158
0.0205401
0.0218915
0.0232246
0.024536
0.0259021
0.0268371
0.000820708
0.00528176
0.00434542
0.00398279
0.00154341
0.00312453
0.00470996
0.00762351
0.0108225
0.0130598
0.014036
0.0155378
0.0178625
0.0192676
0.0203157
0.0216379
0.0229098
0.0241248
0.0254191
0.0263264
0.000869657
0.00529232
0.00434939
0.00398331
0.00173933
0.00317244
0.00478333
0.00763373
0.0108296
0.0130087
0.0139263
0.0154022
0.0177231
0.0191208
0.0200807
0.0213422
0.0225962
0.0237148
0.0249268
0.0258151
0.000920847
0.0053004
0.0043575
0.00398373
0.00193413
0.00322394
0.00485381
0.00764718
0.0108317
0.0129578
0.0138171
0.0152525
0.0175823
0.018959
0.0198449
0.02104
0.0222454
0.0232962
0.0243856
0.0253091
0.000974115
0.00530597
0.00436933
0.00398517
0.00212626
0.00328041
0.00491937
0.00766652
0.0108262
0.0129086
0.0137035
0.0151015
0.0174275
0.0187945
0.0195894
0.0207194
0.021872
0.0228597
0.0239014
0.0248093
0.00102959
0.00530873
0.00438545
0.00398686
0.00231644
0.00334158
0.00497976
0.00769082
0.010816
0.012858
0.0135883
0.0149458
0.0172556
0.0186244
0.0193138
0.0203599
0.0215044
0.0224355
0.0234642
0.0243014
0.00108797
0.00530806
0.00440584
0.00398956
0.00250314
0.00340784
0.00503773
0.00771316
0.0108062
0.0128015
0.0134812
0.0147726
0.0170801
0.0184319
0.0190524
0.0199935
0.0211089
0.0220174
0.0228834
0.0237904
0.00114861
0.00530432
0.0044294
0.003995
0.00268392
0.00348092
0.00508942
0.00774085
0.0107905
0.0127439
0.0133687
0.0145989
0.0168872
0.0182289
0.0187575
0.0196222
0.0206962
0.0215865
0.0224087
0.0232872
0.00121168
0.00529706
0.00445714
0.00400216
0.00286012
0.00355965
0.00513564
0.00777432
0.0107714
0.0126829
0.0132534
0.0144218
0.0166745
0.0180073
0.0184368
0.0192329
0.0202832
0.0211491
0.0220434
0.0227907
0.00127833
0.00528548
0.00448878
0.00401239
0.00303067
0.00364304
0.00518159
0.00779401
0.0107602
0.0126112
0.0131511
0.0142308
0.0164528
0.0177761
0.0181497
0.0188329
0.0198451
0.0206976
0.0214056
0.0222948
0.00134734
0.00527081
0.00452178
0.00402774
0.00319365
0.00373309
0.00522161
0.00782003
0.0107406
0.0125435
0.012953
0.0140371
0.0162089
0.0175259
0.0178267
0.0184175
0.0193887
0.0202528
0.0209408
0.0218046
0.00141937
0.00525232
0.00455765
0.0040466
0.00335099
0.00382719
0.0052589
0.0078547
0.0107117
0.0124818
0.0128224
0.0138212
0.0159442
0.0172666
0.0174855
0.0179927
0.0189004
0.0198068
0.020683
0.0213382
0.00149538
0.00522932
0.0045958
0.00406991
0.00350245
0.00392329
0.00529927
0.00785564
0.0106954
0.0124031
0.0127155
0.0136075
0.0156807
0.0169964
0.0171869
0.0175537
0.0183818
0.0192562
0.0199908
0.0209062
0.00157364
0.00520364
0.00463364
0.00409984
0.0036465
0.00402191
0.00533969
0.00786569
0.010672
0.0123194
0.0125902
0.0133922
0.0153913
0.0167345
0.0168655
0.0170878
0.0178622
0.0186805
0.0194713
0.0205346
0.00165569
0.00517461
0.00467212
0.00413489
0.00378513
0.00412224
0.00537904
0.00787408
0.0106375
0.0122359
0.0124566
0.0131679
0.0150906
0.0164592
0.0165345
0.0166402
0.0173008
0.0181154
0.0190506
0.0201398
0.00174159
0.005142
0.00470999
0.00417563
0.00391901
0.00422315
0.00541726
0.00787905
0.0105968
0.0121424
0.0123197
0.0129396
0.0147829
0.0161618
0.016214
0.0161815
0.016747
0.0176188
0.0185806
0.019704
0.00183027
0.00510717
0.00474632
0.00422219
0.00404823
0.00432338
0.00545521
0.00788077
0.0105459
0.0120411
0.0121772
0.0127136
0.0144551
0.0158542
0.0158904
0.0157132
0.0162328
0.0171049
0.0180967
0.0192691
0.00192295
0.0050703
0.00478076
0.00427294
0.00417473
0.00442299
0.00549139
0.00787699
0.0104895
0.0119262
0.0120338
0.0124797
0.0141242
0.0155185
0.0155699
0.0152922
0.0157114
0.0165644
0.0175864
0.018848
0.00201905
0.00503157
0.00481282
0.00432812
0.00429807
0.00452162
0.00552582
0.00786752
0.0104257
0.0118075
0.0118842
0.0122451
0.0137822
0.0151677
0.0152583
0.0148809
0.015177
0.0160177
0.0171054
0.0184328
0.00211844
0.00499173
0.00484248
0.00438629
0.00441832
0.00461988
0.00555863
0.00785061
0.0103546
0.0116841
0.0117278
0.0120078
0.013434
0.0148047
0.0149386
0.0144789
0.0146558
0.0154707
0.0166241
0.018016
0.00222145
0.00495124
0.00486923
0.00444676
0.00453622
0.00471769
0.00558886
0.00782507
0.0102762
0.0115527
0.0115705
0.0117661
0.013087
0.0144188
0.0146087
0.0141053
0.014144
0.0149219
0.0161073
0.0175905
0.00232765
0.00491087
0.00489269
0.00450915
0.00465048
0.00481493
0.00561783
0.00779113
0.010188
0.0114177
0.0114114
0.0115251
0.0127306
0.0140218
0.0142676
0.0137376
0.0136537
0.0143717
0.0155956
0.0171591
0.00243712
0.0048712
0.00491276
0.0045722
0.00476064
0.00491207
0.00564604
0.00774795
0.0100898
0.0112769
0.0112532
0.0112803
0.0123698
0.0136148
0.0139062
0.0133879
0.0131883
0.0138226
0.0150536
0.0167173
0.00254965
0.00483277
0.00492934
0.00463581
0.00486612
0.00500786
0.00567345
0.00769604
0.00998145
0.0111305
0.0110937
0.0110365
0.0120032
0.0131988
0.0135332
0.0130435
0.0127416
0.0132815
0.0145245
0.0162689
0.00266501
0.00479651
0.00494229
0.00469889
0.00496581
0.00510197
0.00570128
0.00763638
0.00986278
0.0109765
0.0109322
0.0107964
0.011632
0.0127763
0.0131436
0.0126982
0.0123211
0.0127603
0.0139813
0.0158107
0.00278297
0.00476301
0.00495151
0.00476109
0.00505979
0.00519299
0.00572939
0.00756957
0.00973346
0.0108138
0.0107672
0.0105647
0.0112579
0.0123445
0.012742
0.0123484
0.0119231
0.0122605
0.0134552
0.0153497
0.00290311
0.00473325
0.00495697
0.00482194
0.00514765
0.00527862
0.00575738
0.00749698
0.00959442
0.0106442
0.0105971
0.0103415
0.010884
0.0119013
0.0123289
0.0119944
0.0115445
0.0117866
0.0129325
0.0148859
0.00302497
0.00470799
0.00495907
0.00488038
0.00522923
0.00535805
0.00578412
0.00741946
0.00944698
0.0104685
0.010419
0.0101251
0.0105148
0.0114483
0.0119045
0.0116331
0.0111819
0.0113409
0.012435
0.0144271
0.00314821
0.00468794
0.00495848
0.00493582
0.00530426
0.00543022
0.00580805
0.00733716
0.00929172
0.0102883
0.0102311
0.00991391
0.0101566
0.0109881
0.0114669
0.0112631
0.0108328
0.0109255
0.011961
0.013975
0.00327237
0.00467367
0.00495598
0.00498741
0.00537215
0.0054944
0.00582836
0.00725094
0.00912917
0.0101042
0.0100343
0.00970244
0.0098164
0.0105245
0.0110147
0.0108843
0.0104896
0.0105384
0.0115171
0.0135341
0.00339654
0.00466576
0.00495222
0.00503414
0.00543312
0.00554988
0.00584396
0.0071622
0.00895894
0.00991678
0.00982926
0.00948748
0.0094933
0.0100656
0.0105499
0.0104902
0.0101517
0.0101808
0.0111034
0.0131073
0.00352043
0.00466493
0.00494719
0.00507505
0.00548728
0.00559729
0.00585444
0.00707157
0.00878141
0.00972555
0.00961925
0.00926381
0.00918573
0.00961836
0.0100737
0.0100821
0.00981554
0.00984464
0.0107194
0.0126986
0.00364363
0.00467087
0.00494133
0.00510996
0.00553449
0.00563759
0.00585958
0.00698022
0.00859626
0.00952809
0.00940612
0.0090293
0.00888878
0.00918757
0.00959374
0.0096595
0.00947198
0.00952386
0.0103657
0.0123115
0.00376527
0.00468313
0.00493538
0.00513786
0.00557484
0.00567245
0.00586031
0.00688773
0.00840237
0.00932139
0.00919251
0.00878476
0.00859653
0.00877734
0.00911761
0.00922312
0.00911699
0.00921298
0.0100385
0.0119456
0.00388493
0.00470159
0.00492924
0.00515803
0.00560898
0.00570376
0.00585602
0.00679183
0.00819964
0.00910363
0.00898015
0.00853383
0.00830549
0.00838697
0.00865118
0.00877796
0.0087483
0.0089029
0.00972976
0.0116
0.00400222
0.00472552
0.0049234
0.00517108
0.00563713
0.00573122
0.00584488
0.00669124
0.00799025
0.00887398
0.00876936
0.00828187
0.00801123
0.0080116
0.00819952
0.00832999
0.00836614
0.00858581
0.00943059
0.0112715
0.00411665
0.00475455
0.0049189
0.00517775
0.00565812
0.00575371
0.00582715
0.0065868
0.00777688
0.00863094
0.00855721
0.00803271
0.00771232
0.00764703
0.00776463
0.00788517
0.00797373
0.00825741
0.00913173
0.0109547
0.00422777
0.00478827
0.00491668
0.00517837
0.00567048
0.00577085
0.0058045
0.00647868
0.00756084
0.00837358
0.00833873
0.00778939
0.00741285
0.00728978
0.00734494
0.00744741
0.00757382
0.00791554
0.00882583
0.0106439
0.0043352
0.00482615
0.00491757
0.00517342
0.00567307
0.00578202
0.00577783
0.00636635
0.00734301
0.00810324
0.00811045
0.00755329
0.00711668
0.00693724
0.00693773
0.00701807
0.00716923
0.00756096
0.00850969
0.0103342
0.00443863
0.00486751
0.0049219
0.00516342
0.00566538
0.00578637
0.00574761
0.00624983
0.00712479
0.00782285
0.00786873
0.00732177
0.00682683
0.00658952
0.00653993
0.00659739
0.00676423
0.0071971
0.00818298
0.010022
0.00453783
0.00491161
0.00492994
0.00514915
0.0056472
0.00578269
0.0057142
0.0061296
0.00690708
0.00753563
0.0076102
0.00709072
0.00654623
0.00624858
0.00615031
0.00618524
0.00636076
0.00682623
0.00784676
0.00970563
0.00463258
0.00495762
0.00494182
0.00513159
0.00561861
0.00576943
0.00567744
0.00600653
0.00668988
0.00724433
0.0073347
0.00685615
0.00627529
0.00591648
0.00576846
0.00577941
0.00595906
0.00645115
0.00750353
0.00938557
0.00472278
0.00500482
0.0049573
0.00511153
0.00557992
0.00574547
0.00563687
0.00588122
0.00647334
0.0069523
0.00704397
0.00661288
0.00601176
0.0055952
0.00539509
0.00537923
0.00556032
0.00607421
0.00715553
0.00906228
0.0048084
0.00505233
0.00497598
0.0050899
0.00553177
0.00570982
0.00559172
0.00575435
0.00625727
0.00666221
0.00674037
0.00635687
0.0057531
0.00528576
0.00503259
0.00498606
0.005164
0.00569501
0.00680359
0.00873696
0.00488945
0.00509938
0.00499721
0.00506753
0.00547509
0.00566175
0.0055408
0.00562676
0.00604143
0.00637576
0.00642797
0.0060861
0.00549499
0.00498691
0.00468196
0.00460017
0.00476968
0.00531423
0.00644852
0.00840956
0.00496592
0.00514527
0.00502033
0.00504515
0.00541087
0.00560089
0.00548272
0.00549876
0.00582573
0.00609426
0.00611112
0.00579964
0.00523229
0.00469657
0.00434366
0.00422342
0.00437954
0.00493337
0.00609112
0.00808003
0.00503792
0.00518929
0.00504443
0.00502333
0.00534023
0.00552733
0.00541627
0.00537072
0.00560998
0.00581746
0.00579371
0.00549886
0.00496126
0.00441157
0.00401745
0.0038579
0.00399547
0.00455334
0.00573136
0.00774784
0.00510549
0.00523098
0.00506863
0.00500218
0.00526456
0.00544156
0.0053401
0.00524253
0.00539438
0.00554442
0.00547966
0.00518766
0.00467893
0.00412759
0.00370167
0.00350433
0.00361904
0.00417495
0.00536926
0.00741305
0.00516874
0.00526993
0.00509195
0.00498173
0.00518543
0.00534443
0.00525273
0.00511386
0.0051799
0.00527351
0.00517108
0.00487036
0.00438442
0.00384018
0.00339328
0.00316232
0.00325181
0.00380039
0.00500641
0.00707562
0.00522773
0.00530596
0.00511348
0.00496164
0.00510403
0.00523733
0.00515312
0.00498381
0.00496815
0.00500334
0.004868
0.00455134
0.00407935
0.00354611
0.00308844
0.00283041
0.00289452
0.00343144
0.00464404
0.00673544
0.00528252
0.00533873
0.0051324
0.00494161
0.00502149
0.00512218
0.00504091
0.00485022
0.00476033
0.00473354
0.00456857
0.00423419
0.00376732
0.00324427
0.00278315
0.00250568
0.00254695
0.00306961
0.00428394
0.00639316
0.00533325
0.00536818
0.00514791
0.00492082
0.00493861
0.00500095
0.00491651
0.00471096
0.00455766
0.0044659
0.00427055
0.00391977
0.00345161
0.0029353
0.00247423
0.00218455
0.00220732
0.00271439
0.00392775
0.0060498
0.00537977
0.00539423
0.00515979
0.00489879
0.00485568
0.00487516
0.00478137
0.00456373
0.00435908
0.00420336
0.00397331
0.00360722
0.0031345
0.00262138
0.00216112
0.00186432
0.00187468
0.00237325
0.00357764
0.00570644
0.00542224
0.00541683
0.00516752
0.00487514
0.00477313
0.00474638
0.00463784
0.00440716
0.00416127
0.00394728
0.00367786
0.00329547
0.00281708
0.00230446
0.00184418
0.00154194
0.00154195
0.00202848
0.00322878
0.00536214
0.00546039
0.00543606
0.00517109
0.0048494
0.00469127
0.00461587
0.00448783
0.00424226
0.00396159
0.00369728
0.00338595
0.00298405
0.00249904
0.00198481
0.00152351
0.00121742
0.0012095
0.00168669
0.00288175
0.00501698
0.00549434
0.00545202
0.00517041
0.00482092
0.00461018
0.00448414
0.00433245
0.00407135
0.00375957
0.00345331
0.00310013
0.00267285
0.00217968
0.00166302
0.00119896
0.000888782
0.000874304
0.00134425
0.00253433
0.00466932
0.0055238
0.00546526
0.00516638
0.00478958
0.00453005
0.00435211
0.00417185
0.00389408
0.00355254
0.00321358
0.00282536
0.00236672
0.00185852
0.00133845
0.000872164
0.000555456
0.000534178
0.000998547
0.0021841
0.00431681
0.0055487
0.00547524
0.00515922
0.00475564
0.00445103
0.00422201
0.00400941
0.00371473
0.00333983
0.00296677
0.00255499
0.00207285
0.00154262
0.00100826
0.000540066
0.000219064
0.000191367
0.000648457
0.00182896
0.00395812
0.00556954
0.00548242
0.00514908
0.00471912
0.00437171
0.00409206
0.00384317
0.00353799
0.00313612
0.00271844
0.00227646
0.00177918
0.00123858
0.000680522
0.000192176
-0.000131091
-0.00016349
0.000284546
0.00145446
0.00357883
0.00558529
0.00548678
0.00513711
0.00468204
0.00429385
0.00396499
0.00367
0.00335123
0.00293939
0.0024891
0.00201051
0.00148121
0.000933547
0.000388822
-0.000117561
-0.000469824
-0.000524104
-8.8247e-05
0.00107502
0.00319406
0.00559508
0.00548776
0.00512155
0.00464358
0.00421479
0.00384253
0.00349845
0.0031516
0.00272665
0.00225847
0.00176533
0.00120245
0.000592974
5.3751e-06
-0.000489711
-0.000834033
-0.000897733
-0.000480436
0.000664381
0.00276938
0.00561836
0.00550103
0.00512095
0.00460935
0.00413433
0.00372142
0.00333598
0.00295983
0.00251193
0.00201557
0.00152286
0.000994132
0.000410662
-0.0002129
-0.000771103
-0.00116383
-0.00125519
-0.000863082
0.000250608
0.0023212
0.00555468
0.00548548
0.00512609
0.00457988
0.00405509
0.00360315
0.00317981
0.00278166
0.00231548
0.00176197
0.00118958
0.000597489
-2.78368e-06
-0.000573713
-0.00109171
-0.00146356
-0.00155137
-0.00116174
-5.35033e-05
0.00200701
0.0056079
0.00549653
0.00508873
0.00453668
0.00396296
0.00344607
0.0029901
0.00261385
0.00221834
0.00172966
0.00116721
0.000551074
-0.000133374
-0.000859124
-0.00152992
-0.00203628
-0.00223963
-0.00195078
-0.000930556
0.00105247
0.00554359
0.00549236
0.00504739
0.00457854
0.00402552
0.00335041
0.00271311
0.00223843
0.00174395
0.00126742
0.000729989
0.000192687
-0.00031862
-0.000789394
-0.00121589
-0.00152683
-0.00162508
-0.00132986
-0.000394086
0.0014557
0.00566146
0.00545747
0.00506859
0.00444079
0.00378635
0.00330693
0.00289343
0.00247426
0.00203651
0.00148209
0.000788902
1.7804e-05
-0.00083854
-0.00173493
-0.00258946
-0.0033089
-0.00373762
-0.00367445
-0.00285997
-0.0010717
0.00588669
0.00535303
0.00485609
0.00422959
0.00365106
0.00300216
0.00242751
0.00195081
0.00149154
0.000892301
0.000311669
-0.000162959
-0.000384472
-0.000321008
4.27439e-05
0.000649725
0.00136537
0.00193188
0.00199211
0.00121317
0.00585137
0.00538071
0.00483934
0.00427451
0.00379231
0.00334522
0.00294694
0.0024948
0.00197288
0.00131577
0.000483711
-0.000528783
-0.00168094
-0.00288414
-0.00403028
-0.00501654
-0.00569862
-0.00588646
-0.00532672
-0.00378106
0.00601358
0.00534377
0.00475425
0.00416771
0.00369288
0.00312087
0.00248802
0.00172485
0.00102495
0.000510095
9.95518e-06
-0.000585267
-0.00110497
-0.00140757
-0.00140942
-0.00112084
-0.000643861
-0.000237813
-0.000266565
-0.00108262
0.00600691
0.00532243
0.00474418
0.00422611
0.00389023
0.00357259
0.00325406
0.00280662
0.00220401
0.00132812
0.000149548
-0.00139021
-0.00320636
-0.00510542
-0.00684698
-0.00824388
-0.00914047
-0.00935892
-0.00868312
-0.00692449
0.0512667
0.0241491
0.0132003
0.0110453
0.0102971
0.0093365
0.00822446
0.00718907
0.00635565
0.00565691
0.00499769
0.00437486
0.0037467
0.00311433
0.00258548
0.00212585
0.00160681
0.00110382
0.000676747
0.000208766
-0.000328959
-0.000838888
-0.00138598
-0.00198929
-0.00257098
-0.00312108
-0.00363923
-0.00412556
-0.0047351
-0.00546692
-0.00616638
-0.00681072
-0.00746926
-0.00821227
-0.00897251
-0.00976915
-0.0105661
-0.0114184
-0.012288
-0.0131765
-0.0141152
-0.0150374
-0.0160784
-0.0170705
-0.018234
-0.0193555
-0.0206557
-0.022075
-0.0236316
-0.0256918
0.0501464
0.0241948
0.0132468
0.0110648
0.0103078
0.00934363
0.00822971
0.00719311
0.00635884
0.00565945
0.00499974
0.00437653
0.00374808
0.00311548
0.00258644
0.00212671
0.0016076
0.00110452
0.000677395
0.000209376
-0.000328395
-0.000838367
-0.00138548
-0.00198883
-0.00257055
-0.00312069
-0.00363889
-0.00412524
-0.0047348
-0.00546664
-0.00616613
-0.0068105
-0.00746905
-0.00821208
-0.00897234
-0.00976899
-0.0105659
-0.0114182
-0.0122879
-0.0131764
-0.0141151
-0.0150373
-0.0160783
-0.0170704
-0.0182339
-0.0193555
-0.0206556
-0.0220749
-0.0236316
-0.0256918
0.0492172
0.0242924
0.0133213
0.0110887
0.0103193
0.00935094
0.00823476
0.00719687
0.00636179
0.00566183
0.00500165
0.00437808
0.00374935
0.0031165
0.0025873
0.00212748
0.0016083
0.00110514
0.000677969
0.000209921
-0.000327899
-0.000837908
-0.00138504
-0.00198842
-0.00257018
-0.00312035
-0.00363858
-0.00412495
-0.00473452
-0.0054664
-0.00616591
-0.0068103
-0.00746886
-0.00821191
-0.00897218
-0.00976885
-0.0105658
-0.0114181
-0.0122878
-0.0131763
-0.014115
-0.0150372
-0.0160782
-0.0170703
-0.0182338
-0.0193554
-0.0206556
-0.0220749
-0.0236316
-0.0256919
0.0483876
0.0244157
0.0134285
0.0111232
0.0103347
0.00936014
0.00824073
0.00720115
0.00636514
0.00566453
0.0050038
0.00437981
0.00375076
0.00311762
0.0025882
0.00212827
0.00160899
0.00110574
0.000678541
0.000210465
-0.00032741
-0.000837454
-0.00138461
-0.00198803
-0.00256982
-0.00312002
-0.00363828
-0.00412465
-0.00473423
-0.00546616
-0.0061657
-0.0068101
-0.00746867
-0.00821174
-0.00897203
-0.00976871
-0.0105657
-0.011418
-0.0122877
-0.0131761
-0.0141149
-0.0150371
-0.0160781
-0.0170702
-0.0182337
-0.0193553
-0.0206555
-0.0220748
-0.0236316
-0.0256921
0.0475701
0.0245459
0.0135606
0.0111686
0.010355
0.00937244
0.00824855
0.00720667
0.00636946
0.00566803
0.00500658
0.00438204
0.00375257
0.00311903
0.0025893
0.00212918
0.00160976
0.0011064
0.000679152
0.000211043
-0.000326892
-0.000836972
-0.00138415
-0.00198763
-0.00256945
-0.00311966
-0.00363797
-0.00412433
-0.00473392
-0.0054659
-0.00616548
-0.00680989
-0.00746847
-0.00821156
-0.00897187
-0.00976856
-0.0105655
-0.0114179
-0.0122876
-0.013176
-0.0141148
-0.015037
-0.016078
-0.0170701
-0.0182336
-0.0193552
-0.0206554
-0.0220748
-0.0236315
-0.0256922
0.0467459
0.0246759
0.0137059
0.0112199
0.010379
0.00938765
0.00825847
0.00721377
0.00637506
0.0056726
0.00501024
0.00438498
0.00375499
0.00312096
0.00259074
0.00213027
0.00161063
0.00110712
0.000679807
0.000211656
-0.000326334
-0.00083645
-0.00138367
-0.00198721
-0.00256905
-0.00311929
-0.00363763
-0.00412397
-0.00473359
-0.00546563
-0.00616525
-0.00680966
-0.00746825
-0.00821136
-0.00897169
-0.0097684
-0.0105654
-0.0114177
-0.0122874
-0.0131759
-0.0141147
-0.0150369
-0.0160779
-0.01707
-0.0182335
-0.0193551
-0.0206553
-0.0220747
-0.0236315
-0.0256925
0.0459161
0.0248022
0.0138575
0.0112735
0.0104045
0.00940482
0.00827014
0.00722239
0.00638201
0.00567832
0.00501488
0.00438878
0.0037582
0.00312358
0.00259269
0.00213167
0.00161166
0.00110793
0.000680507
0.0002123
-0.000325731
-0.000835873
-0.00138313
-0.00198677
-0.00256864
-0.00311889
-0.00363726
-0.00412358
-0.00473322
-0.00546534
-0.006165
-0.00680941
-0.007468
-0.00821114
-0.0089715
-0.00976823
-0.0105652
-0.0114176
-0.0122873
-0.0131758
-0.0141146
-0.0150368
-0.0160778
-0.0170699
-0.0182335
-0.0193551
-0.0206552
-0.0220746
-0.0236314
-0.0256928
0.0450838
0.0249224
0.0140132
0.0113279
0.0104305
0.00942303
0.008283
0.0072322
0.00639012
0.00568511
0.00502046
0.00439344
0.00376223
0.00312701
0.0025953
0.0021335
0.00161295
0.00110888
0.000681256
0.000212968
-0.000325079
-0.000835223
-0.00138252
-0.00198627
-0.0025682
-0.00311848
-0.00363688
-0.00412315
-0.0047328
-0.00546503
-0.00616473
-0.00680913
-0.00746773
-0.0082109
-0.00897128
-0.00976804
-0.010565
-0.0114174
-0.0122872
-0.0131757
-0.0141145
-0.0150367
-0.0160777
-0.0170698
-0.0182333
-0.0193549
-0.0206551
-0.0220744
-0.0236312
-0.0256931
0.0442506
0.0250353
0.0141725
0.0113827
0.0104563
0.00944178
0.00829658
0.00724277
0.00639906
0.00569272
0.00502681
0.00439882
0.003767
0.0031312
0.00259861
0.00213585
0.0016146
0.00111003
0.000682067
0.000213648
-0.000324392
-0.000834496
-0.00138181
-0.00198567
-0.00256771
-0.00311806
-0.00363648
-0.00412268
-0.00473234
-0.00546467
-0.00616442
-0.00680882
-0.00746743
-0.00821063
-0.00897104
-0.00976782
-0.0105648
-0.0114173
-0.012287
-0.0131755
-0.0141143
-0.0150365
-0.0160776
-0.0170697
-0.0182332
-0.0193548
-0.020655
-0.0220742
-0.023631
-0.0256935
0.0434178
0.0251397
0.0143355
0.011438
0.0104817
0.00946082
0.00831061
0.00725376
0.0064085
0.00570088
0.0050337
0.00440476
0.00377234
0.003136
0.00260254
0.00213875
0.00161666
0.00111142
0.000682961
0.000214334
-0.00032369
-0.000833713
-0.00138098
-0.00198493
-0.00256711
-0.00311761
-0.0036361
-0.00412219
-0.00473183
-0.00546426
-0.00616407
-0.00680847
-0.00746708
-0.00821031
-0.00897076
-0.00976756
-0.0105646
-0.0114171
-0.0122868
-0.0131754
-0.0141142
-0.0150364
-0.0160775
-0.0170696
-0.0182331
-0.0193547
-0.0206548
-0.022074
-0.0236307
-0.0256939
0.0425861
0.0252347
0.014502
0.0114939
0.0105065
0.00948001
0.008325
0.00726499
0.00641818
0.00570936
0.00504096
0.00441108
0.00377808
0.00314122
0.00260691
0.00214212
0.00161916
0.00111311
0.000683964
0.000215029
-0.000322994
-0.000832916
-0.00138005
-0.00198399
-0.00256633
-0.00311711
-0.00363576
-0.00412171
-0.00473128
-0.00546379
-0.00616367
-0.00680808
-0.00746671
-0.00820996
-0.00897043
-0.00976727
-0.0105644
-0.0114168
-0.0122867
-0.0131752
-0.014114
-0.0150363
-0.0160774
-0.0170695
-0.018233
-0.0193545
-0.0206546
-0.0220737
-0.0236303
-0.0256944
0.0417567
0.0253191
0.0146719
0.0115507
0.0105306
0.00949924
0.0083397
0.00727638
0.00642794
0.00571798
0.00504841
0.00441765
0.00378408
0.0031467
0.00261157
0.00214585
0.00162204
0.00111509
0.000685097
0.000215745
-0.000322312
-0.000832147
-0.00137908
-0.00198287
-0.0025653
-0.00311648
-0.00363545
-0.00412129
-0.00473072
-0.00546325
-0.00616319
-0.00680764
-0.00746629
-0.00820956
-0.00897005
-0.00976692
-0.010564
-0.0114166
-0.0122864
-0.013175
-0.0141139
-0.0150361
-0.0160772
-0.0170693
-0.0182328
-0.0193543
-0.0206544
-0.0220733
-0.0236298
-0.0256948
0.0409311
0.0253921
0.0148448
0.0116086
0.0105539
0.00951834
0.00835468
0.00728794
0.00643768
0.00572659
0.00505594
0.00442437
0.00379027
0.00315234
0.0026164
0.00214978
0.0016252
0.00111734
0.000686364
0.000216495
-0.000321637
-0.000831432
-0.00137814
-0.00198163
-0.00256399
-0.00311566
-0.00363516
-0.00412098
-0.00473022
-0.00546267
-0.00616263
-0.00680714
-0.00746585
-0.00820913
-0.00896962
-0.00976652
-0.0105637
-0.0114163
-0.0122862
-0.0131748
-0.0141137
-0.015036
-0.0160771
-0.0170692
-0.0182327
-0.0193541
-0.0206541
-0.0220728
-0.0236292
-0.0256953
0.0401106
0.0254529
0.0150206
0.011668
0.0105764
0.00953715
0.00836995
0.00729976
0.00644738
0.00573508
0.00506345
0.00443117
0.00379658
0.00315813
0.00262133
0.00215384
0.00162855
0.00111979
0.000687754
0.000217285
-0.000320953
-0.000830771
-0.00137729
-0.00198035
-0.00256243
-0.00311457
-0.00363487
-0.00412081
-0.00472982
-0.00546209
-0.00616198
-0.00680655
-0.00746537
-0.00820868
-0.00896916
-0.00976606
-0.0105633
-0.0114159
-0.0122859
-0.0131746
-0.0141135
-0.0150358
-0.0160769
-0.017069
-0.0182325
-0.0193539
-0.0206538
-0.0220721
-0.0236284
-0.0256958
0.0392969