/*--------------------------------*- C++ -*----------------------------------*\
| =========                 |                                                 |
| \\      /  F ield         | OpenFOAM: The Open Source CFD Toolbox           |
|  \\    /   O peration     | Version:  v2012                                 |
|   \\  /    A nd           | Website:  www.openfoam.com                      |
|    \\/     M anipulation  |                                                 |
\*---------------------------------------------------------------------------*/
FoamFile
{
    version     2.0;
    format      ascii;
    class       surfaceScalarField;
    location    "3.6";
    object      phi;
}
// * * * * * * * * * * * * * * * * * * * * * * * * * * * * * * * * * * * * * //

dimensions      [0 3 -1 0 0 0 0];
oriented        oriented;


internalField   nonuniform List<scalar> 
13830
(
9.37129e-07
-8.38312e-07
9.34125e-07
2.73529e-06
9.05013e-07
-1.63086e-06
9.45373e-07
-2.73608e-06
1.03358e-06
-3.00434e-06
1.01373e-06
-1.85935e-07
9.95208e-07
4.99405e-07
1.02672e-06
9.00606e-07
1.02924e-06
1.16904e-07
1.02904e-06
2.69468e-07
1.0232e-06
-2.83064e-07
1.00219e-06
-2.4561e-07
9.92612e-07
-4.42415e-07
9.70207e-07
-4.25417e-07
9.68616e-07
-5.70267e-07
9.55018e-07
-4.8679e-07
9.6531e-07
-4.75044e-07
9.54815e-07
-4.21664e-07
9.67539e-07
-2.79531e-07
-3.04544e-07
9.44002e-07
9.75146e-07
-8.40926e-07
9.91034e-07
2.71941e-06
9.37821e-07
-1.57765e-06
9.59789e-07
-2.75805e-06
1.06417e-06
-3.10873e-06
1.05317e-06
-1.74934e-07
1.03393e-06
5.18649e-07
1.0729e-06
8.61631e-07
1.06992e-06
1.19891e-07
1.07585e-06
2.63535e-07
1.05849e-06
-2.65706e-07
1.04469e-06
-2.31808e-07
1.02125e-06
-4.18976e-07
1.00841e-06
-4.12581e-07
9.91674e-07
-5.53528e-07
9.90086e-07
-4.85202e-07
9.85114e-07
-4.70073e-07
9.89432e-07
-4.25982e-07
9.87634e-07
-2.77733e-07
-3.01059e-07
9.84149e-07
1.01476e-06
-8.46235e-07
1.04037e-06
2.6938e-06
9.70498e-07
-1.50778e-06
9.81611e-07
-2.76916e-06
1.08955e-06
-3.21667e-06
1.09632e-06
-1.81703e-07
1.07576e-06
5.39209e-07
1.11862e-06
8.18776e-07
1.1131e-06
1.2541e-07
1.11727e-06
2.59362e-07
1.09297e-06
-2.41411e-07
1.07857e-06
-2.17401e-07
1.05084e-06
-3.91247e-07
1.03986e-06
-4.01604e-07
1.01812e-06
-5.31786e-07
1.01937e-06
-4.86453e-07
1.00905e-06
-4.59755e-07
1.01757e-06
-4.34501e-07
1.01288e-06
-2.7304e-07
-3.03509e-07
1.01533e-06
1.05477e-06
-8.53227e-07
1.08309e-06
2.66548e-06
1.00531e-06
-1.42999e-06
1.00862e-06
-2.77248e-06
1.10854e-06
-3.31658e-06
1.13653e-06
-2.09691e-07
1.12333e-06
5.52404e-07
1.16254e-06
7.79565e-07
1.15798e-06
1.29974e-07
1.1561e-06
2.61236e-07
1.12914e-06
-2.14452e-07
1.1122e-06
-2.00457e-07
1.08495e-06
-3.63998e-07
1.07395e-06
-3.90603e-07
1.05145e-06
-5.09284e-07
1.05202e-06
-4.87019e-07
1.03977e-06
-4.47509e-07
1.04774e-06
-4.42476e-07
1.04247e-06
-2.67762e-07
-3.06595e-07
1.04555e-06
1.09428e-06
-8.59955e-07
1.11964e-06
2.64012e-06
1.04434e-06
-1.3547e-06
1.04145e-06
-2.76959e-06
1.12437e-06
-3.3995e-06
1.17141e-06
-2.56724e-07
1.17442e-06
5.49385e-07
1.20771e-06
7.46279e-07
1.20404e-06
1.33643e-07
1.19626e-06
2.69017e-07
1.16782e-06
-1.86013e-07
1.14905e-06
-1.81691e-07
1.1229e-06
-3.37845e-07
1.11203e-06
-3.79732e-07
1.08933e-06
-4.86585e-07
1.08866e-06
-4.86349e-07
1.07535e-06
-4.34198e-07
1.0811e-06
-4.48229e-07
1.07593e-06
-2.6259e-07
-3.08133e-07
1.07747e-06
1.13357e-06
-8.64682e-07
1.15371e-06
2.61998e-06
1.08888e-06
-1.28986e-06
1.08003e-06
-2.76075e-06
1.1421e-06
-3.46157e-06
1.20338e-06
-3.18004e-07
1.22634e-06
5.26424e-07
1.25556e-06
7.1706e-07
1.25101e-06
1.38187e-07
1.23894e-06
2.81093e-07
1.20857e-06
-1.55643e-07
1.18906e-06
-1.62185e-07
1.16328e-06
-3.12062e-07
1.15287e-06
-3.69323e-07
1.1297e-06
-4.6342e-07
1.12796e-06
-4.84603e-07
1.11379e-06
-4.20033e-07
1.11701e-06
-4.5145e-07
1.11207e-06
-2.57644e-07
-3.07698e-07
1.11163e-06
1.17376e-06
-8.66748e-07
1.18949e-06
2.60426e-06
1.13833e-06
-1.2387e-06
1.12386e-06
-2.74628e-06
1.16581e-06
-3.50352e-06
1.23645e-06
-3.8864e-07
1.27767e-06
4.85203e-07
1.30538e-06
6.89347e-07
1.29841e-06
1.45158e-07
1.28348e-06
2.96026e-07
1.25059e-06
-1.22759e-07
1.23096e-06
-1.42555e-07
1.20503e-06
-2.86127e-07
1.19529e-06
-3.59582e-07
1.1717e-06
-4.39833e-07
1.16916e-06
-4.82058e-07
1.15436e-06
-4.05239e-07
1.15517e-06
-4.52255e-07
1.15041e-06
-2.52885e-07
-3.05457e-07
1.14817e-06
1.21607e-06
-8.66642e-07
1.23025e-06
2.59008e-06
1.19158e-06
-1.20002e-06
1.17209e-06
-2.72679e-06
1.19712e-06
-3.52855e-06
1.27326e-06
-4.64775e-07
1.3281e-06
4.30366e-07
1.3556e-06
6.61846e-07
1.34553e-06
1.55226e-07
1.32866e-06
3.12894e-07
1.29317e-06
-8.72721e-08
1.27372e-06
-1.23099e-07
1.24763e-06
-2.60044e-07
1.23877e-06
-3.50722e-07
1.21521e-06
-4.16264e-07
1.21207e-06
-4.78925e-07
1.19702e-06
-3.90183e-07
1.19552e-06
-4.50757e-07
1.19091e-06
-2.48281e-07
-3.01602e-07
1.18706e-06
1.26122e-06
-8.65508e-07
1.27728e-06
2.57401e-06
1.24754e-06
-1.17028e-06
1.22352e-06
-2.70277e-06
1.23537e-06
-3.5404e-06
1.31454e-06
-5.43942e-07
1.37778e-06
3.6713e-07
1.40489e-06
6.34728e-07
1.39166e-06
1.68461e-07
1.37347e-06
3.31087e-07
1.3358e-06
-4.96087e-08
1.31684e-06
-1.04138e-07
1.29097e-06
-2.34173e-07
1.28327e-06
-3.43018e-07
1.26032e-06
-3.9332e-07
1.25672e-06
-4.75325e-07
1.24185e-06
-3.75314e-07
1.23809e-06
-4.46997e-07
1.23364e-06
-2.43832e-07
-2.96236e-07
1.22828e-06
1.30928e-06
-8.64512e-07
1.32993e-06
2.55337e-06
1.3054e-06
-1.14575e-06
1.27688e-06
-2.67424e-06
1.2789e-06
-3.54243e-06
1.35997e-06
-6.25016e-07
1.42702e-06
3.0008e-07
1.45267e-06
6.09083e-07
1.4363e-06
1.84829e-07
1.4173e-06
3.50087e-07
1.37828e-06
-1.05875e-08
1.36032e-06
-8.61746e-08
1.33517e-06
-2.09022e-07
1.32891e-06
-3.36758e-07
1.30716e-06
-3.71571e-07
1.30312e-06
-4.71287e-07
1.2889e-06
-3.61095e-07
1.2829e-06
-4.41e-07
1.27862e-06
-2.39544e-07
-2.89431e-07
1.27181e-06
1.35988e-06
-8.64374e-07
1.3863e-06
2.52695e-06
1.3645e-06
-1.12396e-06
1.33136e-06
-2.6411e-06
1.3261e-06
-3.53716e-06
1.40862e-06
-7.07537e-07
1.47582e-06
2.32873e-07
1.49867e-06
5.86236e-07
1.47914e-06
2.04363e-07
1.45995e-06
3.6927e-07
1.42069e-06
2.86709e-08
1.40441e-06
-6.98899e-08
1.3805e-06
-1.85116e-07
1.3759e-06
-3.32151e-07
1.35577e-06
-3.51446e-07
1.35125e-06
-4.66763e-07
1.3381e-06
-3.47947e-07
1.32994e-06
-4.32838e-07
1.32582e-06
-2.3543e-07
-2.81296e-07
1.31769e-06
1.41249e-06
-8.65209e-07
1.4443e-06
2.49514e-06
1.42426e-06
-1.10392e-06
1.38688e-06
-2.60372e-06
1.37581e-06
-3.5261e-06
1.45874e-06
-7.90463e-07
1.52327e-06
1.6834e-07
1.54242e-06
5.67089e-07
1.51992e-06
2.26864e-07
1.5015e-06
3.8769e-07
1.46338e-06
6.67901e-08
1.44955e-06
-5.60629e-08
1.42737e-06
-1.62937e-07
1.42445e-06
-3.2923e-07
1.40622e-06
-3.33214e-07
1.40107e-06
-4.61616e-07
1.38933e-06
-3.36203e-07
1.37919e-06
-4.22698e-07
1.37522e-06
-2.31462e-07
-2.72013e-07
1.36594e-06
1.46665e-06
-8.66613e-07
1.50241e-06
2.45938e-06
1.48418e-06
-1.08569e-06
1.44388e-06
-2.56342e-06
1.42733e-06
-3.50955e-06
1.50801e-06
-8.71145e-07
1.56766e-06
1.08695e-07
1.58316e-06
5.51591e-07
1.55859e-06
2.51431e-07
1.54234e-06
4.0394e-07
1.50689e-06
1.02235e-07
1.49627e-06
-4.54417e-08
1.47621e-06
-1.42873e-07
1.47478e-06
-3.27804e-07
1.45857e-06
-3.17006e-07
1.45259e-06
-4.55631e-07
1.44244e-06
-3.26053e-07
1.43061e-06
-4.10868e-07
1.42674e-06
-2.27594e-07
-2.61847e-07
1.41658e-06
1.52216e-06
-8.67905e-07
1.56011e-06
2.42144e-06
1.54405e-06
-1.06962e-06
1.50289e-06
-2.52227e-06
1.4803e-06
-3.48696e-06
1.55456e-06
-9.45404e-07
1.60754e-06
5.5718e-08
1.62049e-06
5.38636e-07
1.59561e-06
2.76311e-07
1.58329e-06
4.16267e-07
1.55199e-06
1.33532e-07
1.54513e-06
-3.85781e-08
1.52744e-06
-1.25187e-07
1.52709e-06
-3.27454e-07
1.51295e-06
-3.02865e-07
1.50586e-06
-4.48537e-07
1.4973e-06
-3.17501e-07
1.48416e-06
-3.97724e-07
1.48032e-06
-2.23754e-07
-2.51109e-07
1.46958e-06
1.5791e-06
-8.68393e-07
1.61774e-06
2.3828e-06
1.60402e-06
-1.05591e-06
1.56412e-06
-2.48237e-06
1.53476e-06
-3.4576e-06
1.59815e-06
-1.00879e-06
1.64308e-06
1.07905e-08
1.65526e-06
5.26452e-07
1.6323e-06
2.99267e-07
1.62558e-06
4.22995e-07
1.59954e-06
1.59572e-07
1.59662e-06
-3.56644e-08
1.58143e-06
-1.0999e-07
1.58156e-06
-3.27593e-07
1.5695e-06
-2.90797e-07
1.56102e-06
-4.40059e-07
1.55391e-06
-3.10394e-07
1.53985e-06
-3.8366e-07
1.53594e-06
-2.19843e-07
-2.40113e-07
1.52494e-06
1.63774e-06
-8.67589e-07
1.67617e-06
2.34437e-06
1.66459e-06
-1.04432e-06
1.62748e-06
-2.44526e-06
1.59108e-06
-3.4212e-06
1.64048e-06
-1.05819e-06
1.67653e-06
-2.52596e-08
1.68972e-06
5.13259e-07
1.67071e-06
3.18278e-07
1.67066e-06
4.23041e-07
1.65037e-06
1.79867e-07
1.65114e-06
-3.64387e-08
1.63841e-06
-9.72567e-08
1.63837e-06
-3.27548e-07
1.62835e-06
-2.80785e-07
1.61834e-06
-4.30043e-07
1.61236e-06
-3.04416e-07
1.59774e-06
-3.6904e-07
1.59365e-06
-2.15753e-07
-2.29115e-07
1.58265e-06
1.69845e-06
-8.65289e-07
1.73636e-06
2.30646e-06
1.72636e-06
-1.03433e-06
1.69267e-06
-2.41157e-06
1.64976e-06
-3.37829e-06
1.68442e-06
-1.09285e-06
1.71154e-06
-5.23779e-08
1.72699e-06
4.97806e-07
1.7131e-06
3.32169e-07
1.71988e-06
4.16261e-07
1.70513e-06
1.94616e-07
1.7089e-06
-4.02072e-08
1.69851e-06
-8.68709e-08
1.69761e-06
-3.26648e-07
1.68958e-06
-2.72753e-07
1.67806e-06
-4.18524e-07
1.67282e-06
-2.99178e-07
1.65797e-06
-3.54183e-07
1.65359e-06
-2.11381e-07
-2.18298e-07
1.64278e-06
1.76157e-06
-8.61546e-07
1.79907e-06
2.26897e-06
1.78995e-06
-1.02521e-06
1.75951e-06
-2.38113e-06
1.71127e-06
-3.33005e-06
1.73274e-06
-1.11432e-06
1.75172e-06
-7.1353e-08
1.76994e-06
4.79586e-07
1.76127e-06
3.40836e-07
1.77409e-06
4.03441e-07
1.76414e-06
2.04562e-07
1.76991e-06
-4.59774e-08
1.76175e-06
-7.87086e-08
1.75941e-06
-3.24306e-07
1.75322e-06
-2.66561e-07
1.74038e-06
-4.05688e-07
1.73551e-06
-2.9431e-07
1.72067e-06
-3.39338e-07
1.71595e-06
-2.06659e-07
-2.07759e-07
1.70541e-06
1.82735e-06
-8.5656e-07
1.86476e-06
2.23156e-06
1.85582e-06
-1.01627e-06
1.82799e-06
-2.3533e-06
1.77585e-06
-3.27791e-06
1.7872e-06
-1.12567e-06
1.79948e-06
-8.36339e-08
1.82033e-06
4.58733e-07
1.81612e-06
3.45049e-07
1.83356e-06
3.86005e-07
1.82743e-06
2.10691e-07
1.83409e-06
-5.26396e-08
1.82807e-06
-7.269e-08
1.82388e-06
-3.20112e-07
1.81933e-06
-2.62016e-07
1.80546e-06
-3.91808e-07
1.80064e-06
-2.89496e-07
1.786e-06
-3.247e-07
1.7809e-06
-2.01556e-07
-1.97534e-07
1.77067e-06
1.89591e-06
-8.50569e-07
1.93359e-06
2.19387e-06
1.92429e-06
-1.00697e-06
1.89829e-06
-2.3273e-06
1.84355e-06
-3.22317e-06
1.84824e-06
-1.13036e-06
1.85557e-06
-9.0964e-08
1.87855e-06
4.35755e-07
1.8776e-06
3.45993e-07
1.89802e-06
3.65589e-07
1.89478e-06
2.13924e-07
1.90128e-06
-5.91328e-08
1.89735e-06
-6.87573e-08
1.8912e-06
-3.13966e-07
1.888e-06
-2.58819e-07
1.87341e-06
-3.77215e-07
1.8684e-06
-2.84487e-07
1.85411e-06
-3.10411e-07
1.84864e-06
-1.96087e-07
-1.87626e-07
1.83874e-06
1.96731e-06
-8.43774e-07
2.00558e-06
2.15561e-06
1.99555e-06
-9.96936e-07
1.97069e-06
-2.30244e-06
1.91426e-06
-3.16675e-06
1.91534e-06
-1.13145e-06
1.91938e-06
-9.50009e-08
1.94385e-06
4.11283e-07
1.94501e-06
3.44835e-07
1.9669e-06
3.43704e-07
1.96593e-06
2.14891e-07
1.97135e-06
-6.45525e-08
1.96941e-06
-6.68192e-08
1.96149e-06
-3.06047e-07
1.9593e-06
-2.56627e-07
1.94434e-06
-3.62257e-07
1.93896e-06
-2.7911e-07
1.92512e-06
-2.96562e-07
1.91933e-06
-1.90305e-07
-1.78027e-07
1.90974e-06
2.04158e-06
-8.36308e-07
2.08065e-06
2.11654e-06
2.06969e-06
-9.85979e-07
2.0455e-06
-2.27825e-06
1.98788e-06
-3.10913e-06
1.98756e-06
-1.13113e-06
1.98963e-06
-9.70699e-08
2.01502e-06
3.85898e-07
2.01743e-06
3.42426e-07
2.03956e-06
3.2157e-07
2.0406e-06
2.13855e-07
2.0443e-06
-6.82604e-08
2.04425e-06
-6.67656e-08
2.03487e-06
-2.96662e-07
2.03333e-06
-2.5509e-07
2.01833e-06
-3.47258e-07
2.01248e-06
-2.73257e-07
1.99911e-06
-2.83199e-07
1.9931e-06
-1.84287e-07
-1.68736e-07
1.9838e-06
2.11877e-06
-8.28239e-07
2.15877e-06
2.07654e-06
2.1468e-06
-9.74005e-07
2.12299e-06
-2.25444e-06
2.06437e-06
-3.05051e-06
2.06398e-06
-1.13074e-06
2.065e-06
-9.80948e-08
2.09083e-06
3.60077e-07
2.09404e-06
3.39215e-07
2.11549e-06
3.00116e-07
2.11854e-06
2.10803e-07
2.12024e-06
-6.99605e-08
2.12191e-06
-6.84369e-08
2.11144e-06
-2.86189e-07
2.11021e-06
-2.53858e-07
2.09545e-06
-3.32494e-07
2.08907e-06
-2.66884e-07
2.07619e-06
-2.70315e-07
2.07002e-06
-1.78123e-07
-1.59756e-07
2.06104e-06
2.19894e-06
-8.19592e-07
2.23996e-06
2.03551e-06
2.22695e-06
-9.60991e-07
2.20338e-06
-2.23086e-06
2.14374e-06
-2.99086e-06
2.14393e-06
-1.13094e-06
2.1445e-06
-9.86606e-08
2.17038e-06
3.34193e-07
2.17431e-06
3.35282e-07
2.19437e-06
2.80056e-07
2.1996e-06
2.05577e-07
2.19934e-06
-6.97009e-08
2.20248e-06
-7.15783e-08
2.19133e-06
-2.7504e-07
2.19007e-06
-2.52595e-07
2.17575e-06
-3.18177e-07
2.16887e-06
-2.59998e-07
2.15641e-06
-2.5786e-07
2.1502e-06
-1.71913e-07
-1.51095e-07
2.14154e-06
2.28216e-06
-8.10363e-07
2.32429e-06
1.99339e-06
2.31023e-06
-9.4694e-07
2.28682e-06
-2.20745e-06
2.22609e-06
-2.93013e-06
2.22707e-06
-1.13192e-06
2.22755e-06
-9.91409e-08
2.25318e-06
3.08558e-07
2.25804e-06
3.30423e-07
2.27617e-06
2.61929e-07
2.28369e-06
1.98052e-07
2.28177e-06
-6.77796e-08
2.28606e-06
-7.58687e-08
2.27463e-06
-2.63602e-07
2.27305e-06
-2.51024e-07
2.25933e-06
-3.04451e-07
2.25196e-06
-2.5263e-07
2.23983e-06
-2.45727e-07
2.2337e-06
-1.65788e-07
-1.42744e-07
2.22535e-06
2.36856e-06
-8.00535e-07
2.41184e-06
1.9501e-06
2.39677e-06
-9.31867e-07
2.37346e-06
-2.18415e-06
2.31156e-06
-2.86822e-06
2.31327e-06
-1.13363e-06
2.31396e-06
-9.98224e-08
2.33905e-06
2.83459e-07
2.34521e-06
3.2427e-07
2.36108e-06
2.46051e-07
2.37084e-06
1.88295e-07
2.36768e-06
-6.46219e-08
2.37278e-06
-8.09651e-08
2.36139e-06
-2.52211e-07
2.35929e-06
-2.48921e-07
2.34623e-06
-2.91397e-07
2.33841e-06
-2.4481e-07
2.32646e-06
-2.33775e-07
2.32059e-06
-1.59916e-07
-1.34686e-07
2.31253e-06
2.45822e-06
-7.90078e-07
2.50278e-06
1.90555e-06
2.4867e-06
-9.15791e-07
2.46342e-06
-2.16086e-06
2.40028e-06
-2.80508e-06
2.40256e-06
-1.13591e-06
2.40373e-06
-1.00996e-07
2.42799e-06
2.59197e-07
2.43582e-06
3.1644e-07
2.44939e-06
2.32479e-07
2.46114e-06
1.76554e-07
2.45721e-06
-6.07003e-08
2.46275e-06
-8.64987e-08
2.45169e-06
-2.4115e-07
2.44892e-06
-2.4615e-07
2.43646e-06
-2.78937e-07
2.42768e-06
-2.36031e-07
2.41629e-06
-2.22386e-07
2.41093e-06
-1.54561e-07
-1.26897e-07
2.40314e-06
2.55128e-06
-7.78958e-07
2.59723e-06
1.8596e-06
2.58017e-06
-8.98732e-07
2.5568e-06
-2.1375e-06
2.4924e-06
-2.74068e-06
2.49496e-06
-1.13847e-06
2.49697e-06
-1.03001e-07
2.52008e-06
2.36081e-07
2.52991e-06
3.06608e-07
2.54135e-06
2.2104e-07
2.55471e-06
1.63198e-07
2.5505e-06
-5.64944e-08
2.55609e-06
-9.20872e-08
2.54552e-06
-2.30585e-07
2.5421e-06
-2.42728e-07
2.53007e-06
-2.66908e-07
2.52465e-06
-2.30605e-07
2.51436e-06
-2.12096e-07
2.50481e-06
-1.45014e-07
-1.19368e-07
2.49728e-06
2.64786e-06
-7.67135e-07
2.69534e-06
1.81212e-06
2.67732e-06
-8.80708e-07
2.65375e-06
-2.11393e-06
2.58809e-06
-2.67502e-06
2.59055e-06
-1.14092e-06
2.59375e-06
-1.06207e-07
2.61544e-06
2.14394e-07
2.6275e-06
2.94548e-07
2.63717e-06
2.11368e-07
2.65166e-06
1.48711e-07
2.6477e-06
-5.25395e-08
2.6529e-06
-9.72898e-08
2.64304e-06
-2.20722e-07
2.63914e-06
-2.38822e-07
2.62605e-06
-2.53823e-07
2.61661e-06
-2.21162e-07
2.60605e-06
-2.01535e-07
2.60204e-06
-1.41001e-07
-1.12259e-07
2.59493e-06
2.74808e-06
-7.54567e-07
2.79726e-06
1.76294e-06
2.77829e-06
-8.61739e-07
2.75436e-06
-2.09e-06
2.6875e-06
-2.60816e-06
2.68939e-06
-1.14281e-06
2.69416e-06
-1.10976e-07
2.71424e-06
1.94317e-07
2.72857e-06
2.80213e-07
2.73705e-06
2.02887e-07
2.75201e-06
1.33751e-07
2.74909e-06
-4.96137e-08
2.75312e-06
-1.01316e-07
2.74457e-06
-2.12172e-07
2.73958e-06
-2.33834e-07
2.72632e-06
-2.40564e-07
2.71565e-06
-2.10494e-07
2.70448e-06
-1.9037e-07
2.7032e-06
-1.3972e-07
-1.0523e-07
2.69617e-06
2.85211e-06
-7.41215e-07
2.90313e-06
1.71192e-06
2.88323e-06
-8.41845e-07
2.85877e-06
-2.06553e-06
2.79083e-06
-2.54022e-06
2.79161e-06
-1.14359e-06
2.79828e-06
-1.1765e-07
2.81668e-06
1.7592e-07
2.83321e-06
2.63684e-07
2.84107e-06
1.9502e-07
2.85596e-06
1.18862e-07
2.85471e-06
-4.8367e-08
2.85699e-06
-1.03589e-07
2.84987e-06
-2.0506e-07
2.84459e-06
-2.28551e-07
2.83927e-06
-2.35246e-07
2.83379e-06
-2.05008e-07
2.8248e-06
-1.81381e-07
2.80872e-06
-1.23642e-07
-9.76388e-08
2.80113e-06
2.96008e-06
-7.27048e-07
3.01306e-06
1.65893e-06
2.99227e-06
-8.21054e-07
2.96709e-06
-2.04036e-06
2.89825e-06
-2.47138e-06
2.89735e-06
-1.14269e-06
2.90621e-06
-1.2651e-07
2.92299e-06
1.59133e-07
2.94152e-06
2.45161e-07
2.94923e-06
1.87303e-07
2.96376e-06
1.04335e-07
2.96427e-06
-4.88753e-08
2.96503e-06
-1.04354e-07
2.9604e-06
-2.00427e-07
2.95297e-06
-2.21124e-07
2.94002e-06
-2.22297e-07
2.9259e-06
-1.90885e-07
2.91436e-06
-1.69841e-07
2.9167e-06
-1.25977e-07
-9.087e-08
2.90993e-06
3.07216e-06
-7.12046e-07
3.12718e-06
1.60391e-06
3.10553e-06
-7.9941e-07
3.07946e-06
-2.01428e-06
3.00998e-06
-2.4019e-06
3.00685e-06
-1.13956e-06
3.01805e-06
-1.37711e-07
3.03343e-06
1.43749e-07
3.05365e-06
2.24939e-07
3.0616e-06
1.79357e-07
3.07559e-06
9.03431e-08
3.07753e-06
-5.08117e-08
3.07778e-06
-1.04605e-07
3.07268e-06
-1.95328e-07
3.06788e-06
-2.16326e-07
3.06498e-06
-2.19394e-07
3.05909e-06
-1.84997e-07
3.04924e-06
-1.5999e-07
3.03026e-06
-1.06991e-07
-8.34639e-08
3.02285e-06
3.18852e-06
-6.96205e-07
3.24558e-06
1.54685e-06
3.22317e-06
-7.76996e-07
3.196e-06
-1.98711e-06
3.12621e-06
-2.33211e-06
3.1204e-06
-1.13374e-06
3.13402e-06
-1.51332e-07
3.14815e-06
1.2962e-07
3.16986e-06
2.03226e-07
3.17807e-06
1.71147e-07
3.19205e-06
7.63654e-08
3.19357e-06
-5.23307e-08
3.19627e-06
-1.07312e-07
3.18917e-06
-1.8823e-07
3.1849e-06
-2.12052e-07
3.16578e-06
-2.00275e-07
3.15352e-06
-1.72737e-07
3.144e-06
-1.5047e-07
3.14523e-06
-1.08215e-07
-7.83172e-08
3.14008e-06
3.30934e-06
-6.79533e-07
3.36839e-06
1.48781e-06
3.3453e-06
-7.53906e-07
3.31689e-06
-1.95871e-06
3.2471e-06
-2.26232e-06
3.23848e-06
-1.12512e-06
3.25413e-06
-1.66985e-07
3.26761e-06
1.16136e-07
3.28998e-06
1.80857e-07
3.29935e-06
1.61785e-07
3.31231e-06
6.34013e-08
3.31503e-06
-5.50475e-08
3.317e-06
-1.0929e-07
3.30384e-06
-1.7507e-07
3.29482e-06
-2.03031e-07
3.28457e-06
-1.9002e-07
3.27326e-06
-1.6143e-07
3.26337e-06
-1.40579e-07
3.26611e-06
-1.10958e-07
-7.34582e-08
3.26125e-06
3.4348e-06
-6.62055e-07
3.49571e-06
1.42691e-06
3.47208e-06
-7.30282e-07
3.44229e-06
-1.92891e-06
3.37281e-06
-2.19285e-06
3.36145e-06
-1.11376e-06
3.37854e-06
-1.84072e-07
3.39212e-06
1.02556e-07
3.41413e-06
1.58847e-07
3.42583e-06
1.50089e-07
3.43612e-06
5.31101e-08
3.44193e-06
-6.08623e-08
3.43965e-06
-1.07007e-07
3.44147e-06
-1.76887e-07
3.43661e-06
-1.9817e-07
3.43375e-06
-1.8716e-07
3.42842e-06
-1.56104e-07
3.41738e-06
-1.29541e-07
3.39402e-06
-8.76014e-08
-6.61511e-08
3.38672e-06
3.5651e-06
-6.43812e-07
3.62768e-06
1.36433e-06
3.60369e-06
-7.06295e-07
3.57231e-06
-1.89752e-06
3.50362e-06
-2.12416e-06
3.48936e-06
-1.0995e-06
3.50791e-06
-2.02624e-07
3.52106e-06
8.9399e-08
3.54371e-06
1.36202e-07
3.55523e-06
1.3857e-07
3.56729e-06
4.1046e-08
3.5706e-06
-6.41747e-08
3.57347e-06
-1.09869e-07
3.56235e-06
-1.65768e-07
3.55033e-06
-1.86158e-07
3.5366e-06
-1.73426e-07
3.52642e-06
-1.45924e-07
3.51834e-06
-1.21457e-07
3.52121e-06
-9.04714e-08
-6.25351e-08
3.51759e-06
3.70042e-06
-6.24844e-07
3.76445e-06
1.3003e-06
3.74025e-06
-6.82097e-07
3.70721e-06
-1.86449e-06
3.63951e-06
-2.05646e-06
3.62277e-06
-1.08276e-06
3.6419e-06
-2.21748e-07
3.6557e-06
7.55995e-08
3.67751e-06
1.14392e-07
3.69042e-06
1.25658e-07
3.70213e-06
2.93389e-08
3.70543e-06
-6.74768e-08
3.70895e-06
-1.13392e-07
3.69195e-06
-1.48764e-07
3.68296e-06
-1.77167e-07
3.67062e-06
-1.61089e-07
3.65993e-06
-1.35235e-07
3.65174e-06
-1.13268e-07
3.65627e-06
-9.50002e-08
-5.89731e-08
3.65271e-06
3.84095e-06
-6.05206e-07
3.90618e-06
1.23507e-06
3.88197e-06
-6.57881e-07
3.8472e-06
-1.82972e-06
3.78058e-06
-1.98983e-06
3.76208e-06
-1.06426e-06
3.78059e-06
-2.40258e-07
3.79643e-06
5.9762e-08
3.81544e-06
9.53835e-08
3.83211e-06
1.08983e-07
3.83873e-06
2.27199e-08
3.8474e-06
-7.61466e-08
3.84098e-06
-1.06971e-07
3.85029e-06
-1.58078e-07
3.84644e-06
-1.73316e-07
3.84477e-06
-1.59422e-07
3.83995e-06
-1.30406e-07
3.82781e-06
-1.01136e-07
3.80054e-06
-6.77272e-08
-5.06303e-08
3.7922e-06
3.98692e-06
-5.84976e-07
4.05306e-06
1.16892e-06
4.02908e-06
-6.33897e-07
3.99231e-06
-1.79295e-06
3.92737e-06
-1.92489e-06
3.90663e-06
-1.04353e-06
3.9257e-06
-2.59321e-07
3.94069e-06
4.47672e-08
3.96184e-06
7.4231e-08
3.97359e-06
9.72399e-08
3.98802e-06
8.29004e-09
3.9906e-06
-7.87242e-08
3.99666e-06
-1.13032e-07
3.97556e-06
-1.36981e-07
3.96486e-06
-1.62615e-07
3.95295e-06
-1.47515e-07
3.9441e-06
-1.2155e-07
3.93742e-06
-9.44649e-08
3.94126e-06
-7.15622e-08
-4.79579e-08
3.93859e-06
4.13851e-06
-5.642e-07
4.20531e-06
1.10212e-06
4.1817e-06
-6.10284e-07
4.143e-06
-1.75425e-06
4.07952e-06
-1.86141e-06
4.0577e-06
-1.02171e-06
4.07547e-06
-2.77093e-07
4.0923e-06
2.79426e-08
4.11152e-06
5.50065e-08
4.12403e-06
8.47267e-08
4.13861e-06
-6.29032e-09
4.13266e-06
-7.27689e-08
4.133e-06
-1.13372e-07
4.12274e-06
-1.26719e-07
4.11452e-06
-1.54404e-07
4.10297e-06
-1.35958e-07
4.09354e-06
-1.1212e-07
4.08714e-06
-8.80696e-08
4.09232e-06
-7.67353e-08
-4.49723e-08
4.08933e-06
4.29595e-06
-5.42963e-07
4.36311e-06
1.03496e-06
4.34007e-06
-5.87241e-07
4.29955e-06
-1.71374e-06
4.23716e-06
-1.79901e-06
4.21558e-06
-1.00013e-06
4.22969e-06
-2.91205e-07
4.25161e-06
6.02096e-09
4.26349e-06
4.31307e-08
4.2853e-06
6.29163e-08
4.28542e-06
-6.40572e-09
4.30311e-06
-9.04674e-08
4.29966e-06
-1.09919e-07
4.30717e-06
-1.34223e-07
4.30371e-06
-1.50944e-07
4.30475e-06
-1.36998e-07
4.29969e-06
-1.07063e-07
4.28705e-06
-7.5434e-08
4.25548e-06
-4.51639e-08
-3.40179e-08
4.24453e-06
4.45948e-06
-5.2136e-07
4.52671e-06
9.67736e-07
4.50457e-06
-5.65102e-07
4.46181e-06
-1.67098e-06
4.40139e-06
-1.73859e-06
4.37848e-06
-9.77227e-07
4.39304e-06
-3.05766e-07
4.41276e-06
-1.36917e-08
4.42762e-06
2.82694e-08
4.4434e-06
4.71348e-08
4.44766e-06
-1.06665e-08
4.44896e-06
-9.17681e-08
4.44836e-06
-1.09323e-07
4.43926e-06
-1.25121e-07
4.43029e-06
-1.41975e-07
4.42207e-06
-1.28776e-07
4.41097e-06
-9.59644e-08
4.40655e-06
-7.10141e-08
4.41071e-06
-4.93172e-08
-3.17546e-08
4.40844e-06
4.62928e-06
-4.99435e-07
4.69637e-06
9.00651e-07
4.67517e-06
-5.43909e-07
4.63057e-06
-1.62638e-06
4.57152e-06
-1.67953e-06
4.54825e-06
-9.53961e-07
4.56237e-06
-3.19887e-07
4.58017e-06
-3.14888e-08
4.5983e-06
1.0139e-08
4.60752e-06
3.79118e-08
4.61785e-06
-2.09888e-08
4.61508e-06
-8.9004e-08
4.61565e-06
-1.09894e-07
4.60627e-06
-1.15734e-07
4.59861e-06
-1.34321e-07
4.58935e-06
-1.19517e-07
4.58494e-06
-9.15526e-08
4.57974e-06
-6.58134e-08
4.5789e-06
-4.84802e-08
-3.05633e-08
4.57771e-06
4.80563e-06
-4.77279e-07
4.8723e-06
8.33983e-07
4.85222e-06
-5.23826e-07
4.80606e-06
-1.58022e-06
4.74775e-06
-1.62122e-06
4.7252e-06
-9.31412e-07
4.73723e-06
-3.31913e-07
4.7557e-06
-4.9957e-08
4.77207e-06
-6.2377e-09
4.78248e-06
2.75048e-08
4.7887e-06
-2.72077e-08
4.78885e-06
-8.91569e-08
4.78822e-06
-1.09259e-07
4.78081e-06
-1.08323e-07
4.77199e-06
-1.25508e-07
4.76611e-06
-1.13632e-07
4.76411e-06
-8.95521e-08
4.76226e-06
-6.39651e-08
4.75484e-06
-4.10631e-08
-2.80644e-08
4.75234e-06
4.98878e-06
-4.54992e-07
5.05476e-06
7.68005e-07
5.03597e-06
-5.05029e-07
4.9883e-06
-1.53256e-06
4.93085e-06
-1.56377e-06
4.90865e-06
-9.09216e-07
4.91939e-06
-3.4265e-07
4.93757e-06
-6.81363e-08
4.95258e-06
-2.12472e-08
4.96359e-06
1.64979e-08
4.96843e-06
-3.20557e-08
4.969e-06
-8.97254e-08
4.96785e-06
-1.08108e-07
4.96197e-06
-1.02443e-07
4.95329e-06
-1.16824e-07
4.94821e-06
-1.08559e-07
4.94077e-06
-8.21103e-08
4.93386e-06
-5.70569e-08
4.93572e-06
-4.2916e-08
-2.6571e-08
4.93422e-06
5.17896e-06
-4.32636e-07
5.24404e-06
7.02918e-07
5.22649e-06
-4.8747e-07
5.1779e-06
-1.48397e-06
5.1207e-06
-1.50658e-06
5.09927e-06
-8.87779e-07
5.10844e-06
-3.51821e-07
5.12658e-06
-8.62825e-08
5.13968e-06
-3.43421e-08
5.15126e-06
4.91633e-09
5.15527e-06
-3.60621e-08
5.15624e-06
-9.06985e-08
5.15452e-06
-1.06393e-07
5.15022e-06
-9.81383e-08
5.14139e-06
-1.07996e-07
5.1361e-06
-1.03272e-07
5.13324e-06
-7.92448e-08
5.13337e-06
-5.71904e-08
5.12571e-06
-3.52518e-08
-2.37427e-08
5.12288e-06
5.37645e-06
-4.10305e-07
5.44039e-06
6.38972e-07
5.42415e-06
-4.71229e-07
5.37487e-06
-1.43469e-06
5.3179e-06
-1.44961e-06
5.29691e-06
-8.66787e-07
5.30499e-06
-3.59904e-07
5.32247e-06
-1.03768e-07
5.33437e-06
-4.6241e-08
5.34555e-06
-6.26172e-09
5.3497e-06
-4.02114e-08
5.35046e-06
-9.14549e-08
5.34887e-06
-1.04811e-07
5.34538e-06
-9.46432e-08
5.33684e-06
-9.9458e-08
5.33086e-06
-9.72901e-08
5.32584e-06
-7.42276e-08
5.32001e-06
-5.13537e-08
5.32067e-06
-3.59182e-08
-2.21697e-08
5.3191e-06
5.58152e-06
-3.88087e-07
5.64409e-06
5.76405e-07
5.62915e-06
-4.56291e-07
5.57955e-06
-1.38509e-06
5.52277e-06
-1.39283e-06
5.50193e-06
-8.45947e-07
5.50905e-06
-3.67019e-07
5.52578e-06
-1.20498e-07
5.53668e-06
-5.7143e-08
5.54743e-06
-1.701e-08
5.55161e-06
-4.43971e-08
5.55231e-06
-9.21568e-08
5.55075e-06
-1.03245e-07
5.54767e-06
-9.15687e-08
5.53987e-06
-9.16532e-08
5.5336e-06
-9.10199e-08
5.52991e-06
-7.0543e-08
5.52632e-06
-4.7764e-08
5.52456e-06
-3.41541e-08
-2.02231e-08
5.52261e-06
5.79446e-06
-3.66066e-07
5.85541e-06
5.1545e-07
5.84178e-06
-4.42653e-07
5.79218e-06
-1.33549e-06
5.73562e-06
-1.33627e-06
5.71462e-06
-8.24949e-07
5.72073e-06
-3.73127e-07
5.73692e-06
-1.3669e-07
5.74682e-06
-6.7048e-08
5.75725e-06
-2.74368e-08
5.76124e-06
-4.83818e-08
5.76207e-06
-9.29912e-08
5.76033e-06
-1.01505e-07
5.75776e-06
-8.8996e-08
5.75067e-06
-8.45617e-08
5.74441e-06
-8.47676e-08
5.74284e-06
-6.89666e-08
5.74206e-06
-4.69827e-08
5.73676e-06
-2.88555e-08
-1.73647e-08
5.7339e-06
6.01557e-06
-3.44341e-07
6.07465e-06
4.56372e-07
6.06236e-06
-4.30363e-07
6.01277e-06
-1.2859e-06
5.95696e-06
-1.28046e-06
5.9351e-06
-8.03091e-07
5.94063e-06
-3.78656e-07
5.95586e-06
-1.51925e-07
5.96541e-06
-7.65945e-08
5.97508e-06
-3.71083e-08
5.97909e-06
-5.23881e-08
5.97966e-06
-9.35667e-08
5.97825e-06
-1.00097e-07
5.97566e-06
-8.63991e-08
5.96977e-06
-7.86773e-08
5.96313e-06
-7.81288e-08
5.95879e-06
-6.46206e-08
5.95386e-06
-4.2058e-08
5.95524e-06
-3.02303e-08
-1.57157e-08
5.95359e-06
6.24517e-06
-3.23005e-07
6.30213e-06
3.99408e-07
6.29113e-06
-4.19362e-07
6.24173e-06
-1.2365e-06
6.18689e-06
-1.22562e-06
6.16417e-06
-7.80375e-07
6.16881e-06
-3.83297e-07
6.18328e-06
-1.66397e-07
6.19243e-06
-8.57355e-08
6.20142e-06
-4.61015e-08
6.20528e-06
-5.62486e-08
6.20569e-06
-9.39764e-08
6.20461e-06
-9.90236e-08
6.20178e-06
-8.35686e-08
6.19717e-06
-7.40623e-08
6.19031e-06
-7.12661e-08
6.18864e-06
-6.29498e-08
6.18808e-06
-4.15013e-08
6.18375e-06
-2.59051e-08
-1.34763e-08
6.18151e-06
6.48355e-06
-3.02155e-07
6.53815e-06
3.44815e-07
6.52847e-06
-4.0969e-07
6.47932e-06
-1.18734e-06
6.42573e-06
-1.17202e-06
6.40215e-06
-7.56792e-07
6.40577e-06
-3.86923e-07
6.41943e-06
-1.80059e-07
6.4282e-06
-9.44965e-08
6.43652e-06
-5.44279e-08
6.44035e-06
-6.00807e-08
6.44032e-06
-9.39413e-08
6.43966e-06
-9.83659e-08
6.43687e-06
-8.07764e-08
6.43307e-06
-7.02664e-08
6.42637e-06
-6.45676e-08
6.42201e-06
-5.85851e-08
6.4181e-06
-3.75931e-08
6.4193e-06
-2.71e-08
-1.24872e-08
6.41831e-06
6.73108e-06
-2.81895e-07
6.78303e-06
2.92865e-07
6.7747e-06
-4.0136e-07
6.72591e-06
-1.13856e-06
6.67377e-06
-1.11988e-06
6.64948e-06
-7.32506e-07
6.65186e-06
-3.89297e-07
6.66461e-06
-1.92813e-07
6.67302e-06
-1.02912e-07
6.68074e-06
-6.2143e-08
6.68453e-06
-6.38688e-08
6.68397e-06
-9.33801e-08
6.68384e-06
-9.82436e-08
6.68078e-06
-7.77115e-08
6.67777e-06
-6.72586e-08
6.6716e-06
-5.83994e-08
6.66895e-06
-5.59294e-08
6.66849e-06
-3.71386e-08
6.66517e-06
-2.37753e-08
-1.12486e-08
6.66393e-06
6.98807e-06
-2.62318e-07
7.0371e-06
2.43834e-07
7.03019e-06
-3.94449e-07
6.98191e-06
-1.09027e-06
6.93129e-06
-1.06926e-06
6.90649e-06
-7.07709e-07
6.90742e-06
-3.90231e-07
6.91914e-06
-2.04524e-07
6.92724e-06
-1.11012e-07
6.93431e-06
-6.92186e-08
6.93828e-06
-6.78356e-08
6.93701e-06
-9.21153e-08
6.93719e-06
-9.8419e-08
6.93445e-06
-7.49744e-08
6.93174e-06
-6.45446e-08
6.92631e-06
-5.2973e-08
6.92155e-06
-5.11685e-08
6.91846e-06
-3.40461e-08
6.91925e-06
-2.45684e-08
-1.09899e-08
6.91899e-06
7.2549e-06
-2.43524e-07
7.30072e-06
1.98008e-07
7.29526e-06
-3.88985e-07
7.24767e-06
-1.04268e-06
7.1988e-06
-1.02039e-06
7.17354e-06
-6.8245e-07
7.17297e-06
-3.8966e-07
7.18339e-06
-2.14939e-07
7.19121e-06
-1.18837e-07
7.19766e-06
-7.56652e-08
7.20181e-06
-7.19846e-08
7.19992e-06
-9.02276e-08
7.20023e-06
-9.8729e-08
7.1978e-06
-7.25476e-08
7.19521e-06
-6.1953e-08
7.19068e-06
-4.84434e-08
7.18722e-06
-4.77123e-08
7.18668e-06
-3.35007e-08
7.18399e-06
-2.18814e-08
-1.0571e-08
7.18357e-06
7.5319e-06
-2.25591e-07
7.57428e-06
1.55627e-07
7.57025e-06
-3.84952e-07
7.52369e-06
-9.96125e-07
7.47624e-06
-9.72946e-07
7.45098e-06
-6.57183e-07
7.44894e-06
-3.87619e-07
7.45769e-06
-2.23694e-07
7.46533e-06
-1.26477e-07
7.47104e-06
-8.13773e-08
7.47551e-06
-7.64534e-08
7.47315e-06
-8.78642e-08
7.47314e-06
-9.87229e-08
7.4715e-06
-7.09068e-08
7.46884e-06
-5.92916e-08
7.4651e-06
-4.47027e-08
7.46042e-06
-4.30358e-08
7.4578e-06
-3.08787e-08
7.45805e-06
-2.21277e-08
-1.08069e-08
7.45828e-06
7.81946e-06
-2.08596e-07
7.85824e-06
1.16842e-07
7.8555e-06
-3.82203e-07
7.81029e-06
-9.50919e-07
7.76412e-06
-9.26776e-07
7.73938e-06
-6.32442e-07
7.7357e-06
-3.83944e-07
7.74249e-06
-2.30478e-07
7.75002e-06
-1.34011e-07
7.75502e-06
-8.63794e-08
7.75964e-06
-8.10732e-08
7.7572e-06
-8.54189e-08
7.75651e-06
-9.80388e-08
7.75556e-06
-6.99532e-08
7.75292e-06
-5.66511e-08
7.74992e-06
-4.16984e-08
7.74599e-06
-3.91143e-08
7.74491e-06
-2.9797e-08
7.74316e-06
-2.03718e-08
-1.09618e-08
7.74331e-06
8.11797e-06
-1.92601e-07
8.15305e-06
8.17596e-08
8.15147e-06
-3.80623e-07
8.10776e-06
-9.07209e-07
8.06344e-06
-8.82458e-07
8.04038e-06
-6.09387e-07
8.03328e-06
-3.76838e-07
8.0382e-06
-2.35395e-07
8.0457e-06
-1.41514e-07
8.04998e-06
-9.06586e-08
8.05452e-06
-8.56174e-08
8.05243e-06
-8.33319e-08
8.05069e-06
-9.62978e-08
8.05052e-06
-6.97836e-08
8.04796e-06
-5.40869e-08
8.04557e-06
-3.93117e-08
8.04173e-06
-3.52754e-08
8.03974e-06
-2.77982e-08
8.03898e-06
-1.96138e-08
-1.11651e-08
8.03918e-06
8.42782e-06
-1.77658e-07
8.45919e-06
5.03891e-08
8.45856e-06
-3.79999e-07
8.41627e-06
-8.64917e-07
8.3745e-06
-8.40684e-07