/*--------------------------------*- C++ -*----------------------------------*\
| =========                 |                                                 |
| \\      /  F ield         | OpenFOAM: The Open Source CFD Toolbox           |
|  \\    /   O peration     | Version:  v2012                                 |
|   \\  /    A nd           | Website:  www.openfoam.com                      |
|    \\/     M anipulation  |                                                 |
\*---------------------------------------------------------------------------*/
FoamFile
{
    version     2.0;
    format      ascii;
    class       volVectorField;
    location    "3.6";
    object      U;
}
// * * * * * * * * * * * * * * * * * * * * * * * * * * * * * * * * * * * * * //

dimensions      [0 1 -1 0 0 0 0];


internalField   nonuniform List<vector> 
7000
(
(0.824627 -0.00669229 0)
(1.15763 0.0245665 0)
(0.85369 -0.0168708 0)
(1.06648 -0.0310729 0)
(0.954305 -0.0380394 0)
(1.23911 -0.00287863 0)
(0.93875 0.0080067 0)
(1.17527 0.0170618 0)
(1.02432 0.00249936 0)
(1.16699 0.00638744 0)
(1.03285 -0.00772937 0)
(1.14861 -0.00787148 0)
(0.995799 -0.0154339 0)
(1.11984 -0.0169852 0)
(0.955473 -0.0250936 0)
(1.10831 -0.024242 0)
(0.933743 -0.0262383 0)
(1.12167 -0.0264864 0)
(0.918077 -0.0194864 0)
(1.14021 -0.0243286 0)
(0.83789 -0.0067127 0)
(1.14961 0.0245726 0)
(0.90282 -0.0163191 0)
(1.02038 -0.031634 0)
(0.952734 -0.0397434 0)
(1.22343 -0.00264876 0)
(0.956585 0.00836838 0)
(1.15863 0.0165564 0)
(1.05363 0.00248137 0)
(1.14326 0.0063588 0)
(1.06989 -0.00742909 0)
(1.1085 -0.00720925 0)
(1.03999 -0.0147874 0)
(1.06346 -0.0161167 0)
(1.00759 -0.0245104 0)
(1.03578 -0.0238685 0)
(0.995964 -0.0262324 0)
(1.03291 -0.0266864 0)
(0.996341 -0.0193314 0)
(1.0375 -0.0252364 0)
(0.860978 -0.00674308 0)
(1.13406 0.0244552 0)
(0.938342 -0.0156973 0)
(0.983622 -0.0317597 0)
(0.95774 -0.0410686 0)
(1.19111 -0.00254725 0)
(0.991039 0.00877399 0)
(1.13307 0.0157134 0)
(1.08546 0.00257139 0)
(1.12001 0.00622138 0)
(1.09128 -0.00682968 0)
(1.07923 -0.00678458 0)
(1.05478 -0.0138564 0)
(1.03352 -0.0157111 0)
(1.02102 -0.0236173 0)
(1.0032 -0.0239377 0)
(1.00915 -0.025789 0)
(0.996024 -0.0269867 0)
(1.01211 -0.019536 0)
(0.999942 -0.0245317 0)
(0.890144 -0.006788 0)
(1.11096 0.0242065 0)
(0.964475 -0.0149453 0)
(0.957011 -0.0318678 0)
(0.962611 -0.0424273 0)
(1.14668 -0.00278212 0)
(1.02774 0.00907756 0)
(1.11284 0.0148878 0)
(1.10587 0.00268139 0)
(1.10683 0.00616245 0)
(1.09619 -0.00613047 0)
(1.06564 -0.00634069 0)
(1.05331 -0.0129071 0)
(1.02472 -0.0152937 0)
(1.01883 -0.0226544 0)
(0.99572 -0.0239745 0)
(1.00483 -0.0251471 0)
(0.986032 -0.0275639 0)
(1.00656 -0.0191801 0)
(0.988056 -0.0244382 0)
(0.920674 -0.00683851 0)
(1.08307 0.0239245 0)
(0.981068 -0.0141651 0)
(0.944038 -0.0318627 0)
(0.964399 -0.0435807 0)
(1.09973 -0.00335227 0)
(1.05489 0.00917592 0)
(1.10363 0.014205 0)
(1.11566 0.00276478 0)
(1.10201 0.00627031 0)
(1.09366 -0.00538544 0)
(1.06096 -0.00579925 0)
(1.04781 -0.0119884 0)
(1.02425 -0.0148634 0)
(1.01433 -0.0216761 0)
(0.996254 -0.0239571 0)
(0.998701 -0.0244521 0)
(0.984434 -0.0279843 0)
(0.997737 -0.0187814 0)
(0.984478 -0.0245202 0)
(0.948134 -0.00688124 0)
(1.05505 0.0236935 0)
(0.991587 -0.0134523 0)
(0.943118 -0.0317906 0)
(0.963392 -0.0445032 0)
(1.05906 -0.0041668 0)
(1.06993 0.00896765 0)
(1.10277 0.0136364 0)
(1.11956 0.00284887 0)
(1.10086 0.00651523 0)
(1.08977 -0.00459284 0)
(1.05876 -0.00520996 0)
(1.0434 -0.0110968 0)
(1.02462 -0.0144469 0)
(1.01152 -0.0206766 0)
(0.997098 -0.0238941 0)
(0.994732 -0.0236839 0)
(0.983582 -0.0282612 0)
(0.990856 -0.0184099 0)
(0.981987 -0.0245537 0)
(0.969482 -0.0069063 0)
(1.03166 0.0235254 0)
(0.999173 -0.0128599 0)
(0.949709 -0.0316412 0)
(0.961881 -0.0451624 0)
(1.02891 -0.00514314 0)
(1.07622 0.00842803 0)
(1.10513 0.0131173 0)
(1.12074 0.00297087 0)
(1.09988 0.00684752 0)
(1.08629 -0.00373913 0)
(1.05597 -0.00461049 0)
(1.04037 -0.0102101 0)
(1.02361 -0.0140558 0)
(1.01015 -0.0196527 0)
(0.996771 -0.0237903 0)
(0.992716 -0.0228725 0)
(0.982101 -0.0283864 0)
(0.986315 -0.0180642 0)
(0.979129 -0.0244623 0)
(0.983539 -0.00691371 0)
(1.01581 0.0233966 0)
(1.00613 -0.0124007 0)
(0.959386 -0.0314342 0)
(0.961743 -0.0455879 0)
(1.00907 -0.00621953 0)
(1.07795 0.00761212 0)
(1.10683 0.0126044 0)
(1.12002 0.00315225 0)
(1.09737 0.00723325 0)
(1.0827 -0.00281673 0)
(1.05186 -0.00401525 0)
(1.03758 -0.00931859 0)
(1.02132 -0.0136971 0)
(1.00923 -0.0186177 0)
(0.995838 -0.0236564 0)
(0.99171 -0.0220362 0)
(0.980554 -0.0283624 0)
(0.983298 -0.0177416 0)
(0.976337 -0.0242312 0)
(0.990824 -0.00691026 0)
(1.00793 0.0232729 0)
(1.01331 -0.0120479 0)
(0.969335 -0.0311801 0)
(0.963081 -0.0458251 0)
(0.997244 -0.00735649 0)
(1.07776 0.00661129 0)
(1.10618 0.01209 0)
(1.11711 0.00339857 0)
(1.09277 0.00765348 0)
(1.07804 -0.00183061 0)
(1.04661 -0.00343184 0)
(1.03422 -0.00842735 0)
(1.01833 -0.0133802 0)
(1.00819 -0.0175952 0)
(0.994886 -0.0234983 0)
(0.991099 -0.0211975 0)
(0.979458 -0.0281932 0)
(0.981143 -0.017434 0)
(0.97407 -0.0238655 0)
(0.993014 -0.00690459 0)
(1.00637 0.0231217 0)
(1.02036 -0.0117653 0)
(0.978489 -0.0308835 0)
(0.964722 -0.0459235 0)
(0.99104 -0.00854288 0)
(1.07667 0.00551256 0)
(1.10302 0.0115898 0)
(1.11164 0.00370967 0)
(1.08605 0.00809662 0)
(1.07176 -0.000797002 0)
(1.04057 -0.00287093 0)
(1.03005 -0.00755107 0)
(1.01505 -0.0131146 0)
(1.00687 -0.0166125 0)
(0.994106 -0.0233173 0)
(0.990627 -0.020386 0)
(0.978923 -0.027876 0)
(0.979533 -0.0171363 0)
(0.972456 -0.0233776 0)
(0.99224 -0.00690315 0)
(1.00842 0.0229206 0)
(1.02637 -0.0115228 0)
(0.986708 -0.030537 0)
(0.965582 -0.0459205 0)
(0.988503 -0.0097602 0)
(1.07463 0.00438498 0)
(1.09768 0.011129 0)
(1.10342 0.00408702 0)
(1.07732 0.00855182 0)
(1.06377 0.000258882 0)
(1.0341 -0.00234978 0)
(1.02523 -0.00670765 0)
(1.01175 -0.0129095 0)
(1.00532 -0.0156932 0)
(0.99345 -0.0231089 0)
(0.990196 -0.0196322 0)
(0.978814 -0.0274112 0)
(0.978329 -0.0168466 0)
(0.971421 -0.0227794 0)
(0.990431 -0.0069084 0)
(1.01147 0.0226631 0)
(1.0305 -0.0113047 0)
(0.993988 -0.0301356 0)
(0.965599 -0.0458337 0)
(0.987753 -0.0109949 0)
(1.07067 0.00327977 0)
(1.09004 0.0107308 0)
(1.09235 0.00453088 0)
(1.06678 0.0090024 0)
(1.05434 0.00130388 0)
(1.02756 -0.00189077 0)
(1.02012 -0.00591462 0)
(1.00863 -0.0127702 0)
(1.00363 -0.0148527 0)
(0.992823 -0.0228676 0)
(0.989732 -0.0189557 0)
(0.978927 -0.0268118 0)
(0.977428 -0.0165639 0)
(0.970823 -0.0220827 0)
(0.988894 -0.00691866 0)
(1.01367 0.022357 0)
(1.03241 -0.0111076 0)
(1.00013 -0.0296862 0)
(0.965588 -0.0456645 0)
(0.986944 -0.012213 0)
(1.06337 0.00223924 0)
(1.07951 0.0104054 0)
(1.07848 0.00503126 0)
(1.05474 0.00942105 0)
(1.04403 0.00229844 0)
(1.02127 -0.00151858 0)
(1.01509 -0.00518694 0)
(1.00581 -0.0126939 0)
(1.00188 -0.0141009 0)
(0.992165 -0.0225851 0)
(0.989178 -0.0183649 0)
(0.979079 -0.0261007 0)
(0.976733 -0.0162852 0)
(0.970499 -0.0213034 0)
(0.988209 -0.00692965 0)
(1.01423 0.0220191 0)
(1.03237 -0.0109341 0)
(1.00485 -0.0292089 0)
(0.966439 -0.0454059 0)
(0.98478 -0.0133615 0)
(1.05186 0.00129919 0)
(1.06566 0.0101433 0)
(1.06226 0.00556014 0)
(1.04178 0.00976887 0)
(1.03356 0.00320074 0)
(1.01553 -0.00125463 0)
(1.01051 -0.00453605 0)
(1.00339 -0.0126689 0)
(1.00017 -0.0134426 0)
(0.99147 -0.0222493 0)
(0.988513 -0.0178624 0)
(0.979141 -0.0253008 0)
(0.976166 -0.0160053 0)
(0.970299 -0.020465 0)
(0.988388 -0.00693623 0)
(1.01322 0.0216669 0)
(1.03098 -0.0107865 0)
(1.00801 -0.0287318 0)
(0.968477 -0.0450514 0)
(0.980994 -0.0143739 0)
(1.03663 0.000488667 0)
(1.049 0.00991708 0)
(1.04482 0.00607335 0)
(1.02879 0.0100019 0)
(1.02372 0.0039747 0)
(1.01058 -0.00111099 0)
(1.00665 -0.00396932 0)
(1.0014 -0.0126736 0)
(0.998578 -0.0128808 0)
(0.990767 -0.0218485 0)
(0.987766 -0.0174437 0)
(0.97906 -0.0244364 0)
(0.975688 -0.0157211 0)
(0.970116 -0.0195946 0)
(0.989147 -0.00693405 0)
(1.01122 0.0213133 0)
(1.02894 -0.0106633 0)
(1.00973 -0.0282808 0)
(0.971372 -0.044603 0)
(0.976274 -0.0151911 0)
(1.01955 -0.00017381 0)
(1.03112 0.00969035 0)
(1.02777 0.00652311 0)
(1.01683 0.010084 0)
(1.01519 0.00459868 0)
(1.00657 -0.00108772 0)
(1.00361 -0.00348873 0)
(0.999813 -0.0126786 0)
(0.997182 -0.0124147 0)
(0.990097 -0.0213779 0)
(0.987003 -0.017094 0)
(0.978852 -0.0235324 0)
(0.975288 -0.0154308 0)
(0.969911 -0.0187169 0)
(0.99015 -0.00692076 0)
(1.00889 0.0209645 0)
(1.0268 -0.0105595 0)
(1.01034 -0.027871 0)
(0.974478 -0.044071 0)
(0.971702 -0.0157891 0)
(1.00311 -0.000684081 0)
(1.01418 0.00943096 0)
(1.01277 0.00687392 0)
(1.00678 0.00999915 0)
(1.00842 0.00506841 0)
(1.00354 -0.0011689 0)
(1.00137 -0.00309376 0)
(0.998569 -0.012654 0)
(0.996025 -0.01204 0)
(0.989497 -0.0208361 0)
(0.986299 -0.0167923 0)
(0.97858 -0.0226115 0)
(0.974978 -0.0151283 0)
(0.969709 -0.0178488 0)
(0.991153 -0.006896 0)
(1.00674 0.020622 0)
(1.02489 -0.0104682 0)
(1.01022 -0.0275042 0)
(0.97722 -0.0434705 0)
(0.968155 -0.0161821 0)
(0.989421 -0.00105224 0)
(1.00006 0.00912023 0)
(1.00096 0.00711097 0)
(0.999159 0.00975771 0)
(1.00351 0.00539426 0)
(1.00138 -0.00132689 0)
(0.999804 -0.00278198 0)
(0.997592 -0.0125784 0)
(0.995115 -0.0117482 0)
(0.988987 -0.0202243 0)
(0.985717 -0.0165189 0)
(0.978326 -0.0216901 0)
(0.974781 -0.0148027 0)
(0.969569 -0.0169989 0)
(0.992038 -0.00686076 0)
(1.00502 0.0202831 0)
(1.02335 -0.0103815 0)
(1.00971 -0.0271741 0)
(0.979294 -0.0428184 0)
(0.965997 -0.0164089 0)
(0.979546 -0.00129924 0)
(0.989736 0.00875549 0)
(0.992694 0.00724295 0)
(0.993967 0.00938465 0)
(1.00028 0.00560705 0)
(0.999938 -0.00152542 0)
(0.998753 -0.00254943 0)
(0.996811 -0.0124378 0)
(0.99443 -0.0115288 0)
(0.98858 -0.0195562 0)
(0.985294 -0.0162547 0)
(0.978164 -0.0207788 0)
(0.974716 -0.0144479 0)
(0.969559 -0.0161706 0)
(0.992778 -0.00681674 0)
(1.00375 0.0199442 0)
(1.02216 -0.0102928 0)
(1.00905 -0.0268705 0)
(0.980672 -0.0421296 0)
(0.965115 -0.0165177 0)
(0.973464 -0.00145213 0)
(0.983178 0.00834304 0)
(0.98763 0.00729486 0)
(0.990815 0.00892036 0)
(0.998357 0.00573241 0)
(0.998995 -0.00172806 0)
(0.998053 -0.00239414 0)
(0.996168 -0.0122229 0)
(0.993936 -0.0113724 0)
(0.988277 -0.0188503 0)
(0.985038 -0.0159799 0)
(0.978143 -0.019887 0)
(0.974796 -0.0140678 0)
(0.969727 -0.0153665 0)
(0.993395 -0.00676563 0)
(1.00286 0.0196017 0)
(1.02122 -0.0101974 0)
(1.00839 -0.0265832 0)
(0.981491 -0.0414149 0)
(0.965134 -0.0165552 0)
(0.970434 -0.00154002 0)
(0.979659 0.00789479 0)
(0.984995 0.00729245 0)
(0.989123 0.00840985 0)
(0.997332 0.00578395 0)
(0.998365 -0.00190504 0)
(0.997581 -0.00231125 0)
(0.995631 -0.0119367 0)
(0.9936 -0.011265 0)
(0.98808 -0.0181252 0)
(0.984942 -0.015682 0)
(0.978286 -0.0190176 0)
(0.975024 -0.0136675 0)
(0.970097 -0.0145882 0)
(0.993915 -0.0067087 0)
(1.00222 0.0192532 0)
(1.02045 -0.0100922 0)
(1.0078 -0.0263047 0)
(0.98194 -0.0406809 0)
(0.965648 -0.0165587 0)
(0.969468 -0.00158974 0)
(0.978191 0.00742519 0)
(0.983931 0.00725203 0)
(0.988318 0.00788378 0)
(0.996839 0.00578361 0)
(0.99791 -0.00202988 0)
(0.997255 -0.00229218 0)
(0.995193 -0.011591 0)
(0.993391 -0.0111907 0)
(0.987993 -0.0173956 0)
(0.984983 -0.0153586 0)
(0.978593 -0.0181769 0)
(0.975392 -0.0132493 0)
(0.970664 -0.0138312 0)
(0.994359 -0.00664669 0)
(1.00175 0.0188968 0)
(1.01976 -0.00997579 0)
(1.00731 -0.0260312 0)
(0.982181 -0.0399302 0)
(0.966351 -0.0165541 0)
(0.969679 -0.00161243 0)
(0.977879 0.00694273 0)
(0.983726 0.00719489 0)
(0.987962 0.00735711 0)
(0.996605 0.00572672 0)
(0.997549 -0.00209508 0)
(0.997024 -0.00233022 0)
(0.994858 -0.0111991 0)
(0.993288 -0.0111386 0)
(0.988016 -0.0166748 0)
(0.985136 -0.0149992 0)
(0.979047 -0.0173683 0)
(0.975884 -0.0128288 0)
(0.971404 -0.0130989 0)
(0.994737 -0.00657993 0)
(1.00139 0.0185316 0)
(1.0191 -0.00984852 0)
(1.00691 -0.0257602 0)
(0.982325 -0.0391651 0)
(0.96707 -0.0165546 0)
(0.970433 -0.00161921 0)
(0.978096 0.00645406 0)
(0.983902 0.00712627 0)
(0.987792 0.0068577 0)
(0.996461 0.00560237 0)
(0.997253 -0.00210414 0)
(0.996858 -0.00242193 0)
(0.994631 -0.0107692 0)
(0.993272 -0.0110875 0)
(0.98815 -0.0159946 0)
(0.985379 -0.0146031 0)
(0.979622 -0.0165606 0)
(0.97648 -0.0124126 0)
(0.972282 -0.0124026 0)
(0.995051 -0.00650859 0)
(1.0011 0.0181569 0)
(1.01845 -0.00971069 0)
(1.0066 -0.0254907 0)
(0.98243 -0.0383853 0)
(0.967736 -0.0165658 0)
(0.971364 -0.00162321 0)
(0.978487 0.00596935 0)
(0.984195 0.00703333 0)
(0.987695 0.00641116 0)
(0.996323 0.00541911 0)
(0.997019 -0.00205716 0)
(0.99674 -0.00256472 0)
(0.994514 -0.0103318 0)
(0.993323 -0.0109901 0)
(0.988388 -0.0153484 0)
(0.985696 -0.0142312 0)
(0.980288 -0.0157481 0)
(0.97715 -0.0119584 0)
(0.973256 -0.0117315 0)
(0.995301 -0.00643252 0)
(1.00088 0.0177719 0)
(1.01782 -0.00956214 0)
(1.00636 -0.0252232 0)
(0.982524 -0.0375897 0)
(0.968337 -0.0165876 0)
(0.972291 -0.00163236 0)
(0.978899 0.00549713 0)
(0.984485 0.00691607 0)
(0.987649 0.00601514 0)
(0.996165 0.00518287 0)
(0.996857 -0.00196478 0)
(0.996654 -0.00272786 0)
(0.9945 -0.00992117 0)
(0.993425 -0.0108806 0)
(0.988704 -0.0146545 0)
(0.986069 -0.0138779 0)
(0.981025 -0.0150214 0)
(0.977872 -0.0114753 0)
(0.974279 -0.0110566 0)
(0.99549 -0.00635156 0)
(1.0007 0.017376 0)
(1.01722 -0.0094034 0)
(1.00617 -0.0249563 0)
(0.98262 -0.0367792 0)
(0.96888 -0.0166158 0)
(0.973141 -0.00164767 0)
(0.979287 0.00503284 0)
(0.984729 0.00676755 0)
(0.987672 0.00567646 0)
(0.995995 0.00489004 0)
(0.996774 -0.00186338 0)
(0.99659 -0.00289986 0)
(0.994567 -0.00948851 0)
(0.993568 -0.0108094 0)
(0.989083 -0.0139947 0)
(0.986461 -0.0134027 0)
(0.9818 -0.0143592 0)
(0.978635 -0.0110598 0)
(0.975313 -0.0104115 0)
(0.99562 -0.00626525 0)
(1.00058 0.0169677 0)
(1.01667 -0.00923397 0)
(1.00603 -0.0246913 0)
(0.982728 -0.0359476 0)
(0.96937 -0.0166581 0)
(0.973877 -0.00166308 0)
(0.979644 0.00458795 0)
(0.984911 0.0065785 0)
(0.987773 0.00538087 0)
(0.995829 0.00455563 0)
(0.996769 -0.00174626 0)
(0.996547 -0.003091 0)
(0.994689 -0.00909959 0)
(0.993721 -0.0105969 0)
(0.989514 -0.0134699 0)
(0.986866 -0.0129051 0)
(0.982569 -0.0136432 0)
(0.979423 -0.0106566 0)
(0.976344 -0.00982806 0)
(0.995698 -0.00617366 0)
(1.00048 0.0165465 0)
(1.01619 -0.00905479 0)
(1.00592 -0.0244227 0)
(0.982856 -0.0351014 0)
(0.969814 -0.0166999 0)
(0.974477 -0.0017084 0)
(0.979969 0.00417588 0)
(0.985019 0.00634849 0)
(0.987947 0.00512678 0)
(0.995683 0.00418475 0)
(0.996831 -0.00159606 0)
(0.996508 -0.00326967 0)
(0.994855 -0.00873674 0)
(0.993873 -0.0104608 0)
(0.989938 -0.0127671 0)
(0.987281 -0.012486 0)
(0.983299 -0.012965 0)
(0.980165 -0.0102125 0)
(0.977299 -0.00923146 0)
(0.995735 -0.00607761 0)
(1.00041 0.0161132 0)
(1.01579 -0.00886478 0)
(1.00582 -0.0241461 0)
(0.983012 -0.0342496 0)
(0.970223 -0.0167207 0)
(0.974924 -0.0017861 0)
(0.980261 0.00380624 0)
(0.985053 0.0060387 0)
(0.988168 0.00495082 0)
(0.995563 0.00373004 0)
(0.996942 -0.00142993 0)
(0.996473 -0.00351425 0)
(0.995009 -0.00821627 0)
(0.994035 -0.010468 0)
(0.990357 -0.0121342 0)
(0.987648 -0.0119705 0)
(0.98399 -0.0122014 0)
(0.980903 -0.00985877 0)
(0.978209 -0.00869692 0)
(0.995742 -0.00597005 0)
(1.00035 0.0156529 0)
(1.01546 -0.00865917 0)
(1.00572 -0.0238853 0)
(0.983196 -0.033351 0)
(0.970619 -0.0167724 0)
(0.975219 -0.0018572 0)
(0.980519 0.00343473 0)
(0.985024 0.00573726 0)
(0.9884 0.00471959 0)
(0.995464 0.00337174 0)
(0.997073 -0.00145937 0)
(0.996442 -0.00347912 0)
(0.99515 -0.00819588 0)
(0.994139 -0.00987796 0)
(0.990763 -0.0117799 0)
(0.988031 -0.011624 0)
(0.984623 -0.0114816 0)
(0.981609 -0.00926325 0)
(0.97909 -0.00814151 0)
(0.995733 -0.00586471 0)
(1.0003 0.0151955 0)
(1.01519 -0.00846822 0)
(1.00561 -0.0235726 0)
(0.983408 -0.0324978 0)
(0.971023 -0.0167332 0)
(0.975385 -0.00202162 0)
(0.980749 0.00314342 0)
(0.984947 0.00531461 0)
(0.988618 0.00459306 0)
(0.99537 0.00294586 0)
(0.997215 -0.00143991 0)
(0.996356 -0.00354679 0)
(0.995281 -0.00783832 0)
(0.994253 -0.00989232 0)
(0.991026 -0.0110787 0)
(0.988368 -0.0110392 0)
(0.985221 -0.0110665 0)
(0.982205 -0.00876607 0)
(0.979776 -0.00747747 0)
(0.995723 -0.00574973 0)
(1.00025 0.0147087 0)
(1.01497 -0.00823405 0)
(1.00548 -0.0232954 0)
(0.983644 -0.0315841 0)
(0.971459 -0.0167075 0)
(0.975468 -0.00217619 0)
(0.98094 0.00282114 0)
(0.984861 0.00496158 0)
(0.988786 0.00433433 0)
(0.995278 0.00263405 0)
(0.997312 -0.00156401 0)
(0.996295 -0.00352947 0)
(0.995291 -0.007616 0)
(0.994302 -0.0096072 0)
(0.991382 -0.0107962 0)
(0.988604 -0.0102526 0)
(0.985715 -0.0105583 0)
(0.982884 -0.00834975 0)
(0.980526 -0.00691553 0)
(0.995723 -0.00561384 0)
(1.00019 0.0141776 0)
(1.01477 -0.00799923 0)
(1.00533 -0.0230226 0)
(0.983901 -0.0306395 0)
(0.971936 -0.0167067 0)
(0.975516 -0.0023344 0)
(0.981107 0.0024936 0)
(0.98477 0.00456872 0)
(0.988899 0.00411067 0)
(0.995166 0.00230054 0)
(0.997377 -0.00166702 0)
(0.996153 -0.00345506 0)
(0.995307 -0.00758628 0)
(0.994313 -0.00897449 0)
(0.991568 -0.0105666 0)
(0.988854 -0.0099024 0)
(0.986126 -0.00966125 0)
(0.983401 -0.00768438 0)
(0.981071 -0.0064087 0)
(0.995739 -0.00550023 0)
(1.00013 0.0136936 0)
(1.01456 -0.00781536 0)
(1.00517 -0.0226246 0)
(0.984179 -0.0298345 0)
(0.97246 -0.0164833 0)
(0.975586 -0.00267815 0)
(0.981235 0.00237039 0)
(0.98471 0.00391009 0)
(0.988944 0.004106 0)
(0.995038 0.00172979 0)
(0.997373 -0.00144048 0)
(0.996017 -0.00389781 0)
(0.995219 -0.00674143 0)
(0.994272 -0.00941081 0)
(0.991726 -0.00940827 0)
(0.989079 -0.00953375 0)
(0.986512 -0.00893338 0)
(0.983843 -0.00748084 0)
(0.981602 -0.00610378 0)
(0.995772 -0.00536053 0)
(1.00008 0.0131371 0)
(1.01431 -0.0075251 0)
(1.005 -0.0223463 0)
(0.984469 -0.0288578 0)
(0.973032 -0.0163962 0)
(0.975713 -0.00290986 0)
(0.981351 0.00205614 0)
(0.984661 0.00358557 0)
(0.988945 0.00366545 0)
(0.994887 0.00159245 0)
(0.9973 -0.00180965 0)
(0.995871 -0.00368286 0)
(0.995062 -0.00679015 0)
(0.994244 -0.0087238 0)
(0.991925 -0.00929694 0)
(0.989223 -0.00869477 0)
(0.986894 -0.0085681 0)
(0.984346 -0.00706929 0)
(0.982208 -0.00556428 0)
(0.995826 -0.0051963 0)
(1.00002 0.012536 0)
(1.01402 -0.00727283 0)
(1.00483 -0.0220278 0)
(0.984774 -0.0279281 0)
(0.973648 -0.0162858 0)
(0.975927 -0.00310304 0)
(0.981462 0.00166626 0)
(0.984643 0.00321921 0)
(0.98891 0.00333655 0)
(0.9947 0.00135854 0)
(0.997209 -0.00203127 0)
(0.995668 -0.00353209 0)
(0.994919 -0.00675022 0)
(0.994118 -0.0080513 0)
(0.992022 -0.00921234 0)
(0.989392 -0.00811439 0)
(0.987092 -0.00787412 0)
(0.984722 -0.00646631 0)
(0.982612 -0.0050334 0)
(0.995902 -0.00507789 0)
(0.999968 0.0120435 0)
(1.01367 -0.00711168 0)
(1.00463 -0.0215435 0)
(0.985102 -0.0271726 0)
(0.974292 -0.0158787 0)
(0.976248 -0.00359843 0)
(0.981576 0.00169325 0)
(0.984672 0.00245951 0)
(0.988838 0.00332134 0)
(0.994521 0.000786424 0)
(0.997049 -0.00178689 0)
(0.995481 -0.00402788 0)
(0.994714 -0.0058994 0)
(0.99403 -0.00834013 0)
(0.992107 -0.00779502 0)
(0.989549 -0.00808796 0)
(0.987354 -0.00709117 0)
(0.985065 -0.006309 0)
(0.983062 -0.00500099 0)
(0.995991 -0.00491688 0)
(0.99992 0.0114239 0)
(1.01326 -0.00676755 0)
(1.00444 -0.0212515 0)
(0.985433 -0.0262038 0)
(0.974973 -0.0157196 0)
(0.976674 -0.00380803 0)
(0.981718 0.0012579 0)
(0.984713 0.00221504 0)
(0.988774 0.00276062 0)
(0.994327 0.000728016 0)
(0.996859 -0.00219963 0)
(0.995324 -0.00374346 0)
(0.994478 -0.00592687 0)
(0.993961 -0.00759755 0)
(0.992215 -0.00793234 0)
(0.989669 -0.00732637 0)
(0.987667 -0.00678477 0)
(0.985416 -0.00573752 0)
(0.983577 -0.00435199 0)
(0.996097 -0.00472559 0)
(0.999878 0.010776 0)
(1.0128 -0.00652545 0)
(1.00422 -0.0208732 0)
(0.98578 -0.025309 0)
(0.975682 -0.01553 0)
(0.977175 -0.00403273 0)
(0.981915 0.000829874 0)
(0.984797 0.00194444 0)
(0.988714 0.00226292 0)
(0.994128 0.000605044 0)
(0.996687 -0.00248356 0)
(0.99512 -0.00359024 0)
(0.994294 -0.00591766 0)
(0.993795 -0.00695899 0)
(0.992276 -0.00787377 0)
(0.98985 -0.00664994 0)
(0.987817 -0.00629067 0)
(0.98577 -0.00508637 0)
(0.983903 -0.00373214 0)
(0.996222 -0.00462205 0)
(0.999832 0.0102982 0)
(1.0123 -0.00640805 0)
(1.00397 -0.0202605 0)
(0.986144 -0.0246739 0)
(0.976402 -0.0149819 0)
(0.97778 -0.00457576 0)
(0.982139 0.000880567 0)
(0.984916 0.00114082 0)
(0.988664 0.00240872 0)
(0.993952 -0.000226028 0)
(0.996473 -0.00212126 0)
(0.994965 -0.00416115 0)
(0.99407 -0.00491447 0)
(0.993707 -0.00740076 0)
(0.992342 -0.00646578 0)
(0.989989 -0.00670869 0)
(0.988039 -0.00537686 0)
(0.986062 -0.00511321 0)
(0.984287 -0.00401042 0)
(0.996348 -0.00440105 0)
(0.999805 0.00958374 0)
(1.01176 -0.00601279 0)
(1.00373 -0.0199918 0)
(0.9865 -0.0236662 0)
(0.977164 -0.01483 0)
(0.978416 -0.00466318 0)
(0.982423 0.000278875 0)
(0.98507 0.00105671 0)
(0.988614 0.00174982 0)
(0.99378 -0.000186805 0)
(0.996286 -0.00251574 0)
(0.994863 -0.00376416 0)
(0.993844 -0.00512716 0)
(0.993626 -0.00651457 0)
(0.992486 -0.00684789 0)
(0.99021 -0.00613016 0)
(0.988333 -0.00501568 0)
(0.986297 -0.00422512 0)
(0.984763 -0.00322917 0)
(0.996481 -0.00424034 0)
(0.999785 0.00900115 0)
(1.0112 -0.00585848 0)
(1.00347 -0.0194487 0)
(0.986855 -0.0228951 0)
(0.97794 -0.0145338 0)
(0.979089 -0.00487857 0)
(0.98277 -0.000149377 0)
(0.98523 0.000854386 0)
(0.988629 0.00113547 0)
(0.993612 -4.51535e-05 0)
(0.996133 -0.00286372 0)
(0.99469 -0.00357952 0)
(0.993706 -0.00509795 0)
(0.993458 -0.00615662 0)
(0.992503 -0.00682513 0)
(0.990482 -0.00540336 0)
(0.988599 -0.00494007 0)
(0.986642 -0.0032766 0)
(0.984958 -0.00229268 0)
(0.996633 -0.00410379 0)
(0.999751 0.00847233 0)
(1.01065 -0.00569393 0)
(1.00317 -0.0188631 0)
(0.987237 -0.0222561 0)
(0.978712 -0.0140223 0)
(0.979795 -0.00524501 0)
(0.983138 -0.000367598 0)
(0.985435 0.000332753 0)
(0.988651 0.00110915 0)
(0.993476 -0.000548191 0)
(0.99595 -0.00266065 0)
(0.994634 -0.00386777 0)
(0.993483 -0.00437707 0)
(0.993374 -0.00635723 0)
(0.992718 -0.00588737 0)
(0.990647 -0.00545389 0)
(0.98891 -0.00432487 0)
(0.987056 -0.00318988 0)
(0.985247 -0.00248604 0)
(0.996783 -0.00386681 0)
(0.99973 0.00775343 0)
(1.01009 -0.00538279 0)
(1.00289 -0.0184632 0)
(0.987608 -0.0213387 0)
(0.979489 -0.0138443 0)
(0.98051 -0.00536418 0)
(0.983541 -0.000789963 0)
(0.985652 6.67864e-05 0)
(0.988691 0.000740004 0)
(0.993345 -0.000651404 0)
(0.995811 -0.00276645 0)
(0.994556 -0.00362182 0)
(0.993343 -0.00448368 0)
(0.993276 -0.00553294 0)
(0.992779 -0.00591715 0)
(0.990964 -0.00515947 0)
(0.989329 -0.00377073 0)
(0.987296 -0.00308607 0)
(0.985493 -0.00244567 0)
(0.996931 -0.00373675 0)
(0.999719 0.00722809 0)
(1.00954 -0.00525493 0)
(1.00261 -0.0178411 0)
(0.987978 -0.0206806 0)
(0.98027 -0.0134478 0)
(0.981228 -0.00558317 0)
(0.983963 -0.00109764 0)
(0.985886 -0.00032544 0)
(0.988766 0.000531362 0)
(0.993221 -0.000827234 0)
(0.995688 -0.00267855 0)
(0.994482 -0.00378035 0)
(0.993237 -0.00397629 0)
(0.993171 -0.00543126 0)
(0.992906 -0.00547663 0)
(0.991303 -0.00452852 0)
(0.989589 -0.00376744 0)
(0.987564 -0.0030714 0)
(0.985809 -0.00219716 0)
(0.997078 -0.00354172 0)
(0.99971 0.0066269 0)
(1.009 -0.005064 0)
(1.00232 -0.0173014 0)
(0.988352 -0.019914 0)
(0.981046 -0.0131288 0)
(0.981942 -0.00574957 0)
(0.984399 -0.00143013 0)
(0.98614 -0.000607711 0)
(0.988854 0.000263902 0)
(0.993123 -0.000940446 0)
(0.995544 -0.00273065 0)
(0.994485 -0.00369296 0)
(0.993127 -0.00381331 0)
(0.993069 -0.00494002 0)
(0.993109 -0.00509979 0)
(0.99151 -0.00444601 0)
(0.989858 -0.00365839 0)
(0.987921 -0.00275117 0)
(0.98613 -0.00197785 0)
(0.997222 -0.00335275 0)
(0.999708 0.00601147 0)
(1.00847 -0.00487985 0)
(1.00205 -0.0167467 0)
(0.98872 -0.0191489 0)
(0.981812 -0.0128748 0)
(0.982653 -0.00586532 0)
(0.98485 -0.00178092 0)
(0.986398 -0.000846112 0)
(0.988974 -5.55812e-05 0)
(0.993018 -0.000997828 0)
(0.995455 -0.00282713 0)
(0.994445 -0.00351433 0)
(0.993105 -0.00382281 0)
(0.993003 -0.00433657 0)
(0.993138 -0.00502648 0)
(0.991807 -0.00431437 0)
(0.990226 -0.00334728 0)
(0.988252 -0.00249872 0)
(0.986399 -0.00182958 0)
(0.997365 -0.00319539 0)
(0.999709 0.00548022 0)
(1.00796 -0.00474135 0)
(1.00179 -0.0161652 0)
(0.989091 -0.0184495 0)
(0.98257 -0.0125116 0)
(0.983359 -0.00601948 0)
(0.985304 -0.00207176 0)
(0.986671 -0.00111877 0)
(0.989101 -0.000267705 0)
(0.992942 -0.00120026 0)
(0.995344 -0.00272865 0)
(0.994465 -0.00365007 0)
(0.993088 -0.00342421 0)
(0.992901 -0.00426845 0)
(0.993243 -0.00462825 0)
(0.992111 -0.00403299 0)
(0.990554 -0.00312134 0)
(0.988572 -0.00238615 0)
(0.98668 -0.00168235 0)
(0.997504 -0.00300242 0)
(0.999714 0.00490016 0)
(1.00746 -0.00458136 0)
(1.00154 -0.0156158 0)
(0.989459 -0.0176587 0)
(0.983311 -0.0122444 0)
(0.984053 -0.0061226 0)
(0.985768 -0.00240158 0)
(0.98695 -0.00129818 0)
(0.989239 -0.000570638 0)
(0.992877 -0.00125502 0)
(0.995253 -0.0028325 0)
(0.994493 -0.00343032 0)
(0.9931 -0.00354342 0)
(0.992844 -0.00373702 0)
(0.993329 -0.00433551 0)
(0.992382 -0.00390897 0)
(0.990894 -0.00294525 0)
(0.988912 -0.00220392 0)
(0.986965 -0.00149275 0)
(0.997641 -0.00283427 0)
(0.999723 0.00436657 0)
(1.00698 -0.00445251 0)
(1.0013 -0.0150394 0)
(0.989823 -0.01696 0)
(0.98404 -0.011936 0)
(0.98474 -0.00622107 0)
(0.986243 -0.00269003 0)
(0.987235 -0.00150647 0)
(0.989396 -0.000787619 0)
(0.992818 -0.00137478 0)
(0.995186 -0.00281406 0)
(0.994501 -0.00346389 0)
(0.993168 -0.00335683 0)
(0.992827 -0.00349581 0)
(0.993324 -0.00404899 0)
(0.992677 -0.00369459 0)
(0.991267 -0.00277541 0)
(0.989259 -0.00209586 0)
(0.987239 -0.0013145 0)
(0.997777 -0.00266163 0)
(0.999734 0.00384748 0)
(1.00652 -0.00434335 0)
(1.00107 -0.0144724 0)
(0.990189 -0.0162303 0)
(0.984756 -0.0115787 0)
(0.985415 -0.00631811 0)
(0.986722 -0.00298086 0)
(0.987537 -0.00170488 0)
(0.989553 -0.000997182 0)
(0.992785 -0.00148307 0)
(0.995095 -0.0028656 0)
(0.994571 -0.00339952 0)
(0.99324 -0.00325529 0)
(0.992792 -0.00330696 0)
(0.993407 -0.00362307 0)
(0.992929 -0.00354269 0)
(0.99159 -0.00263541 0)
(0.989632 -0.00197871 0)
(0.987547 -0.00114851 0)
(0.997909 -0.00248965 0)
(0.999747 0.00333631 0)
(1.00607 -0.00422554 0)
(1.00086 -0.0139112 0)
(0.990552 -0.0155209 0)
(0.985453 -0.0112564 0)
(0.986075 -0.00638863 0)
(0.987211 -0.00325213 0)
(0.987845 -0.00188125 0)
(0.989729 -0.0011934 0)
(0.992745 -0.00157684 0)
(0.995052 -0.00288507 0)
(0.99461 -0.00334121 0)
(0.993344 -0.0031793 0)
(0.992864 -0.00307164 0)
(0.993378 -0.00330759 0)
(0.99315 -0.0033987 0)
(0.991978 -0.00247861 0)
(0.99002 -0.00187258 0)
(0.987843 -0.00102791 0)
(0.998039 -0.00232985 0)
(0.999765 0.00286461 0)
(1.00565 -0.00414156 0)
(1.00066 -0.0133505 0)
(0.990914 -0.0148498 0)
(0.98614 -0.010879 0)
(0.986726 -0.00643311 0)
(0.987705 -0.00349353 0)
(0.988173 -0.00206865 0)
(0.989905 -0.00137377 0)
(0.992736 -0.00169351 0)
(0.994979 -0.00286641 0)
(0.994703 -0.00336718 0)
(0.993466 -0.00301998 0)
(0.99289 -0.00298383 0)
(0.99343 -0.00298501 0)
(0.993365 -0.00318215 0)
(0.992305 -0.00234682 0)
(0.990402 -0.00180233 0)
(0.988169 -0.00094177 0)
(0.998165 -0.00216546 0)
(0.999783 0.00240089 0)
(1.00524 -0.00406082 0)
(1.00048 -0.0128004 0)
(0.991276 -0.0141615 0)
(0.986808 -0.0105147 0)
(0.987355 -0.00646245 0)
(0.988204 -0.00373705 0)
(0.988507 -0.00225749 0)
(0.990099 -0.00156011 0)
(0.992725 -0.00176592 0)
(0.994945 -0.00285464 0)
(0.994778 -0.00334195 0)
(0.993601 -0.00294145 0)
(0.99302 -0.00283712 0)
(0.993434 -0.00268006 0)
(0.993527 -0.00296644 0)
(0.992659 -0.00223066 0)
(0.990799 -0.00171075 0)
(0.988495 -0.000880356 0)
(0.998289 -0.00201661 0)
(0.999806 0.00197943 0)
(1.00485 -0.00399735 0)
(1.00031 -0.0122444 0)
(0.991636 -0.0135393 0)
(0.987463 -0.0101506 0)
(0.987973 -0.00645277 0)
(0.988703 -0.00394346 0)
(0.988862 -0.0024318 0)
(0.990302 -0.00170167 0)
(0.992748 -0.0018648 0)
(0.994881 -0.00278106 0)
(0.994891 -0.0034134 0)
(0.993764 -0.00279807 0)
(0.993116 -0.00274848 0)
(0.993506 -0.00245193 0)
(0.99368 -0.00272608 0)
(0.992954 -0.00212182 0)
(0.991177 -0.00164873 0)
(0.988838 -0.000861056 0)
(0.998409 -0.00186552 0)
(0.999829 0.00157923 0)
(1.00448 -0.00395463 0)
(1.00015 -0.0117028 0)
(0.991996 -0.0129094 0)
(0.988105 -0.00977413 0)
(0.988571 -0.00640827 0)
(0.989202 -0.00412214 0)
(0.989223 -0.00259592 0)
(0.990518 -0.0018652 0)
(0.992774 -0.00197179 0)
(0.994841 -0.0027427 0)
(0.994989 -0.00339973 0)
(0.993948 -0.00276869 0)
(0.993284 -0.00260207 0)
(0.993559 -0.00225034 0)
(0.993797 -0.00250085 0)
(0.993252 -0.00201692 0)
(0.991556 -0.00156401 0)
(0.989181 -0.000850682 0)
(0.998525 -0.00173266 0)
(0.999854 0.00122055 0)
(1.00413 -0.00391879 0)
(1.00001 -0.011173 0)
(0.992353 -0.0123173 0)
(0.988732 -0.00942367 0)
(0.989155 -0.00636218 0)
(0.989697 -0.00426012 0)
(0.989598 -0.00276279 0)
(0.990741 -0.00198401 0)
(0.992835 -0.00209906 0)
(0.994793 -0.00262341 0)
(0.995103 -0.00342778 0)
(0.994162 -0.00267564 0)
(0.993438 -0.0025084 0)
(0.993663 -0.00208452 0)
(0.993914 -0.00224805 0)
(0.9935 -0.00190407 0)
(0.991905 -0.0014984 0)
(0.989525 -0.000869021 0)
(0.998637 -0.00159299 0)
(0.999879 0.000878208 0)
(1.0038 -0.00389665 0)
(0.999882 -0.0106695 0)
(0.992709 -0.0117308 0)
(0.989347 -0.00906884 0)
(0.989722 -0.00628314 0)
(0.99019 -0.004372 0)
(0.98998 -0.0029026 0)
(0.990972 -0.00210452 0)
(0.99291 -0.00221337 0)
(0.994763 -0.00256183 0)
(0.995201 -0.00336405 0)
(0.994391 -0.00271852 0)
(0.993642 -0.00238028 0)
(0.993779 -0.00195725 0)
(0.994007 -0.00204407 0)
(0.993726 -0.00179331 0)
(0.992235 -0.00142722 0)
(0.989864 -0.000891049 0)
(0.998745 -0.0014752 0)
(0.999904 0.000583056 0)
(1.00349 -0.00387685 0)
(0.99977 -0.0101757 0)
(0.99306 -0.0111649 0)
(0.989944 -0.0087226 0)
(0.990277 -0.0061973 0)
(0.990681 -0.00444707 0)
(0.990375 -0.0030558 0)
(0.991213 -0.00219102 0)
(0.993012 -0.00233715 0)
(0.994747 -0.00247313 0)
(0.995283 -0.00328879 0)
(0.994639 -0.00271929 0)
(0.993857 -0.00228164 0)
(0.993914 -0.00186091 0)
(0.994111 -0.00182134 0)
(0.993918 -0.00166012 0)
(0.992523 -0.00135025 0)
(0.990188 -0.000900824 0)
(0.998848 -0.00136373 0)
(0.999927 0.00032553 0)
(1.0032 -0.00387349 0)
(0.999672 -0.00968645 0)
(0.993403 -0.0106036 0)
(0.990528 -0.00838174 0)
(0.990824 -0.00608721 0)
(0.991172 -0.00449618 0)
(0.990784 -0.00319417 0)
(0.991465 -0.00226075 0)
(0.99313 -0.00244047 0)
(0.994754 -0.00243724 0)
(0.99535 -0.00315904 0)
(0.994883 -0.0027396 0)