/*--------------------------------*- C++ -*----------------------------------*\
| =========                 |                                                 |
| \\      /  F ield         | OpenFOAM: The Open Source CFD Toolbox           |
|  \\    /   O peration     | Version:  v2012                                 |
|   \\  /    A nd           | Website:  www.openfoam.com                      |
|    \\/     M anipulation  |                                                 |
\*---------------------------------------------------------------------------*/
FoamFile
{
    version     2.0;
    format      ascii;
    class       surfaceScalarField;
    location    "6.9";
    object      phi;
}
// * * * * * * * * * * * * * * * * * * * * * * * * * * * * * * * * * * * * * //

dimensions      [0 3 -1 0 0 0 0];
oriented        oriented;


internalField   nonuniform List<scalar> 
13830
(
9.18734e-07
-6.33283e-07
9.40533e-07
-1.43831e-07
9.47215e-07
-9.93841e-07
9.66934e-07
1.49553e-07
9.76852e-07
1.93377e-06
9.43465e-07
7.71472e-07
9.61951e-07
1.09172e-06
9.28204e-07
-2.56843e-07
9.48099e-07
-1.10824e-06
8.99526e-07
-1.20218e-06
9.17007e-07
-1.46435e-06
8.9696e-07
-1.09505e-06
9.16693e-07
-1.03723e-06
9.19937e-07
-6.62858e-07
9.32122e-07
-6.22596e-07
9.38635e-07
-3.35746e-07
9.45536e-07
-2.87535e-07
9.49743e-07
-1.39113e-07
9.52734e-07
-1.05549e-07
-2.798e-08
9.44689e-07
9.54997e-07
-6.15749e-07
9.7678e-07
-1.65613e-07
9.85467e-07
-1.00253e-06
1.00515e-06
1.29873e-07
1.01187e-06
1.92705e-06
9.83633e-07
7.99709e-07
9.91466e-07
1.08388e-06
9.80757e-07
-2.46134e-07
9.79713e-07
-1.1072e-06
9.5351e-07
-1.17598e-06
9.56565e-07
-1.4674e-06
9.44524e-07
-1.08301e-06
9.56581e-07
-1.04929e-06
9.63758e-07
-6.70035e-07
9.69271e-07
-6.28109e-07
9.81652e-07
-3.48127e-07
9.78973e-07
-2.84856e-07
9.91995e-07
-1.52135e-07
9.82012e-07
-9.55648e-08
-3.8767e-08
9.92799e-07
9.92431e-07
-5.98726e-07
1.01438e-06
-1.8756e-07
1.02611e-06
-1.01426e-06
1.04453e-06
1.11453e-07
1.04905e-06
1.92253e-06
1.02641e-06
8.22343e-07
1.02912e-06
1.08118e-06
1.0267e-06
-2.43718e-07
1.01438e-06
-1.09488e-06
9.98415e-07
-1.16001e-06
9.86199e-07
-1.45519e-06
9.86798e-07
-1.08361e-06
9.88313e-07
-1.05081e-06
1.00341e-06
-6.85132e-07
1.00234e-06
-6.2704e-07
1.01892e-06
-3.64708e-07
1.01293e-06
-2.78861e-07
1.02635e-06
-1.65559e-07
1.01758e-06
-8.67913e-08
-4.56813e-08
1.02449e-06
1.03094e-06
-5.81893e-07
1.05216e-06
-2.08781e-07
1.06796e-06
-1.03005e-06
1.08518e-06
9.42334e-08
1.08833e-06
1.91937e-06
1.07103e-06
8.3965e-07
1.07132e-06
1.08088e-06
1.07217e-06
-2.44569e-07
1.05235e-06
-1.07506e-06
1.04104e-06
-1.1487e-06
1.01988e-06
-1.43402e-06
1.02541e-06
-1.08914e-06
1.02089e-06
-1.04629e-06
1.03847e-06
-7.02717e-07
1.03688e-06
-6.25446e-07
1.05292e-06
-3.80749e-07
1.04998e-06
-2.75915e-07
1.06106e-06
-1.76644e-07
1.05624e-06
-8.19751e-08
-5.00141e-08
1.06058e-06
1.07073e-06
-5.65064e-07
1.08989e-06
-2.27948e-07
1.10986e-06
-1.05002e-06
1.1264e-06
7.76936e-08
1.12953e-06
1.91624e-06
1.11648e-06
8.52701e-07
1.11617e-06
1.08119e-06
1.11671e-06
-2.45114e-07
1.09388e-06
-1.05222e-06
1.08335e-06
-1.13818e-06
1.05854e-06
-1.40921e-06
1.06423e-06
-1.09483e-06
1.05749e-06
-1.03955e-06
1.07441e-06
-7.19637e-07
1.07418e-06
-6.25208e-07
1.08926e-06
-3.9583e-07
1.08944e-06
-2.76097e-07
1.09965e-06
-1.86857e-07
1.09766e-06
-7.99864e-08
-5.35038e-08
1.10115e-06
1.11233e-06
-5.48552e-07
1.12798e-06
-2.43596e-07
1.15107e-06
-1.07311e-06
1.16777e-06
6.09921e-08
1.1718e-06
1.91221e-06
1.1623e-06
8.62201e-07
1.16207e-06
1.08143e-06
1.16148e-06
-2.44526e-07
1.13802e-06
-1.02876e-06
1.12679e-06
-1.12695e-06
1.10096e-06
-1.38338e-06
1.10497e-06
-1.09884e-06
1.09734e-06
-1.03191e-06
1.11301e-06
-7.35309e-07
1.11338e-06
-6.25572e-07
1.12814e-06
-4.10598e-07
1.13015e-06
-2.78103e-07
1.14057e-06
-1.97275e-07
1.14065e-06
-8.00627e-08
-5.7288e-08
1.14443e-06
1.15624e-06
-5.33092e-07
1.16725e-06
-2.5461e-07
1.19134e-06
-1.09719e-06
1.20903e-06
4.32944e-08
1.21441e-06
1.90683e-06
1.20836e-06
8.6825e-07
1.2086e-06
1.08118e-06
1.20715e-06
-2.43074e-07
1.18403e-06
-1.00564e-06
1.17218e-06
-1.1151e-06
1.14573e-06
-1.35693e-06
1.14796e-06
-1.10107e-06
1.1392e-06
-1.02315e-06
1.15386e-06
-7.49976e-07
1.15393e-06
-6.2564e-07
1.16861e-06
-4.2528e-07
1.17158e-06
-2.81075e-07
1.18236e-06
-2.08052e-07
1.18415e-06
-8.18523e-08
-6.18393e-08
1.1887e-06
1.20256e-06
-5.19471e-07
1.20854e-06
-2.60591e-07
1.2309e-06
-1.11955e-06
1.24999e-06
2.42008e-08
1.25692e-06
1.8999e-06
1.25468e-06
8.70488e-07
1.25583e-06
1.08003e-06
1.25401e-06
-2.41245e-07
1.2315e-06
-9.83127e-07
1.21955e-06
-1.10315e-06
1.19227e-06
-1.32965e-06
1.19303e-06
-1.10184e-06
1.18265e-06
-1.01277e-06
1.19645e-06
-7.63771e-07
1.19587e-06
-6.25058e-07
1.21031e-06
-4.39718e-07
1.21391e-06
-2.84684e-07
1.22472e-06
-2.18856e-07
1.22801e-06
-8.51465e-08
-6.70951e-08
1.23327e-06
1.25104e-06
-5.08154e-07
1.25237e-06
-2.61925e-07
1.27034e-06
-1.13752e-06
1.29044e-06
4.10265e-09
1.2991e-06
1.89124e-06
1.3013e-06
8.68295e-07
1.30396e-06
1.07737e-06
1.30215e-06
-2.39439e-07
1.28032e-06
-9.61299e-07
1.26881e-06
-1.09164e-06
1.24066e-06
-1.3015e-06
1.24013e-06
-1.10131e-06
1.22786e-06
-1.0005e-06
1.24057e-06
-7.7648e-07
1.23931e-06
-6.23798e-07
1.25322e-06
-4.53627e-07
1.25747e-06
-2.88942e-07
1.26792e-06
-2.29305e-07
1.27259e-06
-8.98188e-08
-7.28092e-08
1.27831e-06
1.30128e-06
-4.99158e-07
1.29893e-06
-2.59571e-07
1.31052e-06
-1.14911e-06
1.33041e-06
-1.57937e-08
1.34094e-06
1.88071e-06
1.34828e-06
8.60956e-07
1.35311e-06
1.07254e-06
1.35159e-06
-2.37912e-07
1.33039e-06
-9.40103e-07
1.31975e-06
-1.081e-06
1.291e-06
-1.27274e-06
1.28921e-06
-1.09952e-06
1.27505e-06
-9.86345e-07
1.2862e-06
-7.87627e-07
1.28428e-06
-6.21876e-07
1.2973e-06
-4.66651e-07
1.30234e-06
-2.93976e-07
1.31219e-06
-2.39159e-07
1.31818e-06
-9.5803e-08
-7.88276e-08
1.32419e-06
1.35302e-06
-4.92159e-07
1.34817e-06
-2.54715e-07
1.3524e-06
-1.15334e-06
1.37053e-06
-3.39247e-08
1.38296e-06
1.86828e-06
1.39597e-06
8.47949e-07
1.40348e-06
1.06502e-06
1.40236e-06
-2.36786e-07
1.38164e-06
-9.19385e-07
1.37224e-06
-1.0716e-06
1.34326e-06
-1.24376e-06
1.34029e-06
-1.09655e-06
1.32446e-06
-9.70517e-07
1.33348e-06
-7.96652e-07
1.33082e-06
-6.19213e-07
1.3425e-06
-4.78329e-07
1.34832e-06
-2.998e-07
1.35745e-06
-2.48285e-07
1.36465e-06
-1.0301e-07
-8.5135e-08
1.37096e-06
1.40621e-06
-4.86712e-07
1.39994e-06
-2.48443e-07
1.39693e-06
-1.15034e-06
1.41212e-06
-4.91186e-08
1.42647e-06
1.85394e-06
1.44503e-06
8.29385e-07
1.45531e-06
1.05474e-06
1.45457e-06
-2.36038e-07
1.43407e-06
-8.98885e-07
1.42613e-06
-1.06367e-06
1.3973e-06
-1.21493e-06
1.39334e-06
-1.0926e-06
1.37624e-06
-9.53408e-07
1.38266e-06
-8.03075e-07
1.3791e-06
-6.15655e-07
1.38885e-06
-4.88076e-07
1.39523e-06
-3.06176e-07
1.40345e-06
-2.56513e-07
1.41167e-06
-1.11223e-07
-9.1727e-08
1.41826e-06
1.46096e-06
-4.82427e-07
1.45407e-06
-2.41548e-07
1.44486e-06
-1.14114e-06
1.45691e-06
-6.11661e-08
1.47323e-06
1.83762e-06
1.49627e-06
8.06341e-07
1.50887e-06
1.04214e-06
1.50836e-06
-2.35523e-07
1.48777e-06
-8.78301e-07
1.48136e-06
-1.05725e-06
1.45295e-06
-1.18652e-06
1.4483e-06
-1.08794e-06
1.43046e-06
-9.35564e-07
1.43401e-06
-8.06623e-07
1.42943e-06
-6.11081e-07
1.43663e-06
-4.95278e-07
1.44306e-06
-3.12601e-07
1.45009e-06
-2.63546e-07
1.45888e-06
-1.20012e-07
-9.84552e-08
1.46561e-06
1.51747e-06
-4.79029e-07
1.51042e-06
-2.34495e-07
1.49659e-06
-1.1273e-06
1.50624e-06
-7.08219e-08
1.52467e-06
1.81919e-06
1.55025e-06
7.80767e-07
1.56436e-06
1.02803e-06
1.56388e-06
-2.35048e-07
1.54298e-06
-8.57395e-07
1.53795e-06
-1.05222e-06
1.51011e-06
-1.15869e-06
1.50504e-06
-1.08287e-06
1.4871e-06
-9.1762e-07
1.48773e-06
-8.07256e-07
1.48217e-06
-6.05523e-07
1.48633e-06
-4.99439e-07
1.49214e-06
-3.18409e-07
1.49756e-06
-2.68963e-07
1.50628e-06
-1.28735e-07
-1.04943e-07
1.51277e-06
1.57592e-06
-4.76336e-07
1.56894e-06
-2.27517e-07
1.5521e-06
-1.11046e-06
1.56055e-06
-7.92702e-08
1.58122e-06
1.79852e-06
1.60707e-06
7.54921e-07
1.62187e-06
1.01322e-06
1.62129e-06
-2.34469e-07
1.59998e-06
-8.36085e-07
1.59603e-06
-1.04827e-06
1.56879e-06
-1.13144e-06
1.56347e-06
-1.07755e-06
1.54604e-06
-9.00196e-07
1.54391e-06
-8.0512e-07
1.5376e-06
-5.99217e-07
1.53851e-06
-5.0035e-07
1.54306e-06
-3.22958e-07
1.54645e-06
-2.7235e-07
1.55436e-06
-1.36644e-07
-1.10634e-07
1.56005e-06
1.63641e-06
-4.74205e-07
1.62962e-06
-2.20728e-07
1.61106e-06
-1.0919e-06
1.61924e-06
-8.74488e-08
1.64217e-06
1.77559e-06
1.66646e-06
7.3063e-07
1.68146e-06
9.98226e-07
1.68074e-06
-2.3375e-07
1.65913e-06
-8.14475e-07
1.6558e-06
-1.04495e-06
1.62915e-06
-1.10479e-06
1.62356e-06
-1.07195e-06
1.60717e-06
-8.83809e-07
1.6025e-06
-8.00448e-07
1.59582e-06
-5.92536e-07
1.59362e-06
-4.98148e-07
1.5965e-06
-3.25836e-07
1.5976e-06
-2.7345e-07
1.60403e-06
-1.43082e-07
-1.1494e-07
1.60834e-06
1.69904e-06
-4.72492e-07
1.69253e-06
-2.14217e-07
1.673e-06
-1.07238e-06
1.68123e-06
-9.56757e-08
1.70625e-06
1.75056e-06
1.72809e-06
7.08798e-07
1.74321e-06
9.83105e-07
1.7424e-06
-2.32945e-07
1.72072e-06
-7.92797e-07
1.71748e-06
-1.04171e-06
1.69146e-06
-1.07877e-06
1.68541e-06
-1.0659e-06
1.67042e-06
-8.68821e-07
1.66346e-06
-7.93487e-07
1.65682e-06
-5.859e-07
1.65193e-06
-4.93259e-07
1.65305e-06
-3.26951e-07
1.65188e-06
-2.72287e-07
1.65644e-06
-1.47642e-07
-1.17451e-07
1.65895e-06
1.76387e-06
-4.71042e-07
1.75773e-06
-2.0808e-07
1.73751e-06
-1.05216e-06
1.74557e-06
-1.0373e-07
1.77237e-06
1.72376e-06
1.79179e-06
6.8938e-07
1.80731e-06
9.67587e-07
1.80649e-06
-2.32127e-07
1.78502e-06
-7.71326e-07
1.7813e-06
-1.03798e-06
1.75604e-06
-1.05351e-06
1.74917e-06
-1.05903e-06
1.73577e-06
-8.55417e-07
1.72677e-06
-7.84484e-07
1.72052e-06
-5.79649e-07
1.71355e-06
-4.86288e-07
1.71307e-06
-3.26481e-07
1.70998e-06
-2.69195e-07
1.71258e-06
-1.50243e-07
-1.18073e-07
1.71321e-06
1.83099e-06
-4.69697e-07
1.82533e-06
-2.02421e-07
1.80435e-06
-1.03118e-06
1.81184e-06
-1.11215e-07
1.84006e-06
1.69554e-06
1.85769e-06
6.71744e-07
1.87401e-06
9.51268e-07
1.8732e-06
-2.31314e-07
1.85218e-06
-7.50303e-07
1.84745e-06
-1.03325e-06
1.82319e-06
-1.02925e-06
1.81508e-06
-1.05092e-06
1.80328e-06
-8.43614e-07
1.7925e-06
-7.7371e-07
1.78683e-06
-5.73977e-07
1.77843e-06
-4.77889e-07
1.77671e-06
-3.24763e-07
1.77222e-06
-2.64703e-07
1.77309e-06
-1.51111e-07
-1.17036e-07
1.77205e-06
1.90052e-06
-4.68316e-07
1.89543e-06
-1.97332e-07
1.87348e-06
-1.00923e-06
1.88016e-06
-1.17892e-07
1.90948e-06
1.66622e-06
1.92609e-06
6.55131e-07
1.94357e-06
9.33793e-07
1.94268e-06
-2.30428e-07
1.9223e-06
-7.29918e-07
1.9161e-06
-1.02706e-06
1.89316e-06
-1.00631e-06
1.88336e-06
-1.04112e-06
1.87307e-06
-8.33327e-07
1.86079e-06
-7.6143e-07
1.85571e-06
-5.68896e-07
1.8465e-06
-4.68675e-07
1.84389e-06
-3.2215e-07
1.83857e-06
-2.59388e-07
1.83812e-06
-1.50662e-07
-1.14785e-07
1.83587e-06
1.97256e-06
-4.66777e-07
1.96813e-06
-1.92899e-07
1.945e-06
-9.86102e-07
1.95092e-06
-1.23815e-07
1.98113e-06
1.63601e-06
1.99728e-06
6.38987e-07
2.01612e-06
9.14948e-07
2.01501e-06
-2.2932e-07
1.99542e-06
-7.10322e-07
1.98741e-06
-1.01905e-06
1.9661e-06
-9.85004e-07
1.95425e-06
-1.02927e-06
1.94532e-06
-8.24395e-07
1.93179e-06
-7.47905e-07
1.92716e-06
-5.64262e-07
1.91764e-06
-4.5916e-07
1.91442e-06
-3.18921e-07
1.90877e-06
-2.53744e-07
1.90747e-06
-1.49364e-07
-1.11822e-07
1.90451e-06
2.04725e-06
-4.64981e-07
2.04356e-06
-1.89208e-07
2.01908e-06
-9.61625e-07
2.02451e-06
-1.29237e-07
2.05551e-06
1.605e-06
2.07143e-06
6.23065e-07
2.09173e-06
8.94649e-07
2.09022e-06
-2.27811e-07
2.07156e-06
-6.91661e-07
2.06147e-06
-1.00896e-06
2.04206e-06
-9.6559e-07
2.02798e-06
-1.0152e-06
2.02016e-06
-8.16573e-07
2.00566e-06
-7.33403e-07
2.00121e-06
-5.59808e-07
1.99178e-06
-4.49729e-07
1.98812e-06
-3.15262e-07
1.98247e-06
-2.48096e-07
1.98074e-06
-1.47636e-07
-1.08573e-07
1.97749e-06
2.1247e-06
-4.6284e-07
2.12185e-06
-1.86356e-07
2.09594e-06
-9.35718e-07
2.10115e-06
-1.34442e-07
2.13292e-06
1.57322e-06
2.14863e-06
6.07358e-07
2.17038e-06
8.72899e-07
2.16832e-06
-2.25746e-07
2.15075e-06
-6.74097e-07
2.1384e-06
-9.96607e-07
2.12101e-06
-9.48198e-07
2.10471e-06
-9.98896e-07
2.09771e-06
-8.09582e-07
2.08252e-06
-7.18208e-07
2.07792e-06
-5.55205e-07
2.06884e-06
-4.40649e-07
2.06483e-06
-3.11254e-07
2.05935e-06
-2.4262e-07
2.0575e-06
-1.45779e-07
-1.05343e-07
2.05427e-06
2.20502e-06
-4.60275e-07
2.20311e-06
-1.84451e-07
2.17578e-06
-9.08381e-07
2.18094e-06
-1.39599e-07
2.21348e-06
1.54068e-06
2.22887e-06
5.91971e-07
2.25204e-06
8.49731e-07
2.24931e-06
-2.23021e-07
2.23303e-06
-6.57811e-07
2.21829e-06
-9.81872e-07
2.20292e-06
-9.3283e-07
2.18453e-06
-9.80505e-07
2.17808e-06
-8.03127e-07
2.16246e-06
-7.02586e-07
2.15738e-06
-5.50133e-07
2.14878e-06
-4.3205e-07
2.14448e-06
-3.0695e-07
2.13919e-06
-2.37334e-07
2.1374e-06
-1.43988e-07
-1.02325e-07
2.13438e-06
2.28832e-06
-4.57205e-07
2.28747e-06
-1.83603e-07
2.25879e-06
-8.79701e-07
2.2639e-06
-1.44709e-07
2.2972e-06
1.50738e-06
2.31216e-06
5.77009e-07
2.33671e-06
8.25178e-07
2.33326e-06
-2.19575e-07
2.31844e-06
-6.42991e-07
2.30129e-06
-9.64715e-07
2.28782e-06
-9.19365e-07
2.26759e-06
-9.60267e-07
2.26134e-06
-7.96882e-07
2.24556e-06
-6.86805e-07
2.23973e-06
-5.44301e-07
2.23162e-06
-4.23939e-07
2.22706e-06
-3.02397e-07
2.22184e-06
-2.32106e-07
2.22027e-06
-1.42421e-07
-9.96126e-08
2.21756e-06
2.37473e-06
-4.53554e-07
2.37503e-06
-1.83895e-07
2.34517e-06
-8.49843e-07
2.35009e-06
-1.49631e-07
2.38404e-06
1.47343e-06
2.39853e-06
5.62526e-07
2.42445e-06
7.99252e-07
2.42026e-06
-2.15377e-07
2.40706e-06
-6.29791e-07
2.38759e-06
-9.45247e-07
2.37576e-06
-9.07533e-07
2.35399e-06
-9.385e-07
2.3476e-06
-7.90489e-07
2.3319e-06
-6.71113e-07
2.32508e-06
-5.37474e-07
2.31741e-06
-4.16275e-07
2.31251e-06
-2.97491e-07
2.30706e-06
-2.26659e-07
2.30604e-06
-1.41398e-07
-9.72151e-08
2.30364e-06
2.46438e-06
-4.49257e-07
2.46585e-06
-1.85363e-07
2.43505e-06
-8.19039e-07
2.43958e-06
-1.54161e-07
2.47406e-06
1.43894e-06
2.48806e-06
5.48525e-07
2.51538e-06
7.71933e-07
2.51041e-06
-2.10401e-07
2.49892e-06
-6.18307e-07
2.47735e-06
-9.23677e-07
2.46679e-06
-8.9697e-07
2.44388e-06
-9.1559e-07
2.43695e-06
-7.83562e-07
2.42157e-06
-6.55726e-07
2.41353e-06
-5.29442e-07
2.40633e-06
-4.09075e-07
2.4003e-06
-2.91456e-07
2.39466e-06
-2.21023e-07
2.39477e-06
-1.41511e-07
-9.50407e-08
2.3926e-06
2.55741e-06
-4.44267e-07
2.56003e-06
-1.87981e-07
2.52855e-06
-7.8756e-07
2.53248e-06
-1.58095e-07
2.56735e-06
1.40407e-06
2.58089e-06
5.34987e-07
2.60965e-06
7.43173e-07
2.60385e-06
-2.046e-07
2.59414e-06
-6.08595e-07
2.57072e-06
-9.00258e-07
2.56102e-06
-8.87273e-07
2.53736e-06
-8.91934e-07
2.52956e-06
-7.75755e-07
2.51461e-06
-6.40785e-07
2.50528e-06
-5.20105e-07
2.49851e-06
-4.02311e-07
2.49656e-06
-2.89506e-07
2.49286e-06
-2.17317e-07
2.48663e-06
-1.35281e-07
-9.29636e-08
2.48455e-06
2.65398e-06
-4.38563e-07
2.65764e-06
-1.9165e-07
2.62576e-06
-7.55672e-07
2.62896e-06
-1.61299e-07
2.66407e-06
1.36897e-06
2.67717e-06
5.2189e-07
2.70743e-06
7.12907e-07
2.70075e-06
-1.97917e-07
2.69278e-06
-6.00619e-07
2.66783e-06
-8.75316e-07
2.65855e-06
-8.77992e-07
2.6346e-06
-8.67987e-07
2.62551e-06
-7.66666e-07
2.61112e-06
-6.26393e-07
2.60104e-06
-5.10018e-07
2.59222e-06
-3.93494e-07
2.58577e-06
-2.83051e-07
2.58025e-06
-2.11801e-07
2.58141e-06
-1.3644e-07
-9.13159e-08
2.57976e-06
2.75424e-06
-4.32154e-07
2.75881e-06
-1.96212e-07
2.72674e-06
-7.23603e-07
2.72917e-06
-1.63736e-07
2.76444e-06
1.3337e-06
2.77709e-06
5.09241e-07
2.80891e-06
6.8108e-07
2.80133e-06
-1.90331e-07
2.79492e-06
-5.94211e-07
2.76889e-06
-8.49287e-07
2.75944e-06
-8.68541e-07
2.73588e-06
-8.4443e-07
2.72485e-06
-7.55632e-07
2.71147e-06
-6.13016e-07
2.7004e-06
-4.98949e-07
2.69028e-06
-3.83376e-07
2.68288e-06
-2.75649e-07
2.67707e-06
-2.05992e-07
2.67989e-06
-1.39256e-07
-8.9633e-08
2.67821e-06
2.85838e-06
-4.25078e-07
2.86364e-06
-2.01471e-07
2.83155e-06
-6.91512e-07
2.83327e-06
-1.6546e-07
2.86871e-06
1.29826e-06
2.88083e-06
4.97121e-07
2.91428e-06
6.47638e-07
2.90576e-06
-1.81811e-07
2.90068e-06
-5.89134e-07
2.87404e-06
-8.22647e-07
2.86384e-06
-8.58342e-07
2.84136e-06
-8.21951e-07
2.82767e-06
-7.4194e-07
2.81573e-06
-6.01079e-07
2.80489e-06
-4.88111e-07
2.80123e-06
-3.79715e-07
2.79877e-06
-2.73182e-07
2.79419e-06
-2.0142e-07
2.78258e-06
-1.27643e-07
-8.71486e-08
2.7801e-06
2.96656e-06
-4.17389e-07
2.97231e-06
-2.07225e-07
2.94028e-06
-6.59478e-07
2.94141e-06
-1.66599e-07
2.97715e-06
1.26252e-06
2.98861e-06
4.8566e-07
3.02369e-06
6.12565e-07
3.01423e-06
-1.72356e-07
3.01019e-06
-5.85091e-07
2.98334e-06
-7.95801e-07
2.97205e-06
-8.47054e-07
2.95099e-06
-8.0089e-07
2.93457e-06
-7.25515e-07
2.92376e-06
-5.90271e-07
2.90761e-06
-4.71959e-07
2.89811e-06
-3.70221e-07
2.88855e-06
-2.63621e-07
2.88259e-06
-1.95453e-07
2.88812e-06
-1.33179e-07
-8.52869e-08
2.88626e-06
3.07892e-06
-4.09147e-07
3.08499e-06
-2.133e-07
3.05303e-06
-6.27514e-07
3.05373e-06
-1.67304e-07
3.09001e-06
1.22624e-06
3.10062e-06
4.75056e-07
3.13729e-06
5.75895e-07
3.12693e-06
-1.62002e-07
3.1236e-06
-5.81762e-07
3.0969e-06
-7.69094e-07
3.08433e-06
-8.3449e-07
3.06446e-06
-7.81014e-07
3.04643e-06
-7.07488e-07
3.03606e-06
-5.79903e-07
3.02555e-06
-4.61446e-07
3.02303e-06
-3.67703e-07
3.02003e-06
-2.6062e-07
3.0145e-06
-1.89927e-07
2.99904e-06
-1.17711e-07
-8.23809e-08
2.99613e-06
3.19562e-06
-4.00409e-07
3.20188e-06
-2.1956e-07
3.16997e-06
-5.956e-07
3.17035e-06
-1.67681e-07
3.20751e-06
1.18908e-06
3.21704e-06
4.65522e-07
3.2552e-06
5.37744e-07
3.24405e-06
-1.50855e-07
3.24105e-06
-5.78762e-07
3.21476e-06
-7.42808e-07
3.20114e-06
-8.2087e-07
3.18093e-06
-7.60799e-07
3.1647e-06
-6.91259e-07
3.15183e-06
-5.67028e-07
3.14125e-06
-4.50869e-07
3.12246e-06
-3.48913e-07
3.11312e-06
-2.51278e-07
3.10808e-06
-1.84893e-07
3.11228e-06
-1.21906e-07
-8.13187e-08
3.11122e-06
3.31682e-06
-3.91212e-07
3.32321e-06
-2.25951e-07
3.29128e-06
-5.63675e-07
3.29142e-06
-1.67817e-07
3.32973e-06
1.15076e-06
3.33825e-06
4.57006e-07
3.37737e-06
4.98625e-07
3.3659e-06
-1.39391e-07
3.36247e-06
-5.75326e-07
3.33769e-06
-7.18034e-07
3.32185e-06
-8.05022e-07
3.30297e-06
-7.41923e-07
3.28538e-06
-6.73668e-07
3.26622e-06
-5.47871e-07
3.25093e-06
-4.35581e-07
3.24033e-06
-3.38305e-07
3.23146e-06
-2.42416e-07
3.22617e-06
-1.79599e-07
3.23147e-06
-1.27202e-07
-8.02363e-08
3.23038e-06
3.44265e-06
-3.81585e-07
3.44916e-06
-2.32457e-07
3.41722e-06
-5.31731e-07
3.41705e-06
-1.67646e-07
3.45683e-06
1.11098e-06
3.46431e-06
4.49528e-07
3.50399e-06
4.58944e-07
3.49264e-06
-1.28041e-07
3.48806e-06
-5.70752e-07
3.46597e-06
-6.95941e-07
3.44636e-06
-7.85414e-07
3.43045e-06
-7.26009e-07
3.4067e-06
-6.49918e-07
3.40329e-06
-5.44457e-07
3.3924e-06
-4.24691e-07
3.38862e-06
-3.34531e-07
3.38528e-06
-2.39075e-07
3.37829e-06
-1.7261e-07
3.35755e-06
-1.06455e-07
-7.64124e-08
3.35372e-06
3.5733e-06
-3.71538e-07
3.57993e-06
-2.39085e-07
3.54805e-06
-4.99858e-07
3.54732e-06
-1.66912e-07
3.58901e-06
1.06929e-06
3.59519e-06
4.43346e-07
3.63539e-06
4.18746e-07
3.62399e-06
-1.16637e-07
3.61878e-06
-5.65545e-07
3.59718e-06
-6.74338e-07
3.57843e-06
-7.66666e-07
3.559e-06
-7.06583e-07
3.54008e-06
-6.30995e-07
3.5204e-06
-5.24782e-07
3.50505e-06
-4.09337e-07
3.49148e-06
-3.20965e-07
3.48302e-06
-2.30615e-07
3.47892e-06
-1.6851e-07
3.4844e-06
-1.11937e-07
-7.56452e-08
3.48364e-06
3.70891e-06
-3.61058e-07
3.71572e-06
-2.45904e-07
3.68396e-06
-4.68093e-07
3.68254e-06
-1.65492e-07
3.72607e-06
1.02575e-06
3.73141e-06
4.38012e-07
3.77121e-06
3.78945e-07
3.76086e-06
-1.06284e-07
3.75374e-06
-5.58425e-07
3.73451e-06
-6.55114e-07
3.71411e-06
-7.46262e-07
3.69512e-06
-6.87597e-07
3.6786e-06
-6.14479e-07
3.65481e-06
-5.00991e-07
3.63908e-06
-3.936e-07
3.62541e-06
-3.07302e-07
3.616e-06
-2.21206e-07
3.6118e-06
-1.64308e-07
3.61878e-06
-1.18919e-07
-7.47157e-08
3.61785e-06
3.84968e-06
-3.50145e-07
3.85671e-06
-2.52936e-07
3.82524e-06
-4.36627e-07
3.82282e-06
-1.63068e-07
3.8682e-06
9.80377e-07
3.87295e-06
4.33254e-07
3.91171e-06
3.40187e-07
3.90343e-06
-9.8006e-08
3.89294e-06
-5.47931e-07
3.87842e-06
-6.4059e-07
3.85065e-06
-7.18493e-07
3.83689e-06
-6.73835e-07
3.81047e-06
-5.88062e-07
3.81294e-06
-5.03462e-07
3.80341e-06
-3.84072e-07
3.79956e-06
-3.03448e-07
3.79532e-06
-2.16962e-07
3.78669e-06
-1.55683e-07
3.76197e-06
-9.4201e-08
-6.90301e-08
3.75629e-06
3.99581e-06
-3.38804e-07
4.00302e-06
-2.60144e-07
3.97225e-06
-4.05857e-07
3.96819e-06
-1.5901e-07
4.01586e-06
9.32714e-07
4.01951e-06
4.29596e-07
4.05806e-06
3.0164e-07
4.04972e-06
-8.96669e-08
4.04021e-06
-5.38424e-07
4.02218e-06
-6.2256e-07
4.00295e-06
-6.99256e-07
3.98608e-06
-6.5697e-07
3.96948e-06
-5.71466e-07
3.93909e-06
-4.7307e-07
3.92286e-06
-3.67836e-07
3.90862e-06
-2.89215e-07
3.89985e-06
-2.08187e-07
3.8965e-06
-1.52334e-07
3.90344e-06
-1.01139e-07
-6.83509e-08
3.90276e-06
4.1475e-06
-3.27018e-07
4.15491e-06
-2.67559e-07
4.12499e-06
-3.75933e-07
4.1193e-06
-1.53323e-07
4.16848e-06
8.83539e-07
4.17218e-06
4.25889e-07
4.20897e-06
2.64852e-07
4.20247e-06
-8.31621e-08
4.19177e-06
-5.27731e-07
4.17341e-06
-6.04197e-07
4.15511e-06
-6.80952e-07
4.12565e-06
-6.27514e-07
4.10515e-06
-5.5096e-07
4.08751e-06
-4.55436e-07
4.07337e-06
-3.53699e-07
4.05905e-06
-2.7489e-07
4.04971e-06
-1.98852e-07
4.04598e-06
-1.486e-07
4.05447e-06
-1.09631e-07
-6.74357e-08
4.05356e-06
4.30498e-06
-3.14809e-07
4.31254e-06
-2.75122e-07
4.28379e-06
-3.4718e-07
4.27635e-06
-1.45886e-07
4.32638e-06
8.33511e-07
4.331e-06
4.21271e-07
4.36446e-06
2.31387e-07
4.36232e-06
-8.10241e-08
4.34665e-06
-5.12059e-07
4.33375e-06
-5.91299e-07
4.30409e-06
-6.51288e-07
4.30005e-06
-6.2347e-07
4.28244e-06
-5.33355e-07
4.27344e-06
-4.46433e-07
4.26336e-06
-3.4362e-07
4.26113e-06
-2.7266e-07
4.25618e-06
-1.93904e-07
4.24505e-06
-1.37465e-07
4.21668e-06
-8.12628e-08
-5.91626e-08
4.2084e-06
4.46851e-06
-3.0223e-07
4.47603e-06
-2.82643e-07
4.44915e-06
-3.203e-07
4.43906e-06
-1.358e-07
4.49073e-06
7.81846e-07
4.49496e-06
4.1704e-07
4.52804e-06
1.98309e-07
4.52422e-06
-7.72047e-08
4.51259e-06
-5.00432e-07
4.49252e-06
-5.71225e-07
4.47706e-06
-6.3583e-07
4.44586e-06
-5.92276e-07
4.42594e-06
-5.13436e-07
4.40477e-06
-4.25258e-07
4.39163e-06
-3.3048e-07
4.37737e-06
-2.58403e-07
4.36951e-06
-1.86041e-07
4.36615e-06
-1.34104e-07
4.37397e-06
-8.90793e-08
-5.8405e-08
4.37321e-06
4.63826e-06
-2.89278e-07
4.64575e-06
-2.9014e-07
4.62067e-06
-2.95213e-07
4.60882e-06
-1.23957e-07
4.66018e-06
7.30493e-07
4.66641e-06
4.10806e-07
4.69523e-06
1.69493e-07
4.69519e-06
-7.71671e-08
4.681e-06
-4.86247e-07
4.65967e-06
-5.49894e-07
4.63604e-06
-6.12194e-07
4.6142e-06
-5.70435e-07
4.59681e-06
-4.96054e-07
4.57255e-06
-4.00996e-07
4.56047e-06
-3.184e-07
4.54652e-06
-2.44452e-07
4.53823e-06
-1.77748e-07
4.53409e-06
-1.2997e-07
4.54328e-06
-9.82665e-08
-5.7271e-08
4.54215e-06
4.81453e-06
-2.76017e-07
4.82189e-06
-2.97499e-07
4.79873e-06
-2.72055e-07
4.7856e-06
-1.10829e-07
4.83526e-06
6.80836e-07
4.84549e-06
4.00571e-07
4.8663e-06
1.48681e-07
4.87577e-06
-8.66393e-08
4.84995e-06
-4.60427e-07
4.84553e-06
-5.45475e-07
4.80789e-06
-5.74547e-07
4.79394e-06
-5.56486e-07
4.77461e-06
-4.76722e-07
4.78372e-06
-4.10107e-07
4.77917e-06
-3.13853e-07
4.77901e-06
-2.44288e-07
4.77315e-06
-1.71895e-07
4.75927e-06
-1.16089e-07
4.72698e-06
-6.59699e-08
-4.53712e-08
4.71508e-06
4.99761e-06
-2.62557e-07
5.00451e-06
-3.04395e-07
4.98401e-06
-2.51564e-07
4.96841e-06
-9.52225e-08
5.01871e-06
6.30536e-07
5.02801e-06
3.91274e-07
5.05075e-06
1.25933e-07
5.05464e-06
-9.05209e-08
5.0351e-06
-4.40892e-07
5.01792e-06
-5.28292e-07
4.99206e-06
-5.48685e-07
4.97088e-06
-5.35306e-07
4.95132e-06
-4.57163e-07
4.93107e-06
-3.89856e-07
4.91728e-06
-3.0007e-07
4.90672e-06
-2.33722e-07
4.89561e-06
-1.60787e-07
4.89356e-06
-1.14041e-07
4.90104e-06
-7.3447e-08
-4.46448e-08
4.90031e-06
5.18764e-06
-2.48887e-07
5.19419e-06
-3.1094e-07
5.1756e-06
-2.32978e-07
5.15926e-06
-7.88841e-08
5.20802e-06
5.81781e-07
5.21845e-06
3.80846e-07
5.24094e-06
1.03438e-07
5.24103e-06
-9.06102e-08
5.22785e-06
-4.27706e-07
5.2043e-06
-5.04744e-07
5.18294e-06
-5.27328e-07
5.15743e-06
-5.09795e-07
5.14019e-06
-4.3992e-07
5.12016e-06
-3.69827e-07
5.10761e-06
-2.87525e-07
5.09571e-06
-2.21823e-07
5.09321e-06
-1.58281e-07
5.08831e-06
-1.09146e-07
5.08887e-06
-7.40065e-08
-4.52902e-08
5.08952e-06
5.38501e-06
-2.35118e-07
5.391e-06
-3.16932e-07
5.37426e-06
-2.16234e-07
5.35803e-06
-6.26604e-08
5.40357e-06
5.36241e-07
5.41709e-06
3.67327e-07
5.43526e-06
8.52694e-08
5.43808e-06
-9.34286e-08
5.42015e-06
-4.09781e-07
5.40095e-06
-4.85542e-07
5.37733e-06
-5.03708e-07
5.35367e-06
-4.86134e-07
5.33493e-06
-4.21182e-07
5.31766e-06
-3.52557e-07
5.30441e-06
-2.74272e-07
5.29499e-06
-2.12403e-07
5.29083e-06
-1.54118e-07
5.28698e-06
-1.05297e-07
5.28552e-06
-7.25527e-08
-4.5614e-08
5.28585e-06
5.58996e-06
-2.21341e-07
5.59522e-06
-3.22194e-07
5.58035e-06
-2.01356e-07
5.56444e-06
-4.67573e-08
5.6073e-06
4.93381e-07
5.62217e-06
3.52456e-07
5.63796e-06
6.94826e-08
5.64155e-06
-9.70187e-08
5.62245e-06
-3.90676e-07
5.60415e-06
-4.67249e-07
5.58e-06
-4.79555e-07
5.55745e-06
-4.63589e-07
5.53817e-06
-4.019e-07
5.5224e-06
-3.36785e-07
5.50934e-06
-2.61215e-07
5.50028e-06
-2.03346e-07
5.49397e-06
-1.47802e-07
5.49041e-06
-1.01735e-07
5.48989e-06
-7.2037e-08
-4.57804e-08
5.49006e-06
5.80275e-06
-2.07609e-07
5.80728e-06
-3.26725e-07
5.7939e-06
-1.87978e-07
5.77955e-06
-3.24038e-08
5.81856e-06
4.54371e-07
5.83507e-06
3.3594e-07
5.84807e-06
5.64904e-08
5.85257e-06
-1.01518e-07
5.83271e-06
-3.70824e-07
5.81488e-06
-4.49418e-07
5.79085e-06
-4.55525e-07
5.76932e-06
-4.42058e-07
5.74953e-06
-3.82105e-07
5.73471e-06
-3.21967e-07
5.72199e-06
-2.48499e-07
5.71278e-06
-1.94128e-07
5.70748e-06
-1.42504e-07
5.70549e-06
-9.97518e-08
5.70231e-06
-6.88481e-08
-4.55014e-08
5.70203e-06
6.02371e-06
-1.94021e-07
6.02735e-06
-3.30359e-07
6.01549e-06
-1.76123e-07
6.00262e-06
-1.95327e-08
6.03821e-06
4.18785e-07
6.05567e-06
3.18476e-07
6.06629e-06
4.58654e-08
6.07112e-06
-1.0634e-07
6.05152e-06
-3.51226e-07
6.03358e-06
-4.31483e-07
6.01012e-06
-4.32059e-07
5.98897e-06
-4.2091e-07
5.96929e-06
-3.62424e-07
5.95495e-06
-3.07633e-07
5.94275e-06
-2.36299e-07
5.93353e-06
-1.84905e-07
5.92746e-06
-1.36433e-07
5.92311e-06
-9.54036e-08
5.92277e-06
-6.85035e-08
-4.50383e-08
5.9223e-06
6.25314e-06
-1.80662e-07
6.25576e-06
-3.3298e-07
6.24539e-06
-1.65752e-07
6.23378e-06
-7.92131e-09
6.26655e-06
3.86014e-07
6.28436e-06
3.00668e-07
6.29322e-06
3.70009e-08
6.29764e-06
-1.10752e-07
6.2788e-06
-3.3239e-07
6.26065e-06
-4.13331e-07
6.23784e-06
-4.09257e-07
6.21701e-06
-4.00073e-07
6.19776e-06
-3.43179e-07
6.18355e-06
-2.93424e-07
6.17201e-06
-2.24757e-07
6.16293e-06
-1.75823e-07
6.15831e-06
-1.31812e-07
6.15605e-06
-9.31424e-08
6.1521e-06
-6.45588e-08
-4.39304e-08
6.151e-06
6.49137e-06
-1.6763e-07
6.49281e-06
-3.34419e-07
6.48398e-06
-1.56923e-07
6.47343e-06
2.63089e-09
6.50388e-06
3.55565e-07
6.52164e-06
2.82903e-07
6.5292e-06
2.94432e-08
6.53261e-06
-1.14158e-07
6.51481e-06
-3.14588e-07
6.49641e-06
-3.94935e-07
6.47447e-06
-3.87322e-07
6.45389e-06
-3.79488e-07
6.43519e-06
-3.24483e-07
6.42076e-06
-2.7899e-07
6.41001e-06
-2.14003e-07
6.40085e-06
-1.66672e-07
6.39442e-06
-1.25375e-07
6.38984e-06
-8.85634e-08
6.38976e-06
-6.44805e-08
-4.29636e-08
6.38879e-06
6.73872e-06
-1.55007e-07
6.73883e-06
-3.34535e-07
6.73158e-06
-1.4967e-07
6.722e-06
1.22096e-08
6.75053e-06
3.27036e-07
6.76812e-06
2.65308e-07
6.77432e-06
2.32488e-08
6.77659e-06
-1.16426e-07
6.75988e-06
-2.97878e-07
6.74141e-06
-3.76469e-07
6.72005e-06
-3.65962e-07
6.6998e-06
-3.59235e-07
6.68156e-06
-3.06247e-07
6.66707e-06
-2.64497e-07
6.65711e-06
-2.04046e-07
6.64804e-06
-1.576e-07
6.64338e-06
-1.20713e-07
6.64091e-06
-8.6099e-08
6.63712e-06
-6.06947e-08
-4.14357e-08
6.6356e-06
6.99554e-06
-1.42901e-07
6.99408e-06
-3.33075e-07
6.98859e-06
-1.44176e-07
6.97989e-06
2.09084e-08
7.00695e-06
2.99981e-07
7.0241e-06
2.48158e-07
7.0291e-06
1.82491e-08
7.03017e-06
-1.17495e-07
7.01415e-06
-2.81864e-07
6.99566e-06
-3.5798e-07
6.97499e-06
-3.45291e-07
6.95526e-06
-3.395e-07
6.93779e-06
-2.88783e-07
6.92305e-06
-2.49756e-07
6.91356e-06
-1.94549e-07
6.90474e-06
-1.48787e-07
6.89832e-06
-1.14288e-07
6.8938e-06
-8.15771e-08
6.89309e-06
-5.99916e-08
-4.03832e-08
6.89204e-06
7.26217e-06
-1.31381e-07
7.25893e-06
-3.2983e-07
7.25531e-06
-1.40564e-07
7.24753e-06
2.86973e-08
7.27508e-06
2.72424e-07
7.29001e-06
2.33229e-07
7.29368e-06
1.45825e-08
7.29358e-06
-1.17396e-07
7.27802e-06
-2.66306e-07
7.25989e-06
-3.39851e-07
7.23984e-06
-3.25242e-07
7.22045e-06
-3.20104e-07
7.20363e-06
-2.71973e-07
7.18868e-06
-2.34799e-07
7.17958e-06
-1.85456e-07
7.17122e-06
-1.40427e-07
7.16613e-06
-1.09197e-07
7.1632e-06
-7.86483e-08
7.15979e-06
-5.65806e-08
-3.90433e-08
7.15845e-06
7.53898e-06
-1.20528e-07
7.5338e-06
-3.24649e-07
7.53192e-06
-1.38688e-07
7.52548e-06
3.51413e-08
7.55251e-06
2.45391e-07
7.56502e-06
2.20716e-07
7.56855e-06
1.10546e-08
7.56737e-06
-1.16216e-07
7.55192e-06
-2.50855e-07
7.53413e-06
-3.22064e-07
7.51477e-06
-3.0588e-07
7.49571e-06
-3.01039e-07
7.47985e-06
-2.56111e-07
7.46486e-06
-2.19809e-07
7.45585e-06
-1.76448e-07
7.44797e-06
-1.3255e-07
7.44152e-06
-1.02748e-07
7.43714e-06
-7.4266e-08
7.43595e-06
-5.5395e-08
-3.79571e-08
7.43487e-06
7.82629e-06
-1.10368e-07
7.81967e-06
-3.18021e-07
7.81842e-06
-1.37445e-07
7.81446e-06
3.91021e-08
7.83231e-06
2.27547e-07
7.84873e-06
2.04289e-07
7.8543e-06
5.48522e-09
7.85172e-06
-1.13631e-07
7.83628e-06
-2.3542e-07
7.81896e-06
-3.04745e-07
7.80035e-06
-2.87263e-07
7.78144e-06
-2.82134e-07
7.76645e-06
-2.41123e-07
7.75165e-06
-2.05008e-07
7.74242e-06
-1.6722e-07
7.73513e-06
-1.25256e-07
7.72994e-06
-9.75627e-08
7.72697e-06
-7.12936e-08
7.72333e-06
-5.17533e-08
-3.66048e-08
7.72198e-06
8.12456e-06
-1.00964e-07
8.11623e-06
-3.09691e-07
8.11539e-06
-1.36613e-07
8.11536e-06
3.91313e-08
8.13938e-06
2.03533e-07
8.16237e-06
1.81299e-07
8.15434e-06
1.35166e-08
8.14685e-06
-1.06146e-07
8.13172e-06
-2.20286e-07
8.11476e-06
-2.87788e-07
8.09704e-06
-2.69535e-07
8.0783e-06
-2.63399e-07
8.06414e-06
-2.26961e-07
8.04979e-06
-1.90665e-07
8.0402e-06
-1.57626e-07
8.03334e-06
-1.18392e-07
8.02719e-06
-9.14129e-08
8.02307e-06
-6.71775e-08
8.0212e-06
-4.98865e-08
-3.53946e-08
8.01999e-06
8.43419e-06
-9.23932e-08
8.4226e-06
-2.98105e-07
8.42519e-06