/*--------------------------------*- C++ -*----------------------------------*\
| =========                 |                                                 |
| \\      /  F ield         | OpenFOAM: The Open Source CFD Toolbox           |
|  \\    /   O peration     | Version:  v2012                                 |
|   \\  /    A nd           | Website:  www.openfoam.com                      |
|    \\/     M anipulation  |                                                 |
\*---------------------------------------------------------------------------*/
FoamFile
{
    version     2.0;
    format      ascii;
    class       volVectorField;
    location    "6.9";
    object      U;
}
// * * * * * * * * * * * * * * * * * * * * * * * * * * * * * * * * * * * * * //

dimensions      [0 1 -1 0 0 0 0];


internalField   nonuniform List<vector> 
7000
(
(0.951313 -0.00515559 0)
(1.00793 -0.0011616 0)
(0.999075 -0.010059 0)
(1.02066 0.00183588 0)
(1.04456 0.0252384 0)
(1.03874 0.0110165 0)
(0.979559 0.0182637 0)
(1.06888 -0.00527449 0)
(0.918951 -0.0230134 0)
(1.09826 -0.0294721 0)
(0.832925 -0.0390144 0)
(1.11326 -0.0335008 0)
(0.812958 -0.0350932 0)
(1.13168 -0.0252941 0)
(0.84142 -0.0269321 0)
(1.13885 -0.0160424 0)
(0.871061 -0.0159379 0)
(1.14054 -0.00823663 0)
(0.887362 -0.00749537 0)
(1.13984 -0.00219957 0)
(0.956663 -0.00499725 0)
(1.00529 -0.00137201 0)
(1.00313 -0.0101493 0)
(1.02145 0.00164662 0)
(1.04533 0.02505 0)
(1.03568 0.0114511 0)
(0.990167 0.0179374 0)
(1.04575 -0.00459423 0)
(0.972768 -0.023502 0)
(1.04349 -0.028054 0)
(0.917741 -0.0394572 0)
(1.04924 -0.0329012 0)
(0.894626 -0.0357576 0)
(1.06924 -0.0256812 0)
(0.914972 -0.0272935 0)
(1.07469 -0.0167836 0)
(0.945908 -0.0158689 0)
(1.06521 -0.00912396 0)
(0.973654 -0.00707053 0)
(1.04709 -0.00284756 0)
(0.965226 -0.00484603 0)
(0.999987 -0.00159506 0)
(1.00873 -0.0102545 0)
(1.02251 0.00139428 0)
(1.04674 0.0249152 0)
(1.03205 0.0118872 0)
(1.00359 0.0178439 0)
(1.03388 -0.00453619 0)
(0.999416 -0.0232171 0)
(1.01551 -0.0277453 0)
(0.958354 -0.0392692 0)
(1.0012 -0.0327967 0)
(0.948776 -0.0359003 0)
(1.013 -0.0261794 0)
(0.970274 -0.0272638 0)
(1.01886 -0.0176259 0)
(0.995347 -0.0155212 0)
(1.0153 -0.0101109 0)
(1.0122 -0.00635744 0)
(1.00916 -0.00356981 0)
(0.975337 -0.00471184 0)
(0.992617 -0.00179362 0)
(1.01389 -0.0103927 0)
(1.02312 0.00116609 0)
(1.04804 0.0248886 0)
(1.02987 0.0121939 0)
(1.01574 0.0178436 0)
(1.02876 -0.00452423 0)
(1.0155 -0.0228764 0)
(1.00061 -0.0274226 0)
(0.979644 -0.0387476 0)
(0.975941 -0.0329312 0)
(0.972902 -0.0358089 0)
(0.982933 -0.0268555 0)
(0.991337 -0.0272019 0)
(0.993874 -0.0184251 0)
(1.00918 -0.0153098 0)
(1.00028 -0.0108166 0)
(1.01852 -0.00590515 0)
(1.00295 -0.00388192 0)
(0.985495 -0.00457788 0)
(0.984826 -0.00197635 0)
(1.01687 -0.0105781 0)
(1.02283 0.000971271 0)
(1.04841 0.0248757 0)
(1.02927 0.0124079 0)
(1.02464 0.0178624 0)
(1.02811 -0.00455829 0)
(1.0226 -0.0223979 0)
(0.997362 -0.0271879 0)
(0.986969 -0.0381213 0)
(0.96968 -0.0331227 0)
(0.978014 -0.0356229 0)
(0.97479 -0.0275148 0)
(0.992479 -0.0272041 0)
(0.989176 -0.0191446 0)
(1.00725 -0.0152766 0)
(1.00097 -0.011413 0)
(1.01568 -0.00569928 0)
(1.00708 -0.00410522 0)
(0.994399 -0.00444327 0)
(0.978632 -0.00213606 0)
(1.01677 -0.0108044 0)
(1.02135 0.000784479 0)
(1.04745 0.0248314 0)
(1.02903 0.0125675 0)
(1.03065 0.0178728 0)
(1.02867 -0.00456178 0)
(1.02595 -0.0219025 0)
(0.999062 -0.0269285 0)
(0.988981 -0.0374448 0)
(0.971898 -0.0332581 0)
(0.976424 -0.0353956 0)
(0.975739 -0.0281186 0)
(0.988022 -0.027234 0)
(0.990303 -0.0198514 0)
(1.00243 -0.0153558 0)
(1.00376 -0.0120446 0)
(1.01254 -0.00565046 0)
(1.01145 -0.00437372 0)
(1.00124 -0.00431391 0)
(0.975383 -0.00225862 0)
(1.01384 -0.0110531 0)
(1.01841 0.000588409 0)
(1.04517 0.0247652 0)
(1.02796 0.0126815 0)
(1.03477 0.0178753 0)
(1.02888 -0.004543 0)
(1.02819 -0.0214088 0)
(1.00185 -0.0266488 0)
(0.99041 -0.0367535 0)
(0.975634 -0.0333388 0)
(0.974659 -0.0351303 0)
(0.977585 -0.0286848 0)
(0.984253 -0.0272527 0)
(0.990627 -0.0205729 0)
(0.998722 -0.0154967 0)
(1.0042 -0.0127225 0)
(1.01045 -0.00572403 0)
(1.01308 -0.00471821 0)
(1.00582 -0.00419679 0)
(0.975191 -0.00233543 0)
(1.00921 -0.0112965 0)
(1.01372 0.000379036 0)
(1.04171 0.0246846 0)
(1.02538 0.0127442 0)
(1.03782 0.0178652 0)
(1.02824 -0.00451024 0)
(1.03027 -0.0209269 0)
(1.00414 -0.0263606 0)
(0.992575 -0.0360347 0)
(0.978581 -0.033376 0)
(0.974317 -0.0348084 0)
(0.978097 -0.0292283 0)
(0.982115 -0.0272418 0)
(0.989275 -0.0212947 0)
(0.996242 -0.0156798 0)
(1.00253 -0.0134091 0)
(1.00875 -0.00590989 0)
(1.0124 -0.00512618 0)
(1.00846 -0.00409709 0)
(0.977192 -0.00236638 0)
(1.00426 -0.0115043 0)
(1.00723 0.000157152 0)
(1.03703 0.0245844 0)
(1.02119 0.0127463 0)
(1.04009 0.0178355 0)
(1.02685 -0.00447398 0)
(1.03225 -0.0204597 0)
(1.00567 -0.0260785 0)
(0.995445 -0.0352893 0)
(0.980791 -0.0333795 0)
(0.975083 -0.0344206 0)
(0.977671 -0.0297465 0)
(0.980844 -0.0271989 0)
(0.987043 -0.0219994 0)
(0.994232 -0.0159004 0)
(0.999932 -0.0140722 0)
(1.00689 -0.0061961 0)
(1.01058 -0.00557252 0)
(1.00963 -0.00401659 0)
(0.980236 -0.00235832 0)
(1.00002 -0.0116521 0)
(0.999408 -6.91464e-05 0)
(1.03101 0.0244603 0)
(1.0157 0.0126768 0)
(1.04155 0.0177749 0)
(1.02499 -0.00444183 0)
(1.03388 -0.0200073 0)
(1.00648 -0.0258144 0)
(0.998602 -0.0345223 0)
(0.982647 -0.0333475 0)
(0.976441 -0.0339655 0)
(0.976993 -0.0302191 0)
(0.979737 -0.0271279 0)
(0.984508 -0.0226697 0)
(0.992082 -0.0161613 0)
(0.997057 -0.0147024 0)
(1.00461 -0.00657348 0)
(1.00831 -0.00603976 0)
(1.00978 -0.00395369 0)
(0.983473 -0.00232209 0)
(0.996921 -0.0117268 0)
(0.991262 -0.000284614 0)
(1.02383 0.0243123 0)
(1.00968 0.0125251 0)
(1.04212 0.017672 0)
(1.02304 -0.00441819 0)
(1.03488 -0.0195675 0)
(1.00671 -0.0255774 0)
(1.00165 -0.0337439 0)
(0.984347 -0.033279 0)
(0.978124 -0.0334489 0)
(0.976466 -0.0306203 0)
(0.978567 -0.0270284 0)
(0.981854 -0.0232843 0)
(0.989501 -0.0164741 0)
(0.993905 -0.0152895 0)
(1.00173 -0.00704589 0)
(1.00562 -0.00653245 0)
(1.00926 -0.00390501 0)
(0.986508 -0.00226896 0)
(0.994874 -0.0117267 0)
(0.984011 -0.000480585 0)
(1.01631 0.0241404 0)
(1.00427 0.0122881 0)
(1.04174 0.0175217 0)
(1.02134 -0.00440385 0)
(1.03506 -0.0191355 0)
(1.00653 -0.025374 0)
(1.00423 -0.032965 0)
(0.985917 -0.0331773 0)
(0.979981 -0.0328795 0)
(0.976272 -0.0309279 0)
(0.977422 -0.0268943 0)
(0.97916 -0.0238149 0)
(0.986466 -0.0168339 0)
(0.990272 -0.015828 0)
(0.998109 -0.00760616 0)
(1.00219 -0.00705593 0)
(1.0083 -0.00386706 0)
(0.98926 -0.0022077 0)
(0.993547 -0.0116602 0)
(0.978669 -0.000634776 0)
(1.00966 0.0239433 0)
(1.0006 0.0119759 0)
(1.04042 0.0173281 0)
(1.02022 -0.00439603 0)
(1.03431 -0.018705 0)
(1.00621 -0.0252061 0)
(1.00605 -0.0321946 0)
(0.987335 -0.0330488 0)
(0.981843 -0.0322737 0)
(0.976488 -0.0311244 0)
(0.976491 -0.0267189 0)
(0.976592 -0.0242298 0)
(0.983145 -0.0172131 0)
(0.986092 -0.0163087 0)
(0.993676 -0.00821808 0)
(0.997729 -0.00759834 0)
(1.00714 -0.00383713 0)
(0.991738 -0.0021439 0)
(0.992618 -0.0115413 0)
(0.975678 -0.000751045 0)
(1.00487 0.0237187 0)
(0.999258 0.0116126 0)
(1.0382 0.0171032 0)
(1.01984 -0.00439011 0)
(1.03264 -0.0182695 0)
(1.00598 -0.0250721 0)
(1.00691 -0.0314373 0)
(0.988589 -0.0329014 0)
(0.983503 -0.0316526 0)
(0.977097 -0.0312012 0)
(0.975909 -0.0265001 0)
(0.974387 -0.0245021 0)
(0.97983 -0.017569 0)
(0.981567 -0.016707 0)
(0.988569 -0.00884142 0)
(0.992225 -0.00813392 0)
(1.00599 -0.00381339 0)
(0.993915 -0.00208042 0)
(0.991916 -0.0113856 0)
(0.974819 -0.000856385 0)
(1.00214 0.0234641 0)
(1.00006 0.0112305 0)
(1.03516 0.0168623 0)
(1.02014 -0.00438228 0)
(1.03021 -0.0178245 0)
(1.00605 -0.0249668 0)
(1.00682 -0.0306948 0)
(0.989696 -0.0327416 0)
(0.984787 -0.0310379 0)
(0.977985 -0.031159 0)
(0.9757 -0.0262459 0)
(0.972746 -0.0246103 0)
(0.976835 -0.0178624 0)
(0.977116 -0.0169859 0)
(0.983158 -0.00943696 0)
(0.986046 -0.00863182 0)
(1.00499 -0.00379459 0)
(0.995729 -0.00201843 0)
(0.991405 -0.0112066 0)
(0.975408 -0.000955634 0)
(1.00091 0.023179 0)
(1.00218 0.0108606 0)
(1.03152 0.016617 0)
(1.02092 -0.0043709 0)
(1.02733 -0.0173705 0)
(1.00648 -0.02488 0)
(1.00593 -0.0299698 0)
(0.990678 -0.0325715 0)
(0.985624 -0.0304527 0)
(0.978973 -0.031006 0)
(0.975795 -0.0259682 0)
(0.971752 -0.0245555 0)
(0.974412 -0.018068 0)
(0.973215 -0.0171171 0)
(0.97797 -0.0099503 0)
(0.979839 -0.00904388 0)
(1.00423 -0.00377961 0)
(0.997124 -0.00195857 0)
(0.991111 -0.0110135 0)
(0.97664 -0.00105367 0)
(1.00031 0.0228653 0)
(1.00464 0.0105228 0)
(1.02764 0.0163711 0)
(1.02187 -0.00435631 0)
(1.0244 -0.0169124 0)
(1.00718 -0.0248 0)
(1.00455 -0.0292621 0)
(0.991545 -0.0323905 0)
(0.986073 -0.0299156 0)
(0.979882 -0.0307602 0)
(0.97609 -0.0256762 0)
(0.971353 -0.0243632 0)
(0.972686 -0.0181725 0)
(0.970233 -0.0171028 0)
(0.973538 -0.0103267 0)
(0.974312 -0.00931328 0)
(1.00371 -0.0037673 0)
(0.998101 -0.00190149 0)
(0.991044 -0.0108114 0)
(0.977885 -0.00114934 0)
(0.999648 0.0225267 0)
(1.00665 0.0102224 0)
(1.02394 0.016121 0)
(1.02272 -0.00434008 0)
(1.02177 -0.0164559 0)
(1.00796 -0.0247173 0)
(1.00302 -0.0285715 0)
(0.99229 -0.0321909 0)
(0.986275 -0.0294385 0)
(0.980592 -0.0304349 0)
(0.976498 -0.0253943 0)
(0.971405 -0.0240539 0)
(0.971661 -0.018185 0)
(0.968321 -0.0169635 0)
(0.970239 -0.0105533 0)
(0.970007 -0.00942725 0)
(1.00341 -0.00375642 0)
(0.998714 -0.00184804 0)
(0.991169 -0.0106015 0)
(0.978813 -0.00123887 0)
(0.998713 0.0221682 0)
(1.00788 0.00995343 0)
(1.02078 0.0158597 0)
(1.02334 -0.00432495 0)
(1.01968 -0.016005 0)
(1.00867 -0.0246207 0)
(1.00163 -0.0279051 0)
(0.992908 -0.0319597 0)
(0.986389 -0.0290191 0)
(0.981067 -0.0300387 0)
(0.976974 -0.0251444 0)
(0.971741 -0.0236571 0)
(0.971254 -0.0181138 0)
(0.967409 -0.0167365 0)
(0.968206 -0.0106607 0)
(0.967155 -0.00939912 0)
(1.00325 -0.00374576 0)
(0.99905 -0.00179924 0)
(0.991427 -0.0103829 0)
(0.979356 -0.00131923 0)
(0.99765 0.0217942 0)
(1.00839 0.00970463 0)
(1.01835 0.0155816 0)
(1.02367 -0.00431197 0)
(1.01819 -0.0155648 0)
(1.00919 -0.0244969 0)
(1.00055 -0.0272718 0)
(0.993403 -0.0316831 0)
(0.986533 -0.0286546 0)
(0.981343 -0.0295811 0)
(0.9775 -0.0249212 0)
(0.972217 -0.0232196 0)
(0.971328 -0.0179771 0)
(0.967274 -0.0164332 0)
(0.967331 -0.0106745 0)
(0.96568 -0.00925941 0)
(1.00317 -0.00373427 0)
(0.999198 -0.00175601 0)
(0.991761 -0.0101536 0)
(0.979593 -0.00139025 0)
(0.99672 0.021408 0)
(1.00841 0.00946597 0)
(1.01663 0.015282 0)
(1.02377 -0.00429579 0)
(1.01722 -0.0151405 0)
(1.00949 -0.0243372 0)
(0.99985 -0.0266781 0)
(0.993786 -0.0313472 0)
(0.986759 -0.0283434 0)
(0.981489 -0.029076 0)
(0.97806 -0.0247176 0)
(0.972733 -0.022767 0)
(0.971734 -0.0178016 0)
(0.967643 -0.016079 0)
(0.967335 -0.0106115 0)
(0.965289 -0.00904674 0)
(1.00313 -0.00372111 0)
(0.999231 -0.00171903 0)
(0.992135 -0.00991152 0)
(0.979651 -0.00145442 0)
(0.996091 0.0210115 0)
(1.00819 0.00923138 0)
(1.01544 0.0149577 0)
(1.02368 -0.00427347 0)
(1.01662 -0.0147313 0)
(1.00961 -0.0241319 0)
(0.999488 -0.0261368 0)
(0.994072 -0.0309465 0)
(0.987071 -0.0280706 0)
(0.981576 -0.0285361 0)
(0.978633 -0.0245249 0)
(0.973237 -0.0223132 0)
(0.972324 -0.0176021 0)
(0.968278 -0.0157203 0)
(0.967888 -0.0105023 0)
(0.965616 -0.00879336 0)
(1.0031 -0.00370558 0)
(0.999197 -0.00168918 0)
(0.992534 -0.00965512 0)
(0.979648 -0.00151518 0)
(0.995764 0.0206048 0)
(1.00791 0.0090005 0)
(1.01459 0.0146106 0)
(1.02346 -0.00424702 0)
(1.01624 -0.0143437 0)
(1.00958 -0.0238625 0)
(0.999396 -0.0256552 0)
(0.994272 -0.0304819 0)
(0.987445 -0.02783 0)
(0.981659 -0.0279601 0)
(0.979185 -0.0243252 0)
(0.973712 -0.0218748 0)
(0.97297 -0.0173938 0)
(0.969006 -0.0153826 0)
(0.968692 -0.0103752 0)
(0.966327 -0.00852989 0)
(1.00305 -0.0036869 0)
(0.999125 -0.00166763 0)
(0.992951 -0.0093837 0)
(0.979676 -0.00157533 0)
(0.995627 0.0201883 0)
(1.00765 0.00877119 0)
(1.01388 0.0142432 0)
(1.02313 -0.00420704 0)
(1.01598 -0.0139897 0)
(1.00945 -0.0235329 0)
(0.999496 -0.0252204 0)
(0.994395 -0.0299483 0)
(0.987848 -0.0276147 0)
(0.98177 -0.0273646 0)
(0.979683 -0.024116 0)
(0.974158 -0.0214419 0)
(0.973575 -0.0171573 0)
(0.969726 -0.0150881 0)
(0.969532 -0.0102669 0)
(0.967173 -0.00827105 0)
(1.00299 -0.00366446 0)
(0.999028 -0.00165519 0)
(0.993377 -0.0090981 0)
(0.979807 -0.00163552 0)
(0.99553 0.0197627 0)
(1.00742 0.00854549 0)
(1.01321 0.0138475 0)
(1.02269 -0.00414509 0)
(1.01577 -0.01366 0)
(1.00924 -0.0231528 0)
(0.999719 -0.0248491 0)
(0.994452 -0.0293409 0)
(0.988254 -0.0273996 0)
(0.981922 -0.026759 0)
(0.980102 -0.023892 0)
(0.974587 -0.0210585 0)
(0.974075 -0.0168598 0)
(0.970378 -0.0147531 0)
(0.970282 -0.0101969 0)
(0.968002 -0.00805227 0)
(1.0029 -0.00363786 0)
(0.998911 -0.00165234 0)
(0.993794 -0.0087998 0)
(0.980088 -0.00169413 0)
(0.995363 0.0193257 0)
(1.00721 0.00833366 0)
(1.01254 0.0134242 0)
(1.02215 -0.00407914 0)
(1.01559 -0.0133674 0)
(1.00898 -0.0226919 0)
(1.00001 -0.0245445 0)
(0.994461 -0.0287009 0)
(0.988637 -0.0271833 0)
(0.982116 -0.0261449 0)
(0.980426 -0.0235791 0)
(0.975009 -0.0207285 0)
(0.974458 -0.0166368 0)
(0.970932 -0.014325 0)
(0.970869 -0.0100749 0)
(0.968729 -0.00787132 0)
(1.0028 -0.00360636 0)
(0.998779 -0.00166001 0)
(0.994175 -0.00849069 0)
(0.980547 -0.00174788 0)
(0.99507 0.0188787 0)
(1.00699 0.00812569 0)
(1.01185 0.0129938 0)
(1.02151 -0.00400124 0)
(1.01543 -0.0131328 0)
(1.00869 -0.0221855 0)
(1.00032 -0.024233 0)
(0.994442 -0.0280413 0)
(0.988983 -0.0269679 0)
(0.982354 -0.0255712 0)
(0.980657 -0.0232145 0)
(0.975407 -0.020286 0)
(0.97473 -0.0164847 0)
(0.971408 -0.0140195 0)
(0.971274 -0.00989989 0)
(0.969308 -0.00766809 0)
(1.0027 -0.00356892 0)
(0.998638 -0.0016799 0)
(0.994485 -0.00817088 0)
(0.981185 -0.00180153 0)
(0.994653 0.0184384 0)
(1.00675 0.00790831 0)
(1.01118 0.0125425 0)
(1.02079 -0.00389525 0)
(1.01527 -0.0128891 0)
(1.00839 -0.02169 0)
(1.00061 -0.0239439 0)
(0.994414 -0.0273197 0)
(0.989275 -0.0266893 0)
(0.982624 -0.0250417 0)
(0.980825 -0.022836 0)
(0.975788 -0.0199418 0)
(0.974878 -0.0160629 0)
(0.971817 -0.0138462 0)
(0.971552 -0.00984178 0)
(0.969747 -0.00747926 0)
(1.00261 -0.00352657 0)
(0.998501 -0.00170844 0)
(0.994694 -0.00784722 0)
(0.981975 -0.00184545 0)
(0.994152 0.0179854 0)
(1.0065 0.0077232 0)
(1.01056 0.0120363 0)
(1.02 -0.00376574 0)
(1.01511 -0.0127073 0)
(1.0081 -0.0210734 0)
(1.00087 -0.0237383 0)
(0.994401 -0.0265989 0)
(0.989506 -0.0263848 0)
(0.982916 -0.0244637 0)
(0.980928 -0.0224166 0)
(0.976182 -0.0196178 0)
(0.974964 -0.0157423 0)
(0.972106 -0.0134472 0)
(0.971722 -0.0097466 0)
(0.970078 -0.00734754 0)
(1.00253 -0.00347836 0)
(0.998382 -0.00174562 0)
(0.994782 -0.00752346 0)
(0.982872 -0.00186847 0)
(0.993626 0.0175126 0)
(1.00623 0.00754632 0)
(1.01001 0.0115181 0)
(1.01916 -0.00360899 0)
(1.01495 -0.0126316 0)
(1.00781 -0.0204048 0)
(1.00106 -0.0235128 0)
(0.994412 -0.0258448 0)
(0.989691 -0.0261321 0)
(0.983224 -0.0238636 0)
(0.981007 -0.0220649 0)
(0.976543 -0.0190065 0)
(0.975037 -0.0156705 0)
(0.972383 -0.0130001 0)
(0.971798 -0.00957803 0)
(0.970325 -0.00724118 0)
(1.00246 -0.0034211 0)
(0.998295 -0.00179717 0)
(0.994746 -0.00718915 0)
(0.98382 -0.00190946 0)
(0.993135 0.0170826 0)
(1.00597 0.00732666 0)
(1.00956 0.0110112 0)
(1.01832 -0.00346824 0)
(1.01477 -0.0124703 0)
(1.00755 -0.0198271 0)
(1.0012 -0.0232457 0)
(0.994447 -0.0251202 0)
(0.989827 -0.0256513 0)
(0.983543 -0.0234578 0)
(0.981095 -0.0214357 0)
(0.97691 -0.0189193 0)
(0.975099 -0.0150819 0)
(0.972677 -0.0126752 0)
(0.971873 -0.0095667 0)
(0.970537 -0.00712355 0)
(1.00241 -0.00336915 0)
(0.998245 -0.00183111 0)
(0.994602 -0.00688234 0)
(0.98476 -0.00189951 0)
(0.992734 0.0165842 0)
(1.00575 0.00720993 0)
(1.00921 0.0103707 0)
(1.0175 -0.00325119 0)
(1.01454 -0.0124063 0)
(1.00729 -0.0191674 0)
(1.00128 -0.022953 0)
(0.994529 -0.0245528 0)
(0.989916 -0.0250575 0)
(0.983896 -0.0230172 0)
(0.981153 -0.02092 0)
(0.977302 -0.0184051 0)
(0.975259 -0.0150162 0)
(0.972863 -0.0123266 0)
(0.97194 -0.00911031 0)
(0.970779 -0.0068827 0)
(1.00236 -0.00330052 0)
(0.99823 -0.00189817 0)
(0.994384 -0.00653372 0)
(0.985638 -0.00193027 0)
(0.99246 0.0161523 0)
(1.00557 0.00700431 0)
(1.00896 0.0098395 0)
(1.01671 -0.00315003 0)
(1.01428 -0.0122736 0)
(1.00706 -0.0186006 0)
(1.0013 -0.0224993 0)
(0.994632 -0.024083 0)
(0.990011 -0.0243929 0)
(0.984237 -0.0226452 0)
(0.981321 -0.0203154 0)
(0.977656 -0.0179813 0)
(0.975419 -0.0146648 0)
(0.973322 -0.0123339 0)
(0.972121 -0.00883635 0)
(0.970989 -0.00662897 0)
(1.00233 -0.00322358 0)
(0.998249 -0.0019696 0)
(0.994128 -0.0062014 0)
(0.986427 -0.00195635 0)
(0.992322 0.0157034 0)
(1.00544 0.00682947 0)
(1.00879 0.00925563 0)
(1.01597 -0.00293191 0)
(1.01398 -0.0122038 0)
(1.00682 -0.0179629 0)
(1.00126 -0.0221875 0)
(0.994757 -0.0233178 0)
(0.990095 -0.0238695 0)
(0.984621 -0.022205 0)
(0.981477 -0.0196779 0)
(0.9781 -0.0178399 0)
(0.975663 -0.0138194 0)
(0.973616 -0.0118739 0)
(0.972414 -0.00878949 0)
(0.971315 -0.00646799 0)
(1.00229 -0.00317454 0)
(0.99829 -0.00197949 0)
(0.993878 -0.00593783 0)
(0.987114 -0.0018767 0)
(0.992307 0.015097 0)
(1.00535 0.00684281 0)
(1.00868 0.00841971 0)
(1.01527 -0.00251902 0)
(1.01365 -0.0123496 0)
(1.00657 -0.0171398 0)
(1.0012 -0.0220168 0)
(0.994878 -0.0226082 0)
(0.990191 -0.0234053 0)
(0.985008 -0.0214019 0)
(0.981717 -0.0195437 0)
(0.978551 -0.0167895 0)
(0.976016 -0.0140976 0)
(0.974026 -0.0109383 0)
(0.97271 -0.00843814 0)
(0.9717 -0.00658517 0)
(1.00224 -0.00308253 0)
(0.99835 -0.00207477 0)
(0.99366 -0.00554822 0)
(0.987713 -0.00194952 0)
(0.992387 0.0147132 0)
(1.00529 0.00659189 0)
(1.00858 0.0079589 0)
(1.01462 -0.00259121 0)
(1.01327 -0.0119931 0)
(1.00633 -0.0168665 0)
(1.00107 -0.0212477 0)
(0.995032 -0.0223628 0)
(0.990332 -0.022529 0)
(0.985379 -0.0210425 0)
(0.982043 -0.0187299 0)
(0.979033 -0.0165785 0)
(0.976485 -0.0133963 0)
(0.974653 -0.0111734 0)
(0.973044 -0.00827341 0)
(0.972134 -0.00623979 0)
(1.00219 -0.0029919 0)
(0.998409 -0.00214869 0)
(0.993503 -0.00522165 0)
(0.988232 -0.00195046 0)
(0.992539 0.0141807 0)
(1.00524 0.00647832 0)
(1.00848 0.00733974 0)
(1.014 -0.00233732 0)
(1.01285 -0.0118918 0)
(1.00609 -0.0164119 0)
(1.00094 -0.0206295 0)
(0.995152 -0.0217631 0)
(0.990468 -0.0218828 0)
(0.985817 -0.020678 0)
(0.98237 -0.0179179 0)
(0.979592 -0.016276 0)
(0.976897 -0.012493 0)
(0.975094 -0.0110234 0)
(0.973654 -0.00804726 0)
(0.972676 -0.0058835 0)
(1.00214 -0.00294947 0)
(0.99846 -0.00214439 0)
(0.993412 -0.00497079 0)
(0.98869 -0.00183906 0)
(0.992741 0.0134682 0)
(1.00516 0.00657658 0)
(1.00837 0.00637922 0)
(1.01339 -0.00177715 0)
(1.01243 -0.0121339 0)
(1.00583 -0.0154718 0)
(1.00079 -0.0205747 0)
(0.995268 -0.0209393 0)
(0.990643 -0.0213936 0)
(0.986246 -0.0197554 0)
(0.982804 -0.0177272 0)
(0.98016 -0.015162 0)
(0.97746 -0.0129865 0)
(0.975687 -0.00984859 0)
(0.974187 -0.00777882 0)
(0.973263 -0.00625464 0)
(1.00207 -0.00283001 0)
(0.998511 -0.00226479 0)
(0.993372 -0.0045768 0)
(0.989123 -0.00190973 0)
(0.992957 0.0130557 0)
(1.00506 0.00632846 0)
(1.00822 0.00600466 0)
(1.01281 -0.00204522 0)
(1.01198 -0.0115258 0)
(1.00558 -0.0155432 0)
(1.00061 -0.0195544 0)
(0.995409 -0.0206661 0)
(0.990834 -0.0204502 0)
(0.986654 -0.0193927 0)
(0.983284 -0.0169122 0)
(0.980705 -0.0150698 0)
(0.978131 -0.0122272 0)
(0.976494 -0.0101475 0)
(0.97467 -0.00751392 0)
(0.97387 -0.0057186 0)
(1.00201 -0.00273219 0)
(0.998542 -0.00234099 0)
(0.993391 -0.00424417 0)
(0.989537 -0.00190424 0)
(0.993185 0.0124811 0)
(1.00493 0.0062386 0)
(1.00803 0.00541238 0)
(1.01225 -0.0018757 0)
(1.01149 -0.0112478 0)
(1.00534 -0.0152177 0)
(1.00046 -0.0188021 0)
(0.995507 -0.0202981 0)
(0.991036 -0.0196791 0)
(0.987124 -0.0189037 0)
(0.983733 -0.0161492 0)
(0.981356 -0.0148274 0)
(0.978676 -0.0112303 0)
(0.977059 -0.0101267 0)
(0.975516 -0.00723481 0)
(0.974543 -0.00519619 0)
(1.00195 -0.00269205 0)
(0.998558 -0.00232653 0)
(0.993449 -0.0040357 0)
(0.989931 -0.00172238 0)
(0.993434 0.0116187 0)
(1.00476 0.00642478 0)
(1.00783 0.00442867 0)
(1.01167 -0.00125342 0)
(1.01103 -0.0115332 0)
(1.00508 -0.0142688 0)
(1.00028 -0.0188065 0)
(0.995618 -0.019271 0)
(0.991276 -0.019339 0)
(0.987528 -0.0178496 0)
(0.984222 -0.0160232 0)
(0.981961 -0.0135934 0)
(0.979334 -0.0117078 0)
(0.977738 -0.00870415 0)
(0.976194 -0.00706941 0)
(0.975239 -0.00579407 0)
(1.00188 -0.00254686 0)
(0.998582 -0.00246813 0)
(0.993519 -0.00365817 0)
(0.990339 -0.00173869 0)
(0.993671 0.0111693 0)
(1.00458 0.00614184 0)
(1.00761 0.00416371 0)
(1.01111 -0.00170211 0)
(1.01052 -0.0108209 0)
(1.00484 -0.0142762 0)
(1.00014 -0.0178057 0)
(0.995733 -0.0190199 0)
(0.991516 -0.0185032 0)
(0.987984 -0.0174096 0)
(0.98482 -0.0151377 0)
(0.982584 -0.0135073 0)
(0.980152 -0.0109776 0)
(0.978618 -0.00908836 0)
(0.976693 -0.0067256 0)
(0.975901 -0.00504785 0)
(1.00182 -0.0024405 0)
(0.998596 -0.00255492 0)
(0.993614 -0.00332629 0)
(0.990743 -0.00169967 0)
(0.993911 0.0105748 0)
(1.00439 0.00604537 0)
(1.00734 0.00366055 0)
(1.01057 -0.00161439 0)
(1.01003 -0.0104517 0)
(1.00461 -0.0140069 0)
(0.999961 -0.0170342 0)
(0.995841 -0.0185868 0)
(0.991789 -0.0177838 0)
(0.988441 -0.0168992 0)
(0.985244 -0.0143137 0)
(0.983206 -0.0131929 0)
(0.980693 -0.00998174 0)
(0.979227 -0.00907287 0)
(0.977729 -0.00628249 0)
(0.97663 -0.00428365 0)
(1.00176 -0.00241154 0)
(0.998602 -0.00250172 0)
(0.993723 -0.00322618 0)
(0.991128 -0.00136349 0)
(0.994181 0.00956639 0)
(1.00417 0.00629472 0)
(1.0071 0.00277775 0)
(1.01002 -0.00103375 0)
(1.00954 -0.0107881 0)
(1.00436 -0.0129688 0)
(0.999846 -0.0170025 0)
(0.995922 -0.017367 0)
(0.992047 -0.0175895 0)
(0.988884 -0.0158741 0)
(0.985811 -0.0144168 0)
(0.983843 -0.0119426 0)
(0.981419 -0.0104399 0)
(0.979958 -0.00752252 0)
(0.978446 -0.00624556 0)
(0.977323 -0.00509113 0)
(1.00168 -0.00221936 0)
(0.998637 -0.00270394 0)
(0.993821 -0.0028272 0)
(0.991531 -0.00141665 0)
(0.994423 0.00923551 0)
(1.00398 0.00582443 0)
(1.00685 0.00269306 0)
(1.00949 -0.00164109 0)
(1.00907 -0.00989291 0)
(1.00414 -0.0130487 0)
(0.999694 -0.0158739 0)
(0.996044 -0.0171341 0)
(0.992345 -0.0166246 0)
(0.989338 -0.0156524 0)
(0.98642 -0.0137463 0)
(0.984486 -0.0121631 0)
(0.98227 -0.00957403 0)
(0.980851 -0.007713 0)
(0.978958 -0.00590776 0)
(0.978003 -0.00420092 0)
(1.0016 -0.00214652 0)
(0.998675 -0.00272555 0)
(0.993925 -0.00263487 0)
(0.99194 -0.0012136 0)
(0.994674 0.00853777 0)
(1.00378 0.00576564 0)
(1.00656 0.00235384 0)
(1.00902 -0.00187744 0)
(1.00855 -0.00922509 0)
(1.00394 -0.0129982 0)
(0.999576 -0.0148615 0)
(0.996147 -0.0167536 0)
(0.99259 -0.0156801 0)
(0.989778 -0.0154015 0)
(0.986878 -0.0132409 0)
(0.985224 -0.0120034 0)
(0.982967 -0.0090942 0)
(0.981432 -0.00773929 0)
(0.980024 -0.00481175 0)
(0.978762 -0.00307701 0)
(1.00155 -0.00208002 0)
(0.998693 -0.00271533 0)
(0.994062 -0.0025276 0)
(0.9923 -0.000904936 0)
(0.994952 0.00770938 0)
(1.00357 0.00578229 0)
(1.0063 0.00175239 0)
(1.00853 -0.00149606 0)
(1.0081 -0.00928157 0)
(1.00373 -0.01217 0)
(0.999456 -0.0145912 0)
(0.99625 -0.0157022 0)
(0.992877 -0.0153159 0)
(0.990157 -0.0146148 0)
(0.987477 -0.0129968 0)
(0.985841 -0.0111648 0)
(0.983745 -0.00926915 0)
(0.982531 -0.00666751 0)
(0.980878 -0.00485437 0)
(0.979228 -0.0036715 0)
(1.00148 -0.00187744 0)
(0.998738 -0.00290974 0)
(0.994186 -0.00220817 0)
(0.992678 -0.000901231 0)
(0.995206 0.00732947 0)
(1.00336 0.00537297 0)
(1.00607 0.00160513 0)
(1.00806 -0.00172546 0)
(1.00762 -0.00886413 0)
(1.00353 -0.011805 0)
(0.999394 -0.0138219 0)
(0.996364 -0.0149754 0)
(0.99312 -0.0147842 0)
(0.990599 -0.0140286 0)
(0.988026 -0.0122166 0)
(0.986538 -0.010764 0)
(0.984662 -0.00844465 0)
(0.983222 -0.00647846 0)
(0.981489 -0.00540677 0)
(0.979947 -0.00377867 0)
(1.00141 -0.00185679 0)
(0.99879 -0.00284032 0)
(0.994325 -0.00216045 0)
(0.993038 -0.000561948 0)
(0.995461 0.00658417 0)
(1.00317 0.00533473 0)
(1.0058 0.00125049 0)
(1.00761 -0.00182021 0)
(1.0072 -0.0083962 0)
(1.00337 -0.0113043 0)
(0.999305 -0.0131519 0)
(0.996437 -0.0144009 0)
(0.993394 -0.014151 0)
(0.99106 -0.0132859 0)
(0.988604 -0.0116551 0)
(0.987229 -0.010115 0)
(0.985401 -0.00829873 0)
(0.983923 -0.00662855 0)
(0.982313 -0.0051677 0)
(0.980698 -0.00360463 0)
(1.00134 -0.00169521 0)
(0.998849 -0.00294379 0)
(0.99447 -0.00196351 0)
(0.993394 -0.000474075 0)
(0.995713 0.00618073 0)
(1.00297 0.00500539 0)
(1.00555 0.00101231 0)
(1.0072 -0.00180749 0)
(1.00676 -0.00801306 0)
(1.00318 -0.0109409 0)
(0.99924 -0.0125653 0)
(0.996556 -0.0137105 0)
(0.99369 -0.0133863 0)
(0.991518 -0.0126815 0)
(0.989177 -0.0110501 0)
(0.987848 -0.00976232 0)
(0.986131 -0.00811185 0)
(0.984706 -0.00631555 0)
(0.983078 -0.00493942 0)
(0.981378 -0.00364194 0)
(1.00127 -0.00160291 0)
(0.998916 -0.0029659 0)
(0.994625 -0.0018625 0)
(0.993742 -0.000268079 0)
(0.995958 0.00562136 0)
(1.00279 0.00479242 0)
(1.0053 0.000861562 0)
(1.00679 -0.00197533 0)
(1.00634 -0.00763976 0)
(1.00303 -0.0104385 0)
(0.999191 -0.0118508 0)
(0.996662 -0.0130636 0)
(0.993963 -0.0127489 0)
(0.991976 -0.0121787 0)
(0.989723 -0.010565 0)
(0.988464 -0.00933589 0)
(0.986911 -0.0077227 0)
(0.985464 -0.00607315 0)
(0.983806 -0.00480822 0)
(0.982056 -0.00360455 0)
(1.0012 -0.00149262 0)
(0.998986 -0.0029996 0)
(0.994794 -0.00173244 0)
(0.994075 -0.000160395 0)
(0.996207 0.00523075 0)
(1.00262 0.00453206 0)
(1.00504 0.000651445 0)
(1.00641 -0.00207288 0)
(1.00595 -0.00715638 0)
(1.00288 -0.0100055 0)
(0.999137 -0.0113129 0)
(0.996769 -0.012461 0)
(0.994246 -0.0120635 0)
(0.992427 -0.0115906 0)
(0.990314 -0.00998642 0)
(0.9891 -0.00881272 0)
(0.987627 -0.00740814 0)
(0.986204 -0.00590688 0)
(0.984536 -0.00472124 0)
(0.982722 -0.00358309 0)
(1.00114 -0.00138599 0)
(0.999063 -0.00301198 0)
(0.994968 -0.00164509 0)
(0.99441 -1.83805e-05 0)
(0.996448 0.00481123 0)
(1.00244 0.00425676 0)
(1.00479 0.000551139 0)
(1.00605 -0.00211609 0)
(1.00557 -0.00681838 0)
(1.00272 -0.00964844 0)
(0.999111 -0.0106808 0)
(0.996905 -0.0117419 0)
(0.994533 -0.0113863 0)
(0.99289 -0.0110479 0)
(0.990879 -0.00954473 0)
(0.98967 -0.00842279 0)
(0.988335 -0.00716986 0)
(0.986925 -0.00571696 0)
(0.985247 -0.00456559 0)
(0.983404 -0.00345365 0)
(1.00107 -0.00128601 0)
(0.999139 -0.0030188 0)
(0.995161 -0.00155657 0)
(0.994726 8.73724e-05 0)
(0.996689 0.00440782 0)
(1.0023 0.00402696 0)
(1.00453 0.000434427 0)
(1.0057 -0.0021905 0)
(1.00521 -0.00647462 0)
(1.0026 -0.00916043 0)
(0.999116 -0.0100626 0)
(0.997019 -0.0111673 0)
(0.994792 -0.0108125 0)
(0.993309 -0.0105343 0)
(0.991466 -0.00909839 0)
(0.990279 -0.00793719 0)
(0.989029 -0.0068108 0)
(0.987681 -0.00544291 0)
(0.986 -0.00439034 0)
(0.984069 -0.00336005 0)
(1.00101 -0.00118447 0)
(0.999222 -0.00302114 0)
(0.995355 -0.00148712 0)
(0.995045 0.000182584 0)
(0.996926 0.00407547 0)
(1.00214 0.0037463 0)
(1.00429 0.000333757 0)
(1.00538 -0.00222604 0)
(1.00488 -0.00610974 0)
(1.00248 -0.00870975 0)
(0.9991 -0.00954548 0)
(0.997151 -0.010579 0)
(0.995084 -0.0101574 0)
(0.993769 -0.00992026 0)
(0.992064 -0.00863742 0)
(0.990856 -0.00750258 0)
(0.989704 -0.00650682 0)
(0.98837 -0.00525624 0)
(0.986669 -0.00430454 0)
(0.984721 -0.00328808 0)
(1.00094 -0.00108847 0)
(0.999301 -0.00299703 0)
(0.995569 -0.00145365 0)
(0.995352 0.000286863 0)
(0.997155 0.00369315 0)
(1.00202 0.00353644 0)
(1.00404 0.000280851 0)
(1.00506 -0.00221196 0)
(1.00455 -0.00579725 0)
(1.00237 -0.00831734 0)
(0.999132 -0.00900898 0)
(0.997297 -0.00994822 0)
(0.995364 -0.00954135 0)
(0.994156 -0.00935466 0)
(0.992634 -0.00830506 0)
(0.991446 -0.00710021 0)
(0.990344 -0.00620003 0)
(0.989077 -0.00503438 0)
(0.987415 -0.00411972 0)
(0.98541 -0.0031491 0)
(1.00088 -0.000998378 0)
(0.999386 -0.00295443 0)
(0.995784 -0.00141766 0)
(0.995657 0.000378229 0)
(0.997385 0.00336177 0)
(1.00189 0.00329913 0)
(1.0038 0.000210101 0)
(1.00477 -0.00217657 0)
(1.00425 -0.00547044 0)
(1.00227 -0.00788016 0)
(0.999155 -0.00846976 0)
(0.997444 -0.00938771 0)
(0.995652 -0.00899467 0)
(0.994559 -0.00879137 0)
(0.993222 -0.0078912 0)
(0.992045 -0.00667603 0)
(0.990988 -0.00585618 0)
(0.989755 -0.00476604 0)
(0.988083 -0.00394381 0)
(0.986045 -0.00307986 0)
(1.00082 -0.000928503 0)
(0.999466 -0.00288181 0)
(0.996017 -0.00142579 0)
(0.995945 0.00045533 0)
(0.997602 0.00303309 0)
(1.0018 0.00314041 0)
(1.00357 0.000102998 0)
(1.00448 -0.0021347 0)
(1.00395 -0.00515311 0)
(1.00218 -0.00746194 0)
(0.999204 -0.00795743 0)
(0.997592 -0.00882917 0)
(0.995944 -0.00847567 0)
(0.994923 -0.00819311 0)
(0.993781 -0.00750306 0)
(0.992641 -0.00633004 0)
(0.991602 -0.00555133 0)
(0.990426 -0.00454822 0)
(0.988769 -0.00380002 0)
(0.986712 -0.0029876 0)
(1.00076 -0.000834958 0)
(0.999545 -0.00284338 0)
(0.996242 -0.00137945 0)
(0.996244 0.000426336 0)
(0.997833 0.00281105 0)
(1.00169 0.00279776 0)
(1.00333 0.000143521 0)
(1.00422 -0.00204623 0)
(1.00369 -0.00479815 0)
(1.00211 -0.0070335 0)
(0.999268 -0.00747661 0)
(0.997758 -0.0082835 0)
(0.996274 -0.00798298 0)
(0.995316 -0.00761124 0)
(0.994331 -0.00708704 0)
(0.993253 -0.00598821 0)
(0.992232 -0.00521907 0)
(0.991068 -0.00432237 0)
(0.989408 -0.00360163 0)
(0.987346 -0.00287346 0)
(1.0007 -0.000760105 0)
(0.999621 -0.00275483 0)
(0.996487 -0.00140368 0)
(0.996531 0.000463255 0)
(0.99803 0.00251049 0)
(1.00163 0.00254851 0)
(1.00315 0.000220493 0)
(1.00397 -0.00195224 0)
(1.00342 -0.0044645 0)
(1.00202 -0.00662225 0)
(0.999323 -0.00698634 0)
(0.997891 -0.0076956 0)
(0.996572 -0.00750494 0)
(0.995653 -0.00705301 0)
(0.994825 -0.00665937 0)
(0.993841 -0.00565379 0)
(0.992819 -0.00492472 0)
(0.991707 -0.00409906 0)
(0.990065 -0.00338442 0)
(0.987985 -0.00275547 0)
(1.00064 -0.000709389 0)
(0.999695 -0.00261977 0)
(0.996721 -0.00143577 0)
(0.996813 0.000462721 0)
(0.998247 0.0022761 0)
(1.00158 0.00243189 0)
(1.00296 0.00013954 0)
(1.00373 -0.00187599 0)
(1.00318 -0.00412834 0)
(1.00194 -0.00620676 0)
(0.999391 -0.00653369 0)
(0.998024 -0.0071376 0)
(0.996883 -0.00707336 0)
(0.996023 -0.00655905 0)
(0.995306 -0.0062059 0)
(0.994421 -0.00535733 0)
(0.993427 -0.0046228 0)
(0.992345 -0.00387106 0)
(0.990677 -0.00320374 0)
(0.988583 -0.00265218 0)
(1.00059 -0.000645904 0)
(0.999761 -0.00248237 0)
(0.996956 -0.00145622 0)
(0.997097 0.000499263 0)
(0.998454 0.00207367 0)