/*--------------------------------*- C++ -*----------------------------------*\
| =========                 |                                                 |
| \\      /  F ield         | OpenFOAM: The Open Source CFD Toolbox           |
|  \\    /   O peration     | Version:  v2012                                 |
|   \\  /    A nd           | Website:  www.openfoam.com                      |
|    \\/     M anipulation  |                                                 |
\*---------------------------------------------------------------------------*/
FoamFile
{
    version     2.0;
    format      ascii;
    class       volScalarField;
    location    "2.1";
    object      p;
}
// * * * * * * * * * * * * * * * * * * * * * * * * * * * * * * * * * * * * * //

dimensions      [0 2 -2 0 0 0 0];


internalField   nonuniform List<scalar> 
7000
(
9.37137e-11
0.000496559
-0.00501373
4.89114e-05
0.00285315
0.00410633
0.00702657
0.00915908
0.00694113
0.0080556
0.00696004
0.00907203
0.00736648
0.00975782
0.00963386
0.0120541
0.0125814
0.0157813
0.0177648
0.0229882
-7.18033e-06
0.000498072
-0.00500311
5.19509e-05
0.00284181
0.00411096
0.00702957
0.00914485
0.00694199
0.00804479
0.00696377
0.00906614
0.00737922
0.00975336
0.00964748
0.0120423
0.0126031
0.0157583
0.0177904
0.0227638
-1.60553e-05
0.0005008
-0.00499278
5.03091e-05
0.00282244
0.00412322
0.00702141
0.00913294
0.00693913
0.0080401
0.00697363
0.00905264
0.00740395
0.00974153
0.00967012
0.0120194
0.0126364
0.0157131
0.0178145
0.0223842
-2.59979e-05
0.00050404
-0.00497924
4.544e-05
0.00280252
0.00413784
0.00701361
0.00912398
0.00693398
0.00803901
0.0069876
0.00903382
0.00743891
0.00972386
0.00969865
0.0119889
0.0126761
0.0156529
0.0178195
0.0219838
-3.75578e-05
0.000508255
-0.00495876
4.10428e-05
0.00278315
0.00415288
0.00700498
0.0091153
0.00692812
0.00803837
0.00700448
0.00901086
0.00748043
0.00970152
0.00973116
0.0119535
0.0127193
0.0155829
0.0178081
0.0216028
-5.04936e-05
0.000513777
-0.00492835
3.9045e-05
0.0027639
0.00416841
0.00699656
0.00910568
0.00692256
0.00803626
0.00702403
0.00898417
0.00752645
0.00967525
0.00976725
0.0119141
0.0127647
0.0155065
0.0177821
0.0212471
-6.41932e-05
0.000520644
-0.00488694
4.02458e-05
0.00274491
0.00418442
0.00698868
0.00909448
0.00691779
0.00803162
0.00704647
0.0089537
0.00757626
0.0096452
0.00980681
0.0118712
0.0128112
0.0154256
0.0177417
0.0209127
-7.79507e-05
0.000528677
-0.00483523
4.525e-05
0.00272642
0.0042006
0.00698105
0.00908119
0.00691381
0.00802383
0.00707189
0.00891924
0.0076297
0.00961139
0.00984946
0.0118252
0.0128571
0.0153417
0.0176865
0.0205955
-9.1197e-05
0.000537617
-0.00477471
5.41985e-05
0.00270825
0.00421629
0.00697285
0.00906519
0.00691048
0.00801245
0.0071002
0.00888072
0.00768665
0.00957393
0.00989446
0.011777
0.0129002
0.0152565
0.0176165
0.0202931
-0.000103624
0.000547272
-0.00470663
6.66095e-05
0.00268993
0.00423064
0.00696305
0.00904571
0.00690762
0.00799701
0.00713134
0.0088382
0.00774689
0.00953303
0.00994078
0.0117274
0.012938
0.0151715
0.0175317
0.0200039
-0.000115186
0.000557607
-0.00463137
8.18586e-05
0.00267125
0.0042428
0.00695066
0.00902193
0.00690521
0.00797704
0.00716532
0.00879183
0.00781004
0.00948908
0.00998722
0.0116779
0.0129681
0.0150874
0.0174325
0.0197265
-0.000126012
0.000568737
-0.00454856
9.97574e-05
0.0026526
0.00425219
0.006935
0.00899313
0.00690341
0.00795208
0.00720223
0.00874181
0.00787551
0.00944272
0.0100322
0.0116297
0.0129884
0.0150049
0.0173194
0.0194587
-0.000136302
0.000580831
-0.00445762
0.000120651
0.00263483
0.00425862
0.00691592
0.00895888
0.0069025
0.00792172
0.00724213
0.00868839
0.00794251
0.00939497
0.010074
0.0115843
0.0129975
0.0149232
0.0171932
0.0191983
-0.000146246
0.000594003
-0.0043583
0.000145067
0.00261878
0.00426229
0.00689385
0.00891905
0.00690284
0.00788567
0.00728501
0.00863192
0.00800997
0.00934714
0.0101106
0.0115424
0.0129946
0.0148415
0.0170547
0.0189428
-0.00015598
0.000608238
-0.00425102
0.000173274
0.00260493
0.00426362
0.00686964
0.00887376
0.00690481
0.00784371
0.00733072
0.00857287
0.00807651
0.00930072
0.0101403
0.0115044
0.0129791
0.0147583
0.0169047
0.0186899
-0.000165577
0.000623403
-0.00413684
0.000205062
0.00259322
0.00426297
0.00684431
0.00882329
0.00690869
0.00779578
0.00737901
0.00851191
0.00814043
0.00925726
0.0101617
0.0114706
0.012951
0.0146712
0.0167443
0.0184372
-0.000175066
0.000639296
-0.00401712
0.000239828
0.00258321
0.00426051
0.00681886
0.00876803
0.00691466
0.00774201
0.00742941
0.00845003
0.00819971
0.00921832
0.0101735
0.0114403
0.0129113
0.0145781
0.0165741
0.0181826
-0.000184445
0.000655723
-0.00389316
0.000276815
0.00257432
0.00425627
0.00679416
0.00870831
0.00692274
0.00768264
0.00748124
0.00838862
0.00825224
0.00918513
0.0101752
0.0114121
0.0128613
0.0144771
0.0163941
0.0179246
-0.000193696
0.000672532
-0.00376598
0.00031532
0.00256607
0.00425016
0.00677081
0.00864442
0.00693282
0.00761812
0.00753348
0.0083295
0.00829607
0.00915838
0.0101668
0.0113842
0.0128023
0.0143667
0.0162043
0.0176625
-0.000202789
0.000689627
-0.0036362
0.000354801
0.0025582
0.00424202
0.00674921
0.0085766
0.00694467
0.00754912
0.00758472
0.00827459
0.00832971
0.0091382
0.0101487
0.0113543
0.0127354
0.0142464
0.0160048
0.0173948
-0.000211684
0.000706958
-0.00350409
0.00039489
0.00255068
0.00423167
0.00672963
0.00850504
0.00695796
0.00747667
0.00763325
0.00822565
0.00835215
0.00912408
0.0101221
0.0113198
0.0126611
0.0141165
0.0157964
0.0171211
-0.000220332
0.000724499
-0.00336972
0.00043536
0.00254358
0.00421893
0.00671217
0.00843
0.00697215
0.00740209
0.00767729
0.00818407
0.00836289
0.00911487
0.0100887
0.0112791
0.0125791
0.0139761
0.0155798
0.0168422
-0.000228674
0.000742228
-0.00323299
0.000476071
0.00253707
0.00420362
0.00669689
0.00835183
0.00698645
0.00732703
0.0077152
0.0081508
0.00836178
0.00910872
0.0100499
0.011231
0.0124904
0.0138238
0.0153538
0.0165595
-0.000236637
0.000760122
-0.00309378
0.000516934
0.0025314
0.00418557
0.00668374
0.00827104
0.00699983
0.00725323
0.00774557
0.00812637
0.00834926
0.00910358
0.0100073
0.0111734
0.0123969
0.0136619
0.015117
0.0162726
-0.000244136
0.000778137
-0.00295197
0.000557882
0.00252675
0.0041647
0.00667255
0.00818833
0.00701101
0.00718228
0.00776738
0.00811059
0.00832622
0.00909717
0.00996344
0.0111033
0.0122968
0.0134954
0.0148713
0.0159801
-0.00025107
0.000796218
-0.0028075
0.000598863
0.00252332
0.00414097
0.00666304
0.00810476
0.0070186
0.00711524
0.00778017
0.00810281
0.00829405
0.00908584
0.00992111
0.0110218
0.0121849
0.013325
0.0146221
0.0156832
-0.00025733
0.000814297
-0.00266031
0.000639816
0.00252127
0.00411445
0.00665473
0.00802147
0.00702158
0.00705266
0.00778366
0.00810212
0.00825503
0.00906578
0.00987858
0.0109341
0.0120615
0.0131454
0.0143707
0.0153864
-0.000262796
0.000832279
-0.00251038
0.000680698
0.00252067
0.00408533
0.0066471
0.00793944
0.00701898
0.0069952
0.00777761
0.00810716
0.00821087
0.0090363
0.00983173
0.0108401
0.0119344
0.0129579
0.0141116
0.0150902
-0.000267326
0.000850052
-0.00235771
0.000721482
0.0025216
0.00405382
0.00663946
0.00786023
0.00700942
0.00694319
0.00776241
0.00811671
0.00816163
0.00899762
0.00977867
0.0107355
0.011805
0.0127735
0.0138473
0.014787
-0.000270773
0.000867517
-0.00220233
0.000762099
0.00252416
0.00402035
0.00663033
0.00778541
0.00699271
0.00689632
0.00773798
0.00812975
0.00810857
0.00894903
0.00971854
0.0106176
0.0116617
0.0125991
0.0135999
0.014474
-0.000272978
0.000884571
-0.0020443
0.00079391
0.00252828
0.00398538
0.00661886
0.0077156
0.00696848
0.00685446
0.00770629
0.00814176
0.0080558
0.00888692
0.00965773
0.0104851
0.0114886
0.0124325
0.0133827
0.014155
-0.000273827
0.000901134
-0.00188368
0.000834642
0.00253362
0.00394947
0.00660438
0.00765149
0.0069373
0.00681352
0.00767365
0.00814681
0.00800824
0.00880742
0.00959504
0.0103558
0.0112899
0.0122396
0.0131567
0.0138529
-0.000273134
0.000916987
-0.00172039
0.000875804
0.00254009
0.00391332
0.00658628
0.00759211
0.00690255
0.00676916
0.00764273
0.00814354
0.00796652
0.00871682
0.00951643
0.0102318
0.011096
0.0119764
0.0128893
0.0135971
-0.00027049
0.000931987
-0.00155467
0.000916616
0.00254768
0.00387718
0.00656427
0.00753758
0.00686224
0.00672609
0.00760922
0.0081359
0.00792258
0.00862315
0.00943059
0.0100862
0.0108967
0.0117069
0.0125429
0.0133563
-0.000266121
0.000946401
-0.00138706
0.000958956
0.00255498
0.00384286
0.00653486
0.00749214
0.00681427
0.00668394
0.00757225
0.00812977
0.00786926
0.00852309
0.00933676
0.00991886
0.010643
0.0114708
0.0123149
0.0131046
-0.000259896
0.000959776
-0.00121739
0.00100277
0.00256185
0.00381064
0.00649939
0.00745136
0.0067652
0.0066349
0.00753682
0.00812058
0.00781496
0.00840261
0.00921502
0.00975038
0.0103841
0.0112217
0.0121812
0.012863
-0.000250715
0.000971769
-0.00104611
0.00104666
0.00256919
0.00377945
0.00646113
0.00740927
0.00671843
0.00658122
0.00749919
0.00810656
0.00776304
0.00826366
0.00906806
0.00957731
0.0102032
0.0109504
0.0117756
0.0126178
-0.000239487
0.000983117
-0.000874442
0.00109383
0.00257426
0.0037524
0.00641204
0.00737912
0.00666638
0.00652651
0.00745536
0.00809299
0.0077041
0.00810996
0.00890387
0.00939862
0.00997642
0.0107034
0.0115266
0.0123697
-0.000225859
0.000993226
-0.000702319
0.0011442
0.00257687
0.00372926
0.0063563
0.00735089
0.00661744
0.00646329
0.00740915
0.00807333
0.0076431
0.00794415
0.00872348
0.00921762
0.00971542
0.010452
0.0114435
0.0121373
-0.000208203
0.00100173
-0.000530324
0.00119542
0.00257973
0.00370628
0.00630518
0.00730418
0.0065845
0.00638956
0.00735367
0.00804726
0.00758335
0.00777643
0.00854328
0.0090244
0.00952773
0.0101238
0.0109436
0.011908
-0.000188713
0.00100984
-0.000360145
0.00125182
0.0025793
0.00368702
0.00624464
0.00726665
0.00654709
0.00631772
0.00728334
0.00801868
0.00751548
0.00761005
0.00835563
0.00882491
0.00926785
0.00983303
0.0106595
0.0116741
-0.000166053
0.00101669
-0.000191647
0.00131313
0.00257585
0.00367093
0.00617792
0.00723198
0.00650727
0.00624575
0.00720346
0.00797598
0.00745023
0.00744553
0.00816011
0.00860196
0.00894169
0.00958345
0.0105951
0.0114299
-0.000138412
0.00102211
-2.57108e-05
0.00137691
0.0025729
0.00365349
0.00611911
0.00717768
0.00647589
0.00616847
0.00711258
0.00791714
0.00739758
0.00727782
0.00796323
0.00839918
0.00875762
0.00919518
0.00997273
0.0111832
-0.000108875
0.0010278
0.000135811
0.00144655
0.00256837
0.0036368
0.00605478
0.00712857
0.00644075
0.00608728
0.00701058
0.00785208
0.00734665
0.00710529
0.00774917
0.00823261
0.00849429
0.00878113
0.00959588
0.0109821
-7.50839e-05
0.00103281
0.000293493
0.00152077
0.00256282
0.00361995
0.00598692
0.00708041
0.00639965
0.00600636
0.00689804
0.00777628
0.00729389
0.0069372
0.0075321
0.00804075
0.00818705
0.00845507
0.00930883
0.0107193
-3.66098e-05
0.00103742
0.000446218
0.00159809
0.00255956
0.00360095
0.00592037
0.0070256
0.00636045
0.00592302
0.0067724
0.00769
0.00724273
0.00677984
0.00729862
0.0077949
0.00794767
0.00820507
0.00894615
0.0104172
5.0722e-06
0.00104275
0.000592737
0.0016793
0.00255948
0.00357968
0.00584937
0.0069696
0.00632165
0.00583284
0.00663859
0.00759402
0.00719086
0.00663162
0.0070307
0.00755577
0.00773958
0.00793384
0.0086315
0.0101416
5.12151e-05
0.00104836
0.000733483
0.00176334
0.00256254
0.00355643
0.00579955
0.00690817
0.00627976
0.00574402
0.00649732
0.00748136
0.00713818
0.00648746
0.0067637
0.00730622
0.00751633
0.00769367
0.0083409
0.00987216
0.000101657
0.00105509
0.000867601
0.00184848
0.00257002
0.00353268
0.00572152
0.00683951
0.00623916
0.00565746
0.00634458
0.00735383
0.00708085
0.00635572
0.00649686
0.00703661
0.00728912
0.00747371
0.00809482
0.0096221
0.000156365
0.00106302
0.000994648
0.00193467
0.00258249
0.00350796
0.00563867
0.0067658
0.00619725
0.0055707
0.00618524
0.00721329
0.00701381
0.00623725
0.00623414
0.00675368
0.00705631
0.00726196
0.00788715
0.00939535
0.000215537
0.00107244
0.00111502
0.00202089
0.00259871
0.00348347
0.00555311
0.00668346
0.00615073
0.00548949
0.00602284
0.00705624
0.00693554
0.00612718
0.005987
0.00645441
0.00680885
0.00707188
0.00770177
0.00918345
0.000279058
0.00108403
0.00122818
0.00210573
0.00261884
0.00346135
0.00546225
0.0065917
0.00610138
0.00541483
0.00585616
0.00688205
0.00684415
0.00602671
0.0057526
0.00614738
0.00655564
0.00688024
0.00753751
0.00899573
0.000347001
0.00109779
0.00133423
0.00218912
0.00264193
0.00344048
0.00536911
0.00649241
0.00604752
0.00534508
0.00568841
0.00669255
0.0067406
0.00592853
0.00553803
0.00584151
0.00628635
0.00668539
0.0073791
0.00882681
0.000419211
0.00111442
0.00143352
0.00227014
0.00266604
0.0034213
0.00527507
0.00638585
0.0059881
0.00528031
0.00552292
0.00648794
0.00662134
0.00583131
0.00534102
0.00554104
0.00600503
0.00647905
0.00722912
0.00867705
0.000495672
0.00113431
0.00152563
0.00234803
0.00269117
0.00340539
0.00518025
0.00627274
0.00592224
0.00521857
0.0053621
0.00626823
0.0064849
0.00573428
0.0051606
0.00525291
0.00571211
0.00625909
0.00707841
0.0085379
0.000576203
0.00115795
0.00161088
0.00242262
0.00271592
0.00339094
0.00508542
0.00615506
0.00584993
0.00515833
0.00520966
0.00603686
0.00632959
0.00563505
0.00499519
0.00497962
0.00541322
0.0060244
0.00691669
0.00840193
0.000660543
0.0011858
0.00168947
0.00249349
0.00273976
0.0033748
0.00499046
0.00603459
0.00577235
0.00509798
0.00506693
0.0057973
0.00615209
0.00553084
0.00484144
0.00472476
0.00511592
0.00577135
0.00673691
0.00826584
0.000748336
0.00121824
0.00176184
0.0025604
0.00276268
0.00335444
0.00489415
0.00591272
0.0056909
0.00503579
0.00493355
0.00555408
0.00595185
0.00541817
0.00470009
0.00449137
0.00482277
0.00550191
0.00653806
0.0081242
0.000839273
0.00125583
0.00182871
0.0026231
0.00278438
0.00332876
0.00479434
0.00579052
0.00560804
0.00497105
0.00480875
0.00531333
0.00572917
0.00529358
0.00456965
0.00427771
0.00453774
0.00522019
0.00631769
0.00797254
0.000932754
0.00129864
0.00189066
0.00268162
0.00280507
0.0032964
0.00468967
0.00566763
0.00552483
0.00490334
0.00469052
0.00508013
0.00548811
0.00515198
0.0044453
0.00408256
0.00426601
0.00493424
0.00607758
0.00780692
0.00102844
0.00134669
0.0019484
0.00273562
0.00282455
0.00325555
0.00458021
0.00554432
0.00544204
0.00483285
0.00457589
0.00485808
0.00523378
0.00498927
0.00432071
0.00390533
0.00401335
0.00465032
0.00582228
0.00762703
0.00112661
0.00139952
0.00200165
0.00278426
0.00284152
0.00321053
0.0044671
0.00541943
0.00535881
0.00475998
0.00446155
0.00464797
0.00497204
0.00480491
0.0041905
0.00374281
0.00378043
0.00437355
0.00556077
0.00743614
0.00122689
0.00145649
0.00204973
0.00282713
0.00286028
0.0031677
0.00435135
0.00528941
0.00527235
0.00468585
0.0043456
0.00444896
0.00470931
0.00460067
0.00405044
0.00358886
0.00356543
0.00411169
0.00530265
0.00723712
0.00132824
0.00151749
0.00209318
0.00286349
0.00288153
0.00312796
0.00423367
0.00515146
0.00517948
0.0046117
0.00422815
0.00425893
0.00445029
0.00437952
0.00389703
0.00343776
0.00336884
0.00387038
0.00505366
0.00703405
0.00143027
0.00158285
0.00213242
0.0028924
0.00290492
0.00309249
0.0041139
0.00500438
0.00507745
0.00453821
0.00411081
0.00407538
0.00419887
0.00414601
0.00372847
0.00328645
0.00318877
0.00364864
0.00481812
0.00683328
0.00153273
0.00165214
0.00216786
0.00291447
0.00292997
0.00306038
0.00399165
0.00484895
0.00496526
0.0044656
0.00399623
0.00389644
0.00395631
0.00390424
0.00354576
0.00313204
0.00301915
0.00344489
0.00460021
0.00663952
0.00163485
0.00172479
0.00220102
0.00293006
0.00295402
0.00303133
0.0038696
0.00468762
0.0048418
0.00439168
0.00388617
0.0037206
0.00372175
0.00365877
0.00335123
0.00297114
0.00285561
0.00325919
0.00440119
0.00645413
0.00173609
0.00180066
0.0022329
0.00293861
0.00297547
0.00300623
0.00375012
0.00452217
0.00470513
0.00431197
0.0037817
0.00354822
0.00349443
0.00341346
0.0031473
0.00280327
0.00269536
0.00308822
0.00421882
0.00627743
0.00183615
0.00187941
0.00226406
0.00294025
0.00299321
0.00298499
0.00363413
0.00435376
0.00455533
0.00422299
0.00368326
0.00338118
0.00327387
0.00317075
0.00293594
0.00262891
0.00253564
0.0029258
0.00404912
0.00611028
0.00193468
0.00196039
0.00229517
0.00293561
0.00300585
0.00296668
0.00352234
0.00418444
0.00439434
0.0041214
0.00358914
0.00322177
0.00306006
0.00293096
0.0027184
0.00244884
0.00237485
0.00276791
0.00388891
0.00595192
0.0020314
0.00204304
0.00232677
0.00292527
0.00301229
0.0029504
0.00341555
0.0040162
0.00422445
0.00400437
0.00349629
0.00307192
0.00285277
0.00269442
0.00249707
0.00226378
0.002212
0.00261306
0.00373498
0.00579904
0.00212601
0.00212674
0.00235941
0.00290997
0.00301155
0.00293507
0.00331405
0.00385037
0.00404829
0.00387117
0.00340036
0.00293158
0.00265333
0.00246319
0.00227404
0.00207311
0.00204577
0.00245886
0.00358406
0.00564948
0.00221828
0.00221075
0.00239331
0.00289064
0.00300309
0.00291936
0.00321793
0.00368809
0.00386871
0.00372231
0.00329634
0.00279971
0.00246411
0.00223814
0.00204986
0.00187762
0.00187558
0.00230255
0.00343319
0.00550182
0.00230798
0.00229445
0.00242868
0.0028681
0.00298674
0.00290177
0.00312685
0.00352994
0.00368824
0.00355986
0.00318095
0.00267411
0.00228572
0.00202009
0.00182557
0.00167808
0.0017015
0.00214318
0.00328031
0.00535381
0.00239494
0.00237708
0.00246547
0.00284344
0.00296264
0.00288083
0.00304017
0.00337617
0.00350921
0.00338684
0.00305135
0.00255063
0.00211791
0.00181133
0.00160313
0.00147414
0.00152229
0.00198008
0.00312578
0.00520532
0.00247905
0.00245799
0.00250349
0.00281757
0.002931
0.00285516
0.00295746
0.00322697
0.00333325
0.00320681
0.00290601
0.00242493
0.00195971
0.00161256
0.00138361
0.0012659
0.00133761
0.00181386
0.00296969
0.00505523
0.00256007
0.00253655
0.00254243
0.0027914
0.00289242
0.00282376
0.0028778
0.00308197
0.0031609
0.00302357
0.00274593
0.00229289
0.00180802
0.00142343
0.00116886
0.001055
0.00114811
0.00164414
0.00281116
0.00490277
0.00263694
0.00261227
0.00258163
0.00276568
0.00284776
0.00278589
0.00280031
0.00294094
0.00299203
0.00284064
0.0025736
0.00215056
0.00165905
0.0012437
0.00096099
0.000843148
0.000953189
0.00146885
0.00264898
0.00474799
0.0027113
0.00268467
0.00262061
0.00274106
0.002798
0.00274071
0.00272384
0.00280382
0.00282562
0.00266075
0.00239263
0.00199595
0.00150931
0.00107148
0.000760996
0.000632059
0.000752335
0.0012864
0.00248242
0.00459082
0.00278283
0.00275347
0.00265857
0.00271793
0.00274452
0.0026879
0.00264702
0.00267105
0.00266067
0.00248423
0.00220702
0.00182913
0.0013549
0.000903429
0.00056838
0.000423515
0.00054764
0.00109755
0.00231006
0.0044292
0.00285114
0.00281844
0.00269498
0.00269619
0.00268847
0.00262766
0.00256826
0.00254299
0.00249703
0.00231003
0.00202072
0.00165209
0.00119291
0.000736023
0.000381554
0.000218619
0.000340745
0.000901839
0.0021298
0.00426152
0.00291639
0.00287927
0.00272917
0.00267577
0.00263107
0.00256106
0.00248602
0.00241902
0.00233508
0.00213613
0.00183589
0.00146773
0.00102182
0.000565886
0.000198418
1.78577e-05
0.000132807
0.000699809
0.00194063
0.00408606
0.0029782
0.00293607
0.00276076
0.00265625
0.00257299
0.00248898
0.00239911
0.00229836
0.00217698
0.00196138
0.00165199
0.00127924
0.000842345
0.000389872
1.45546e-05
-0.000180608
-7.50743e-05
0.000492971
0.00174344
0.00390213
0.0030365
0.00298858
0.00278946
0.00263767
0.00251499
0.00241289
0.00230669
0.00217797
0.00202353
0.00178629
0.00146756
0.00108933
0.000656847
0.000207498
-0.000173102
-0.000379269
-0.000283677
0.000281946
0.00153802
0.00370887
0.00309111
0.00303691
0.00281472
0.00261944
0.00245754
0.00233434
0.00221027
0.0020556
0.00187388
0.00161254
0.00128103
0.000896768
0.000465644
1.92842e-05
-0.00036483
-0.000579804
-0.000494503
6.62591e-05
0.0013254
0.00350602
0.00314191
0.0030812
0.00283659
0.00260104
0.00240062
0.00225323
0.0021107
0.00193106
0.00172723
0.00144276
0.00109352
0.000701424
0.000268815
-0.000176084
-0.000562911
-0.000784951
-0.000708674
-0.000153675
0.00110633
0.00329362
0.00318943
0.00312185
0.00285527
0.00258219
0.00234471
0.00217041
0.00200871
0.00180212
0.00157984
0.00127871
0.000907636
0.000503704
6.87643e-05
-0.000375951
-0.000768831
-0.000999207
-0.000930823
-0.000380993
0.000878127
0.00306956
0.00323216
0.00315878
0.00287132
0.00256274
0.00228908
0.00208658
0.00190818
0.00167164
0.00142455
0.00111595
0.000727067
0.0003033
-0.000139013
-0.000577168
-0.000975091
-0.0012172
-0.0011605
-0.000618654
0.00063877
0.00283285
0.0032707
0.00319186
0.0028847
0.00254374
0.00223467
0.00199811
0.00180612
0.00154841
0.00126742
0.000946591
0.000550209
0.000109477
-0.000358906
-0.000812051
-0.00120056
-0.00144522
-0.00140108
-0.000872732
0.000375515
0.0025695
0.00330445
0.00322091
0.00289495
0.00252469
0.0021843
0.00190933
0.00169355
0.00142557
0.00111834
0.000776475
0.000368284
-6.49569e-05
-0.000526404
-0.000999048
-0.00141347
-0.00167764
-0.0016504
-0.00113618
0.000104578
0.0022959
0.00333325
0.00324887
0.00290245
0.00250472
0.00213438
0.0018236
0.00157626
0.00129119
0.000967729
0.000616815
0.000168906
-0.000327701
-0.000799352
-0.00124567
-0.00165051
-0.00192616
-0.00191926
-0.00142813
-0.000207766
0.00197108
0.00335466
0.00327945
0.00291787
0.00248764
0.00208578
0.00173823
0.00146044
0.00115577
0.000808157
0.000484722
0.000110939
-0.000369038
-0.000913145
-0.00142494
-0.00185632
-0.00215152
-0.00216697
-0.00170137
-0.000509713
0.00163925
0.00335713
0.00329448
0.00293531
0.00247114
0.00203434
0.00165767
0.00134682
0.00102564
0.000614397
0.000180441
-0.000254934
-0.000697495
-0.00117125
-0.00166175
-0.00209225
-0.00236848
-0.00236813
-0.00190054
-0.00071753
0.00141676
0.0034028
0.00331866
0.00294752
0.00245583
0.00196015
0.00152511
0.00121169
0.000965527
0.000660655
0.000302828
-0.000149712
-0.000694582
-0.00128965
-0.00190109
-0.00246083
-0.00286713
-0.00298141
-0.00261307
-0.00151926
0.000534542
0.00335462
0.00334322
0.00294397
0.00250802
0.0020188
0.00143369
0.000936766
0.000579439
0.000199969
-0.000185693
-0.00055847
-0.000934405
-0.00133419
-0.00171313
-0.00203069
-0.00223891
-0.00224562
-0.00186863
-0.000853311
0.00107725
0.00348284
0.00331225
0.0029214
0.00237429
0.00183711
0.00143829
0.00112498
0.000881686
0.00054932
0.000131573
-0.000394038
-0.00102884
-0.00179193
-0.00261692
-0.00337388
-0.0040065
-0.00434751
-0.00420009
-0.00331526
-0.0014747
0.00371852
0.00322547
0.00275031
0.00221766
0.00173739
0.00116968
0.000639886
0.000212044
-0.000115673
-0.000466962
-0.000809859
-0.00111778
-0.00122192
-0.00107249
-0.000655891
3.02148e-05
0.000835217
0.00148675
0.00161998
0.000902259
0.00368725
0.0032575
0.00273854
0.0022426
0.00186202
0.00153457
0.00125322
0.000945883
0.000568235
3.76971e-05
-0.000648364
-0.00150499
-0.00253668
-0.00365215
-0.00472893
-0.00562809
-0.00621997
-0.00631991
-0.00567823
-0.00405769
0.00385855
0.0032165
0.00265485
0.00215323
0.00177864
0.00131938
0.000821728
0.000203781
-0.000375664
-0.000757294
-0.00110172
-0.00155285
-0.00194321
-0.00212927
-0.00202439
-0.00164244
-0.00107593
-0.000588598
-0.000546563
-0.00130397
0.00384655
0.00319398
0.00264598
0.00220314
0.00196767
0.00179964
0.00163638
0.00132139
0.000848931
0.00012376
-0.0009091
-0.00231335
-0.00400765
-0.00581034
-0.00747133
-0.00878726
-0.00959712
-0.00972744
-0.00896943
-0.00713706
0.0307208
0.0112564
0.00371033
0.00347506
0.0044385
0.00506004
0.00529538
0.00531927
0.00536469
0.00550126
0.0056751
0.00586526
0.00617887
0.00663821
0.00705953
0.00738855
0.00775639
0.0082049
0.00861051
0.0089883
0.00942321
0.00988056
0.0103166
0.0108042
0.0113938
0.012085
0.0126432
0.0131382
0.0137325
0.0143914
0.0150997
0.015818
0.0165182
0.0171988
0.017977
0.0187563
0.0195633
0.0203778
0.0212526
0.0221717
0.0230976
0.0241225
0.0250829
0.0261551
0.0271469
0.0282251
0.0292299
0.0301771
0.0309757
0.031485
0.0300164
0.0113069
0.00375717
0.00349343
0.00444868
0.00506709
0.00530056
0.00532319
0.00536774
0.00550372
0.00567711
0.0058669
0.00618021
0.00663935
0.00706054
0.00738944
0.00775717
0.00820561
0.00861118
0.00898892
0.00942378
0.0098811
0.0103171
0.0108047
0.0113942
0.0120854
0.0126436
0.0131385
0.0137328
0.0143916
0.0151
0.0158182
0.0165184
0.017199
0.0179772
0.0187565
0.0195635
0.0203779
0.0212527
0.0221718
0.0230978
0.0241226
0.025083
0.0261552
0.027147
0.0282252
0.02923
0.0301771
0.0309757
0.031485
0.0293567
0.0113979
0.00383229
0.00351737
0.00445961
0.00507435
0.00530575
0.00532698
0.00537061
0.00550601
0.00567897
0.0058684
0.00618142
0.00664041
0.00706147
0.00739024
0.00775786
0.00820625
0.00861177
0.00898945
0.00942428
0.00988158
0.0103175
0.0108051
0.0113945
0.0120857
0.0126439
0.0131388
0.0137331
0.0143919
0.0151002
0.0158184
0.0165186
0.0171992
0.0179773
0.0187566
0.0195636
0.0203781
0.0212528
0.0221719
0.0230979
0.0241227
0.0250831
0.0261553
0.0271471
0.0282252
0.02923
0.0301772
0.0309758
0.031485
0.0287511
0.0115178
0.00394344
0.00355426
0.00447429
0.00508335
0.00531204
0.00533148
0.00537395
0.00550862
0.00568107
0.00587006
0.00618275
0.00664155
0.00706246
0.00739107
0.00775857
0.00820689
0.00861236
0.00898998
0.00942477
0.00988204
0.0103179
0.0108055
0.0113949
0.0120861
0.0126443
0.013139
0.0137333
0.0143921
0.0151004
0.0158187
0.0165188
0.0171994
0.0179775
0.0187568
0.0195637
0.0203782
0.021253
0.022172
0.023098
0.0241228
0.0250832
0.0261554
0.0271472
0.0282253
0.0292301
0.0301772
0.0309758
0.0314849
0.0281597
0.0116529
0.00408433
0.00360481
0.0044941
0.00509515
0.00532022
0.00533736
0.00537834
0.00551202
0.00568378
0.00587223
0.00618446
0.00664294
0.00706362
0.00739203
0.00775938
0.0082076
0.00861299
0.00899054
0.00942529
0.00988253
0.0103184
0.0108059
0.0113952
0.0120864
0.0126446
0.0131393
0.0137336
0.0143924
0.0151006
0.0158189
0.016519
0.0171995
0.0179776
0.0187569
0.0195639
0.0203783
0.0212531
0.0221721
0.0230981
0.0241229
0.0250833
0.0261554
0.0271473
0.0282254
0.0292302
0.0301773
0.0309759
0.0314848
0.0275645
0.0117935
0.00424217
0.00366415
0.0045179
0.00510967
0.00533044
0.00534484
0.00538405
0.00551651
0.00568742
0.00587519
0.00618676
0.00664472
0.00706501
0.00739318
0.00776033
0.00820841
0.00861369
0.00899115
0.00942585
0.00988304
0.0103189
0.0108063
0.0113956
0.0120869
0.012645
0.0131396
0.0137339
0.0143926
0.0151009
0.0158191
0.0165193
0.0171997
0.0179778
0.0187571
0.019564
0.0203784
0.0212532
0.0221723
0.0230982
0.0241231
0.0250834
0.0261555
0.0271474
0.0282255
0.0292303
0.0301774
0.030976
0.0314848
0.0269652
0.0119343
0.00440905
0.00372802
0.00454393
0.00512622
0.0053424
0.00535375
0.00539105
0.00552218
0.00569216
0.00587917
0.00618988
0.006647
0.00706671
0.00739458
0.00776149
0.00820933
0.00861448
0.00899185
0.00942647
0.0098836
0.0103194
0.0108068
0.011396
0.0120873
0.0126455
0.0131399
0.0137341
0.0143929
0.0151012
0.0158194
0.0165195
0.0171999
0.017978
0.0187572
0.0195642
0.0203786
0.0212533
0.0221724
0.0230983
0.0241232
0.0250835
0.0261556
0.0271475
0.0282256
0.0292304
0.0301775
0.0309761
0.0314847
0.0263665
0.0120731
0.00458215
0.0037946
0.00457106
0.00514413
0.00535568
0.00536374
0.00539907
0.00552888
0.00569798
0.00588427
0.00619397
0.00664991
0.00706877
0.00739628
0.00776288
0.0082104
0.00861536
0.00899266
0.00942721
0.00988423
0.0103199
0.0108073
0.0113965
0.0120878
0.012646
0.0131403
0.0137345
0.0143932
0.0151015
0.0158197
0.0165198
0.0172002
0.0179782
0.0187574
0.0195644
0.0203787
0.0212535
0.0221725
0.0230984
0.0241233
0.0250837
0.0261558
0.0271476
0.0282257
0.0292305
0.0301777
0.0309763
0.0314846
0.025772
0.0122085
0.00476091
0.00386342
0.00459867
0.00516294
0.00536992
0.00537449
0.00540778
0.00553633
0.00570466
0.00589038
0.00619906
0.00665352
0.00707124
0.00739827
0.00776452
0.00821161
0.00861635
0.00899359
0.00942809
0.009885
0.0103205
0.0108078
0.0113969
0.0120884
0.0126466
0.0131407
0.0137348
0.0143936
0.0151018
0.01582
0.0165201
0.0172004
0.0179784
0.0187577
0.0195645
0.0203789
0.0212536
0.0221727
0.0230986
0.0241234
0.0250838
0.0261559
0.0271477
0.0282258
0.0292306
0.0301779
0.0309766
0.0314845
0.0251839
0.0123399
0.00494515
0.00393435
0.00462636
0.00518222
0.00538485
0.00538578
0.00541696
0.00554428
0.00571192
0.00589723
0.00620498
0.00665782
0.00707411
0.00740055
0.00776639
0.00821296
0.00861744
0.00899466
0.00942913
0.00988596
0.0103213
0.0108084
0.0113974
0.0120889
0.0126472
0.0131412
0.0137352
0.0143939
0.0151021
0.0158204
0.0165204
0.0172007
0.0179787
0.0187579
0.0195648
0.0203791
0.0212538
0.0221728
0.0230987
0.0241236
0.0250839
0.026156
0.0271478
0.028226
0.0292308
0.0301781
0.030977
0.0314844
0.0246036
0.0124665
0.00513438
0.00400728
0.00465376
0.00520159
0.00540024
0.00539744
0.00542646
0.00555257
0.00571956
0.00590454
0.00621153
0.00666274
0.00707738
0.00740309
0.00776845
0.00821443
0.0086186
0.00899582
0.00943032
0.00988714
0.0103224
0.0108091
0.0113977
0.0120894
0.0126479
0.0131418
0.0137357
0.0143943
0.0151025
0.0158207
0.0165208
0.0172011
0.017979
0.0187582
0.019565
0.0203793
0.021254
0.022173
0.0230988
0.0241237
0.0250841
0.0261562
0.027148
0.0282261
0.029231
0.0301785
0.0309776
0.0314844
0.0240317
0.0125873
0.00532786
0.00408213
0.00468059
0.00522068
0.00541581
0.00540935
0.00543621
0.00556114
0.00572746
0.00591213
0.00621846
0.00666814
0.00708101
0.00740583
0.00777065
0.00821598
0.00861983
0.00899705
0.00943161
0.0098885
0.0103237
0.01081
0.0113981
0.0120898
0.0126485
0.0131425
0.0137363
0.0143948
0.0151029
0.0158211
0.0165212
0.0172014
0.0179793
0.0187585
0.0195653
0.0203796
0.0212542
0.0221731
0.023099
0.0241239
0.0250842
0.0261563
0.0271482
0.0282264
0.0292313
0.0301789
0.0309782
0.0314844
0.0234689
0.0127011
0.00552482
0.00415895
0.00470674
0.00523915
0.00543128
0.00542135
0.00544613
0.00556995
0.00573559
0.0059199
0.00622559
0.00667388
0.00708492
0.00740874
0.00777296
0.00821759
0.0086211
0.00899832
0.00943293
0.00989
0.0103253
0.0108112
0.0113985
0.0120901
0.0126491
0.0131432
0.0137371
0.0143954
0.0151033
0.0158215
0.0165216
0.0172019
0.0179797
0.0187589
0.0195657
0.0203799
0.0212544
0.0221733
0.0230992
0.024124
0.0250844
0.0261565
0.0271484
0.0282266
0.0292316
0.0301794
0.0309791
0.0314845
0.0229159
0.0128072
0.00572455
0.00423803
0.00473234
0.0052568
0.0054464
0.00543331
0.00545615
0.00557898
0.00574395
0.00592785
0.00623282
0.00667981
0.00708904
0.00741178
0.00777536
0.00821926
0.0086224
0.00899963
0.00943427
0.00989153
0.0103271
0.0108127
0.0113989
0.0120901
0.0126495
0.0131439
0.0137379
0.0143961
0.0151038
0.0158219
0.0165221
0.0172023
0.0179802