/*--------------------------------*- C++ -*----------------------------------*\
| =========                 |                                                 |
| \\      /  F ield         | OpenFOAM: The Open Source CFD Toolbox           |
|  \\    /   O peration     | Version:  v2012                                 |
|   \\  /    A nd           | Website:  www.openfoam.com                      |
|    \\/     M anipulation  |                                                 |
\*---------------------------------------------------------------------------*/
FoamFile
{
    version     2.0;
    format      ascii;
    class       surfaceScalarField;
    location    "2.1";
    object      phi;
}
// * * * * * * * * * * * * * * * * * * * * * * * * * * * * * * * * * * * * * //

dimensions      [0 3 -1 0 0 0 0];
oriented        oriented;


internalField   nonuniform List<scalar> 
13830
(
9.02346e-07
-7.09402e-08
9.42776e-07
-1.22111e-06
1.03168e-06
-2.27495e-06
1.02118e-06
9.76751e-07
9.75446e-07
1.02347e-06
1.00802e-06
1.02651e-06
1.00884e-06
2.25496e-08
9.54359e-07
-4.21704e-07
9.76007e-07
-7.59635e-07
9.26473e-07
-9.26892e-07
9.4463e-07
-1.21932e-06
9.45732e-07
-8.73243e-07
9.59441e-07
-7.76444e-07
9.63903e-07
-4.58068e-07
9.73093e-07
-4.8675e-07
9.7518e-07
-2.9566e-07
9.83618e-07
-2.87977e-07
9.82566e-07
-1.77765e-07
9.85694e-07
-1.40377e-07
-9.83314e-08
9.70719e-07
9.34353e-07
-3.27614e-08
9.73507e-07
-1.26026e-06
1.0712e-06
-2.37264e-06
1.06407e-06
9.8388e-07
1.01358e-06
1.07396e-06
1.0527e-06
9.87385e-07
1.04305e-06
3.22058e-08
1.00345e-06
-3.82105e-07
1.00649e-06
-7.62681e-07
9.70936e-07
-8.91334e-07
9.76794e-07
-1.22518e-06
9.83601e-07
-8.80051e-07
9.91494e-07
-7.84337e-07
1.00369e-06
-4.70263e-07
1.00531e-06
-4.88375e-07
1.017e-06
-3.07346e-07
1.01547e-06
-2.86452e-07
1.02583e-06
-1.88121e-07
1.01594e-06
-1.30483e-07
-1.0248e-07
1.02008e-06
9.68279e-07
8.41297e-09
1.00445e-06
-1.29643e-06
1.10723e-06
-2.47541e-06
1.11326e-06
9.77852e-07
1.0594e-06
1.12781e-06
1.09561e-06
9.51172e-07
1.07939e-06
4.8428e-08
1.04777e-06
-3.50482e-07
1.03961e-06
-7.54528e-07
1.01415e-06
-8.65875e-07
1.00552e-06
-1.21654e-06
1.01984e-06
-8.94378e-07
1.02009e-06
-7.84587e-07
1.03732e-06
-4.87486e-07
1.03382e-06
-4.84876e-07
1.05004e-06
-3.23566e-07
1.0461e-06
-2.82517e-07
1.05923e-06
-2.01251e-07
1.0507e-06
-1.21951e-07
-1.05824e-07
1.05405e-06
1.00501e-06
5.11833e-08
1.03663e-06
-1.32806e-06
1.13838e-06
-2.57716e-06
1.16111e-06
9.55127e-07
1.11282e-06
1.17611e-06
1.13818e-06
9.25806e-07
1.11743e-06
6.91791e-08
1.09025e-06
-3.23297e-07
1.07557e-06
-7.3985e-07
1.05536e-06
-8.45662e-07
1.03691e-06
-1.19809e-06
1.05344e-06
-9.10914e-07
1.05063e-06
-7.8178e-07
1.06714e-06
-5.03995e-07
1.06379e-06
-4.81525e-07
1.0793e-06
-3.39076e-07
1.07783e-06
-2.81041e-07
1.09076e-06
-2.14187e-07
1.08635e-06
-1.17536e-07
-1.08807e-07
1.08933e-06
1.04547e-06
9.32639e-08
1.07054e-06
-1.35313e-06
1.16469e-06
-2.67131e-06
1.20308e-06
9.1674e-07
1.16962e-06
1.20956e-06
1.18237e-06
9.13056e-07
1.15752e-06
9.40216e-08
1.13222e-06
-2.97996e-07
1.11509e-06
-7.2272e-07
1.09701e-06
-8.27582e-07
1.07331e-06
-1.17438e-06
1.08809e-06
-9.257e-07
1.08485e-06
-7.78543e-07
1.09873e-06
-5.17867e-07
1.09629e-06
-4.79084e-07
1.1102e-06
-3.52991e-07
1.11071e-06
-2.81551e-07
1.1235e-06
-2.26979e-07
1.12235e-06
-1.16383e-07
-1.12286e-07
1.12583e-06
1.09039e-06
1.3172e-07
1.10663e-06
-1.36937e-06
1.18833e-06
-2.75301e-06
1.23967e-06
8.65398e-07
1.22596e-06
1.22328e-06
1.22851e-06
9.10507e-07
1.1992e-06
1.23326e-07
1.17477e-06
-2.73568e-07
1.15714e-06
-7.05082e-07
1.1401e-06
-8.10546e-07
1.11368e-06
-1.14796e-06
1.12539e-06
-9.37418e-07
1.12214e-06
-7.75285e-07
1.13366e-06
-5.29392e-07
1.131e-06
-4.76425e-07
1.14343e-06
-3.65418e-07
1.14452e-06
-2.82638e-07
1.15711e-06
-2.39578e-07
1.15817e-06
-1.17437e-07
-1.16669e-07
1.16255e-06
1.13963e-06
1.63789e-07
1.14526e-06
-1.375e-06
1.21264e-06
-2.82039e-06
1.27493e-06
8.0311e-07
1.28038e-06
1.21783e-06
1.2759e-06
9.14994e-07
1.24166e-06
1.57566e-07
1.21817e-06
-2.50078e-07
1.2005e-06
-6.87412e-07
1.18468e-06
-7.94734e-07
1.15663e-06
-1.1199e-06
1.16531e-06
-9.46098e-07
1.16173e-06
-7.7171e-07
1.17156e-06
-5.39225e-07
1.16775e-06
-4.72615e-07
1.17867e-06
-3.76331e-07
1.17934e-06
-2.83316e-07
1.19136e-06
-2.51591e-07
1.1938e-06
-1.19884e-07
-1.21892e-07
1.19903e-06
1.19229e-06
1.87683e-07
1.18681e-06
-1.36952e-06
1.24067e-06
-2.87425e-06
1.31279e-06
7.30995e-07
1.33277e-06
1.19784e-06
1.32323e-06
9.24543e-07
1.28415e-06
1.96644e-07
1.26223e-06
-2.28156e-07
1.24458e-06
-6.69767e-07
1.23058e-06
-7.80734e-07
1.20153e-06
-1.09085e-06
1.20747e-06
-9.52042e-07
1.20335e-06
-7.67581e-07
1.21193e-06
-5.47806e-07
1.20661e-06
-4.673e-07
1.21584e-06
-3.85561e-07
1.21563e-06
-2.83103e-07
1.22648e-06
-2.62446e-07
1.22976e-06
-1.23155e-07
-1.2758e-07
1.23544e-06
1.24708e-06
2.02952e-07
1.23164e-06
-1.35408e-06
1.27398e-06
-2.91659e-06
1.35432e-06
6.50657e-07
1.38264e-06
1.16951e-06
1.36894e-06
9.38251e-07
1.32621e-06
2.39372e-07
1.30678e-06
-2.08725e-07
1.28933e-06
-6.52316e-07
1.27772e-06
-7.69121e-07
1.24826e-06
-1.0614e-06
1.25172e-06
-9.55499e-07
1.24691e-06
-7.62774e-07
1.25449e-06
-5.55385e-07
1.24772e-06
-4.60525e-07
1.25509e-06
-3.9293e-07
1.25385e-06
-2.81864e-07
1.26295e-06
-2.71547e-07
1.26662e-06
-1.26831e-07
-1.33245e-07
1.27229e-06
1.30288e-06
2.10346e-07
1.28012e-06
-1.33132e-06
1.31233e-06
-2.9488e-06
1.39743e-06
5.65558e-07
1.42864e-06
1.1383e-06
1.4118e-06
9.55094e-07
1.36781e-06
2.83356e-07
1.35192e-06
-1.92832e-07
1.33498e-06
-6.35376e-07
1.32617e-06
-7.60308e-07
1.29682e-06
-1.03206e-06
1.29801e-06
-9.56684e-07
1.29241e-06
-7.57175e-07
1.29913e-06
-5.62105e-07
1.29118e-06
-4.52574e-07
1.29659e-06
-3.98337e-07
1.29439e-06
-2.79663e-07
1.3012e-06
-2.78364e-07
1.30493e-06
-1.30559e-07
-1.38385e-07
1.31007e-06
1.35899e-06
2.11378e-07
1.33234e-06
-1.30467e-06
1.35429e-06
-2.97075e-06
1.43873e-06
4.81119e-07
1.46943e-06
1.1076e-06
1.45152e-06
9.72998e-07
1.40949e-06
3.25388e-07
1.39803e-06
-1.81374e-07
1.3819e-06
-6.19245e-07
1.37607e-06
-7.54477e-07
1.34722e-06
-1.0032e-06
1.34639e-06
-9.55853e-07
1.33987e-06
-7.50654e-07
1.34581e-06
-5.68047e-07
1.3371e-06
-4.43867e-07
1.34053e-06
-4.01771e-07
1.33753e-06
-2.76661e-07
1.34168e-06
-2.82511e-07
1.34512e-06
-1.34002e-07
-1.42508e-07
1.34925e-06
1.41521e-06
2.07821e-07
1.38796e-06
-1.27742e-06
1.39835e-06
-2.98114e-06
1.47603e-06
4.03434e-07
1.50498e-06
1.07865e-06
1.48907e-06
9.88908e-07
1.45224e-06
3.62218e-07
1.44566e-06
-1.74801e-07
1.43047e-06
-6.04049e-07
1.42755e-06
-7.5156e-07
1.39945e-06
-9.75101e-07
1.39689e-06
-9.533e-07
1.38934e-06
-7.43101e-07
1.39454e-06
-5.73243e-07
1.38557e-06
-4.34902e-07
1.38708e-06
-4.03281e-07
1.38349e-06
-2.7307e-07
1.38478e-06
-2.83797e-07
1.38762e-06
-1.36843e-07
-1.4517e-07
1.39028e-06
1.47174e-06
2.01324e-07
1.44627e-06
-1.25195e-06
1.44378e-06
-2.97865e-06
1.5098e-06
3.37419e-07
1.5372e-06
1.05125e-06
1.52643e-06
9.99677e-07
1.49725e-06
3.91402e-07
1.49538e-06
-1.72928e-07
1.48101e-06
-5.89682e-07
1.4807e-06
-7.51251e-07
1.45352e-06
-9.47923e-07
1.44956e-06
-9.49341e-07
1.44095e-06
-7.34488e-07
1.44538e-06
-5.77672e-07
1.43667e-06
-4.26189e-07
1.43632e-06
-4.02931e-07
1.43236e-06
-2.69112e-07
1.43081e-06
-2.82245e-07
1.43278e-06
-1.38814e-07
-1.46039e-07
1.43365e-06
1.52902e-06
1.93181e-07
1.50644e-06
-1.22938e-06
1.49092e-06
-2.96312e-06
1.54287e-06
2.85468e-07
1.56945e-06
1.02467e-06
1.56605e-06
1.00308e-06
1.54557e-06
4.11879e-07
1.54761e-06
-1.74973e-07
1.53379e-06
-5.75856e-07
1.53561e-06
-7.53073e-07
1.50946e-06
-9.21778e-07
1.5044e-06
-9.44281e-07
1.49484e-06
-7.24926e-07
1.4984e-06
-5.81234e-07
1.49041e-06
-4.182e-07
1.48826e-06
-4.00777e-07
1.48415e-06
-2.65003e-07
1.47999e-06
-2.78086e-07
1.48091e-06
-1.39735e-07
-1.44957e-07
1.47983e-06
1.58752e-06
1.84272e-07
1.56786e-06
-1.20972e-06
1.54072e-06
-2.93598e-06
1.57901e-06
2.47176e-07
1.60529e-06
9.9839e-07
1.60998e-06
9.98392e-07
1.59783e-06
4.24034e-07
1.60264e-06
-1.79786e-07
1.58898e-06
-5.62201e-07
1.59236e-06
-7.56451e-07
1.5673e-06
-8.96714e-07
1.56141e-06
-9.3839e-07
1.55117e-06
-7.14687e-07
1.55367e-06
-5.83737e-07
1.54678e-06
-4.11309e-07
1.54292e-06
-3.96915e-07
1.53881e-06
-2.60896e-07
1.53246e-06
-2.71732e-07
1.53224e-06
-1.39517e-07
-1.41972e-07
1.52925e-06
1.6477e-06
1.75116e-07
1.63029e-06
-1.19231e-06
1.59418e-06
-2.89987e-06
1.62131e-06
2.2005e-07
1.64733e-06
9.72362e-07
1.65946e-06
9.86261e-07
1.65417e-06
4.29324e-07
1.66054e-06
-1.86151e-07
1.64673e-06
-5.48386e-07
1.65106e-06
-7.60786e-07
1.62709e-06
-8.7274e-07
1.62058e-06
-9.31881e-07
1.61009e-06
-7.04195e-07
1.61124e-06
-5.84895e-07
1.60568e-06
-4.05744e-07
1.60029e-06
-3.91526e-07
1.59628e-06
-2.56886e-07
1.58825e-06
-2.63705e-07
1.58692e-06
-1.38182e-07
-1.37304e-07
1.58225e-06
1.70989e-06
1.65979e-07
1.69387e-06
-1.17629e-06
1.65181e-06
-2.85782e-06
1.67121e-06
2.0065e-07
1.69671e-06
9.46866e-07
1.71475e-06
9.6822e-07
1.7144e-06
4.29674e-07
1.7213e-06
-1.93046e-07
1.70711e-06
-5.34197e-07
1.71183e-06
-7.65514e-07
1.68894e-06
-8.49851e-07
1.68193e-06
-9.24869e-07
1.67172e-06
-6.93978e-07
1.67121e-06
-5.84389e-07
1.66706e-06
-4.01591e-07
1.6604e-06
-3.84866e-07
1.65653e-06
-2.53018e-07
1.64739e-06
-2.54563e-07
1.64505e-06
-1.35845e-07
-1.31295e-07
1.63904e-06
1.7743e-06
1.56995e-07
1.75892e-06
-1.16091e-06
1.71361e-06
-2.8125e-06
1.72862e-06
1.85636e-07
1.75321e-06
9.22281e-07
1.77538e-06
9.46045e-07
1.77812e-06
4.26938e-07
1.78485e-06
-1.99776e-07
1.77022e-06
-5.19564e-07
1.77483e-06
-7.70131e-07
1.75305e-06
-8.28067e-07
1.74551e-06
-9.17331e-07
1.7361e-06
-6.84571e-07
1.73371e-06
-5.81991e-07
1.73093e-06
-3.98814e-07
1.72331e-06
-3.7725e-07
1.7196e-06
-2.49302e-07
1.70987e-06
-2.44837e-07
1.7067e-06
-1.32676e-07
-1.24338e-07
1.69974e-06
1.84109e-06
1.4824e-07
1.82588e-06
-1.1457e-06
1.77919e-06
-2.76581e-06
1.79245e-06
1.72368e-07
1.81586e-06
8.9887e-07
1.8406e-06
9.21314e-07
1.84495e-06
4.22579e-07
1.85117e-06
-2.0599e-07
1.83615e-06
-5.04548e-07
1.84023e-06
-7.74209e-07
1.81963e-06
-8.07464e-07
1.81136e-06
-9.0906e-07
1.80317e-06
-6.76382e-07
1.79885e-06
-5.77677e-07
1.79733e-06
-3.97286e-07
1.78911e-06
-3.69028e-07
1.78554e-06
-2.45733e-07
1.77567e-06
-2.34975e-07
1.77188e-06
-1.28885e-07
-1.16829e-07
1.76437e-06
1.91036e-06
1.39775e-07
1.8951e-06
-1.13044e-06
1.84808e-06
-2.71879e-06
1.86137e-06
1.59072e-07
1.88354e-06
8.76699e-07
1.90964e-06
8.95214e-07
1.91464e-06
4.17582e-07
1.92027e-06
-2.11617e-07
1.90504e-06
-4.89323e-07
1.9082e-06
-7.7737e-07
1.88894e-06
-7.88202e-07
1.87955e-06
-8.99666e-07
1.87282e-06
-6.69652e-07
1.86674e-06
-5.71604e-07
1.86628e-06
-3.96823e-07
1.85783e-06
-3.60574e-07
1.85438e-06
-2.42291e-07
1.84474e-06
-2.25335e-07
1.84057e-06
-1.24707e-07
-1.09125e-07
1.83286e-06
1.98223e-06
1.3165e-07
1.96688e-06
-1.11509e-06
1.91991e-06
-2.67182e-06
1.93425e-06
1.44728e-07
1.9553e-06
8.55652e-07
1.98198e-06
8.68535e-07
1.98705e-06
4.12516e-07
1.9922e-06
-2.16767e-07
1.97702e-06
-4.74147e-07
1.97891e-06
-7.79259e-07
1.96124e-06
-7.70529e-07
1.95025e-06
-8.88676e-07
1.94501e-06
-6.64414e-07
1.93743e-06
-5.64029e-07
1.93779e-06
-3.97181e-07
1.92946e-06
-3.52242e-07
1.92612e-06
-2.38955e-07
1.91697e-06
-2.1618e-07
1.91264e-06
-1.20385e-07
-1.01534e-07
1.90505e-06
2.05679e-06
1.23908e-07
2.04142e-06
-1.09972e-06
1.99447e-06
-2.62486e-06
2.01034e-06
1.28864e-07
2.03049e-06
8.35493e-07
2.05728e-06
8.41745e-07
2.06216e-06
4.07645e-07
2.06702e-06
-2.21636e-07
2.05224e-06
-4.59359e-07
2.05249e-06
-7.79512e-07
2.03667e-06
-7.54713e-07
2.02373e-06
-8.75729e-07
2.01977e-06
-6.60455e-07
2.01098e-06
-5.55245e-07
2.01183e-06
-3.98031e-07
2.00393e-06
-3.44339e-07
2.00066e-06
-2.35686e-07
1.99216e-06
-2.07677e-07
1.98793e-06
-1.16157e-07
-9.43136e-08
1.98071e-06
2.13416e-06
1.16585e-07
2.11889e-06
-1.08444e-06
2.07171e-06
-2.57769e-06
2.08921e-06
1.11364e-07
2.10877e-06
8.15941e-07
2.13542e-06
8.15091e-07
2.14004e-06
4.0302e-07
2.14482e-06
-2.26411e-07
2.13083e-06
-4.45366e-07
2.12905e-06
-7.77737e-07
2.11523e-06
-7.4089e-07
2.1002e-06
-8.60701e-07
2.09718e-06
-6.57431e-07
2.08747e-06
-5.45541e-07
2.08841e-06
-3.98963e-07
2.08116e-06
-3.37094e-07
2.07789e-06
-2.32419e-07
2.07012e-06
-1.99905e-07
2.06618e-06
-1.12218e-07
-8.76663e-08
2.05953e-06
2.21446e-06
1.09705e-07
2.1994e-06
-1.06938e-06
2.15172e-06
-2.53001e-06
2.17075e-06
9.23251e-08
2.18996e-06
7.96734e-07
2.21638e-06
7.88671e-07
2.22085e-06
3.98553e-07
2.22564e-06
-2.31203e-07
2.2129e-06
-4.32629e-07
2.20871e-06
-7.7354e-07
2.19693e-06
-7.29108e-07
2.17985e-06
-8.43628e-07
2.17736e-06
-6.54941e-07
2.16699e-06
-5.35169e-07
2.16756e-06
-3.99535e-07
2.16105e-06
-3.30588e-07
2.15773e-06
-2.29095e-07
2.15064e-06
-1.92818e-07
2.14714e-06
-1.08714e-07
-8.17378e-08
2.14121e-06
2.29781e-06
1.03284e-07
2.28306e-06
-1.05463e-06
2.23463e-06
-2.48157e-06
2.25499e-06
7.19611e-08
2.27406e-06
7.77665e-07
2.30025e-06
7.62489e-07
2.30475e-06
3.9405e-07
2.30953e-06
-2.35989e-07
2.29852e-06
-4.21618e-07
2.29165e-06
-7.66668e-07
2.2818e-06
-7.19255e-07
2.26284e-06
-8.24668e-07
2.26046e-06
-6.52567e-07
2.24964e-06
-5.24343e-07
2.24943e-06
-3.99328e-07
2.24358e-06
-3.24739e-07
2.24015e-06
-2.25667e-07
2.23363e-06
-1.86293e-07
2.23063e-06
-1.05711e-07
-7.66069e-08
2.22549e-06
2.38434e-06
9.73247e-08
2.36997e-06
-1.04026e-06
2.32064e-06
-2.43224e-06
2.34206e-06
5.05425e-08
2.36112e-06
7.58602e-07
2.38713e-06
7.36477e-07
2.39195e-06
3.89236e-07
2.39654e-06
-2.40582e-07
2.38765e-06
-4.12725e-07
2.37809e-06
-7.57114e-07
2.36988e-06
-7.11046e-07
2.34928e-06
-8.04068e-07
2.34665e-06
-6.49935e-07
2.33552e-06
-5.13208e-07
2.33423e-06
-3.98046e-07
2.32878e-06
-3.19286e-07
2.3252e-06
-2.22083e-07
2.31916e-06
-1.80254e-07
2.31659e-06
-1.03137e-07
-7.22701e-08
2.31225e-06
2.47419e-06
9.18173e-08
2.46025e-06
-1.02632e-06
2.40991e-06
-2.38191e-06
2.43209e-06
2.83673e-08
2.45122e-06
7.39468e-07
2.47718e-06
7.10517e-07
2.48265e-06
3.83766e-07
2.48672e-06
-2.44647e-07
2.48021e-06
-4.06215e-07
2.46815e-06
-7.45054e-07
2.46122e-06
-7.04122e-07
2.43929e-06
-7.82133e-07
2.43608e-06
-6.46728e-07
2.42472e-06
-5.01846e-07
2.4222e-06
-3.95525e-07
2.41677e-06
-3.13861e-07
2.41329e-06
-2.18603e-07
2.4076e-06
-1.74559e-07
2.40515e-06
-1.00686e-07
-6.86327e-08
2.40151e-06
2.56748e-06
8.67365e-08
2.554e-06
-1.01283e-06
2.50261e-06
-2.33051e-06
2.52523e-06
5.74247e-09
2.54448e-06
7.20215e-07
2.57055e-06
6.84456e-07
2.57708e-06
3.77231e-07
2.58022e-06
-2.47791e-07
2.57615e-06
-4.0214e-07
2.5619e-06
-7.308e-07
2.55586e-06
-6.98081e-07
2.53296e-06
-7.59242e-07
2.52888e-06
-6.42648e-07
2.51742e-06
-4.90383e-07
2.51356e-06
-3.91669e-07
2.50757e-06
-3.07869e-07
2.5064e-06
-2.17428e-07
2.49946e-06
-1.67624e-07
2.49655e-06
-9.77743e-08
-6.55686e-08
2.49349e-06
2.66437e-06
8.20413e-08
2.65137e-06
-9.99825e-07
2.59884e-06
-2.27799e-06
2.62161e-06
-1.70364e-08
2.64105e-06
7.00779e-07
2.66736e-06
6.58151e-07
2.67537e-06
3.69213e-07
2.67725e-06
-2.49672e-07
2.67545e-06
-4.00333e-07
2.65942e-06
-7.14774e-07
2.65381e-06
-6.92473e-07
2.63047e-06
-7.35897e-07
2.62513e-06
-6.37307e-07
2.6139e-06
-4.79157e-07
2.60874e-06
-3.86511e-07
2.60089e-06
-3.00019e-07
2.5968e-06
-2.13336e-07
2.59131e-06
-1.62131e-07
2.59112e-06
-9.75842e-08
-6.29449e-08
2.5885e-06
2.76502e-06
7.76758e-08
2.75248e-06
-9.87288e-07
2.69872e-06
-2.22422e-06
2.72138e-06
-3.97016e-08
2.7411e-06
6.81066e-07
2.76776e-06
6.31491e-07
2.7776e-06
3.5937e-07
2.77802e-06
-2.50096e-07
2.77813e-06
-4.00441e-07
2.76084e-06
-6.97484e-07
2.7551e-06
-6.86728e-07
2.73207e-06
-7.12875e-07
2.72479e-06
-6.30026e-07
2.71473e-06
-4.69094e-07
2.70784e-06
-3.79623e-07
2.69854e-06
-2.90712e-07
2.69256e-06
-2.07364e-07
2.68659e-06
-1.56156e-07
2.68948e-06
-1.00475e-07
-6.02494e-08
2.68678e-06
2.86956e-06
7.35735e-08
2.85748e-06
-9.75208e-07
2.80238e-06
-2.16912e-06
2.8247e-06
-6.20235e-08
2.84482e-06
6.60941e-07
2.87186e-06
6.0445e-07
2.8838e-06
3.47434e-07
2.88266e-06
-2.4896e-07
2.88427e-06
-4.02043e-07
2.86628e-06
-6.79496e-07
2.85976e-06
-6.80211e-07
2.83809e-06
-6.91207e-07
2.82791e-06
-6.19847e-07
2.82044e-06
-4.61615e-07
2.81213e-06
-3.71316e-07
2.8096e-06
-2.88188e-07
2.80642e-06
-2.0418e-07
2.80147e-06
-1.51208e-07
2.79233e-06
-9.13276e-08
-5.64798e-08
2.78856e-06
2.97815e-06
6.96662e-08
2.96651e-06
-9.63564e-07
2.90994e-06
-2.11255e-06
2.93174e-06
-8.38194e-08
2.95245e-06
6.40232e-07
2.97979e-06
5.77111e-07
2.99399e-06
3.33228e-07
2.99129e-06
-2.46254e-07
2.99399e-06
-4.04744e-07
2.97573e-06
-6.61241e-07
2.9681e-06
-6.72575e-07
2.94835e-06
-6.71459e-07
2.9352e-06
-6.06701e-07
2.92982e-06
-4.56231e-07
2.92066e-06
-3.6216e-07
2.91907e-06
-2.86592e-07
2.91227e-06
-1.97379e-07
2.90366e-06
-1.42599e-07
2.8987e-06
-8.63736e-08
-5.23353e-08
2.89456e-06
3.09093e-06
6.58945e-08
3.07969e-06
-9.52325e-07
3.02159e-06
-2.05445e-06
3.0427e-06
-1.04933e-07
3.0642e-06
6.18735e-07
3.09163e-06
5.49678e-07
3.10823e-06
3.16634e-07
3.10396e-06
-2.41992e-07
3.1075e-06
-4.08276e-07
3.08915e-06
-6.4289e-07
3.08062e-06
-6.64055e-07
3.06183e-06
-6.52662e-07
3.04818e-06
-5.93052e-07
3.04219e-06
-4.50238e-07
3.03337e-06
-3.53345e-07
3.03203e-06
-2.85253e-07
3.02825e-06
-1.93601e-07
3.02339e-06
-1.3774e-07
3.0091e-06
-7.20826e-08
-4.81775e-08
3.00495e-06
3.20804e-06
6.22129e-08
3.19717e-06
-9.41455e-07
3.13751e-06
-1.99479e-06
3.15777e-06
-1.25188e-07
3.18032e-06
5.96181e-07
3.20753e-06
5.22476e-07
3.22656e-06
2.97595e-07
3.22084e-06
-2.36271e-07
3.22495e-06
-4.12381e-07
3.20647e-06
-6.24408e-07
3.19794e-06
-6.55529e-07
3.17768e-06
-6.32407e-07
3.16696e-06
-5.82332e-07
3.1585e-06
-4.41777e-07
3.1506e-06
-3.45438e-07
3.1316e-06
-2.6626e-07
3.12271e-06
-1.84712e-07
3.11681e-06
-1.31839e-07
3.12216e-06
-7.74328e-08
-4.6591e-08
3.12058e-06
3.32963e-06
5.85995e-08
3.3191e-06
-9.30925e-07
3.25792e-06
-1.93361e-06
3.27717e-06
-1.44445e-07
3.30097e-06
5.72384e-07
3.32779e-06
4.95656e-07
3.34895e-06
2.7644e-07
3.34228e-06
-2.29603e-07
3.34619e-06
-4.16297e-07
3.32858e-06
-6.0679e-07
3.31901e-06
-6.45965e-07
3.29958e-06
-6.12971e-07
3.2875e-06
-5.70257e-07
3.27468e-06
-4.28954e-07
3.26434e-06
-3.351e-07
3.24943e-06
-2.51354e-07
3.2414e-06
-1.76678e-07
3.23604e-06
-1.2648e-07
3.24165e-06
-8.30444e-08
-4.51729e-08
3.24023e-06
3.45583e-06
5.50526e-08
3.4456e-06
-9.20695e-07
3.38305e-06
-1.87106e-06
3.40113e-06
-1.6253e-07
3.42634e-06
5.47171e-07
3.45266e-06
4.69338e-07
3.47547e-06
2.53628e-07
3.46849e-06
-2.22622e-07
3.47137e-06
-4.19175e-07
3.45583e-06
-5.91246e-07
3.44375e-06
-6.3389e-07
3.42748e-06
-5.96701e-07
3.41084e-06
-5.53619e-07
3.4031e-06
-4.21215e-07
3.39155e-06
-3.23541e-07
3.39579e-06
-2.55599e-07
3.39531e-06
-1.76196e-07
3.3894e-06
-1.20573e-07
3.36855e-06
-6.2192e-08
-4.04548e-08
3.36383e-06
3.5868e-06
5.15947e-08
3.57682e-06
-9.10712e-07
3.5132e-06
-1.80744e-06
3.52981e-06
-1.7914e-07
3.55674e-06
5.20239e-07
3.58215e-06
4.43924e-07
3.60666e-06
2.2912e-07
3.59927e-06
-2.15229e-07
3.60153e-06
-4.21439e-07
3.58622e-06
-5.75932e-07
3.57516e-06
-6.22827e-07
3.55519e-06
-5.76734e-07
3.54434e-06
-5.42771e-07
3.53093e-06
-4.07803e-07
3.51929e-06
-3.11901e-07
3.50144e-06
-2.37755e-07
3.49338e-06
-1.68126e-07
3.4897e-06
-1.16896e-07
3.49556e-06
-6.8055e-08
-3.93159e-08
3.49442e-06
3.7227e-06
4.82781e-08
3.71294e-06
-9.00952e-07
3.64855e-06
-1.74304e-06
3.66356e-06
-1.94149e-07
3.69212e-06
4.91681e-07
3.71692e-06
4.19121e-07
3.74217e-06
2.03869e-07
3.7355e-06
-2.08558e-07
3.73565e-06
-4.21589e-07
3.72262e-06
-5.62898e-07
3.70968e-06
-6.09888e-07
3.68828e-06
-5.55333e-07
3.6735e-06
-5.27991e-07
3.66304e-06
-3.97347e-07
3.65205e-06
-3.00914e-07
3.63531e-06
-2.21007e-07
3.62671e-06
-1.59529e-07
3.62318e-06
-1.13366e-07
3.6305e-06
-7.53721e-08
-3.79154e-08
3.62909e-06
3.86372e-06
4.51466e-08
3.85413e-06
-8.91363e-07
3.78935e-06
-1.67826e-06
3.80264e-06
-2.07444e-07
3.83262e-06
4.61705e-07
3.85721e-06
3.94528e-07
3.88212e-06
1.78965e-07
3.87766e-06
-2.04104e-07
3.87359e-06
-4.17519e-07
3.86541e-06
-5.54716e-07
3.84547e-06
-5.89948e-07
3.83344e-06
-5.43303e-07
3.80915e-06
-5.03702e-07
3.80355e-06
-3.91751e-07
3.79703e-06
-2.94391e-07
3.80728e-06
-2.31252e-07
3.80654e-06
-1.58794e-07
3.79917e-06
-1.05991e-07
3.77462e-06
-5.08269e-08
-3.08385e-08
3.76755e-06
4.01006e-06
4.2245e-08
4.00054e-06
-8.81847e-07
3.93593e-06
-1.61365e-06
3.94709e-06
-2.18608e-07
3.97878e-06
4.30019e-07
4.00257e-06
3.70736e-07
4.02799e-06
1.53543e-07
4.02366e-06
-1.99778e-07
4.01976e-06
-4.13612e-07
4.00855e-06
-5.43512e-07
3.99372e-06
-5.75112e-07
3.97256e-06
-5.22141e-07
3.95627e-06
-4.8742e-07
3.9457e-06
-3.81182e-07
3.93536e-06
-2.84048e-07
3.91886e-06
-2.14749e-07
3.911e-06
-1.50938e-07
3.90789e-06
-1.02882e-07
3.91581e-06
-5.87492e-08
-2.97789e-08
3.91475e-06
4.16189e-06
3.96359e-08
4.15242e-06
-8.72379e-07
4.08831e-06
-1.54954e-06
4.09749e-06
-2.27785e-07
4.13028e-06
3.97232e-07
4.15404e-06
3.46974e-07
4.17877e-06
1.2881e-07
4.17559e-06
-1.96601e-07
4.17092e-06
-4.08936e-07
4.15757e-06
-5.3017e-07
4.14596e-06
-5.63501e-07
4.12271e-06
-4.98883e-07
4.10659e-06
-4.71301e-07
4.09434e-06
-3.68936e-07
4.08657e-06
-2.76282e-07
4.07049e-06
-1.98667e-07
4.06074e-06
-1.41185e-07
4.05749e-06
-9.96375e-08
4.06691e-06
-6.81642e-08
-2.86994e-08
4.06583e-06
4.31948e-06
3.73396e-08
4.30999e-06
-8.62884e-07
4.24672e-06
-1.48626e-06
4.25407e-06
-2.35134e-07
4.28727e-06
3.64032e-07
4.31196e-06
3.22283e-07
4.33437e-06
1.06394e-07
4.33428e-06
-1.96511e-07
4.32595e-06
-4.00598e-07
4.31597e-06
-5.2019e-07
4.29762e-06
-5.45152e-07
4.28139e-06
-4.82652e-07
4.25959e-06
-4.49503e-07
4.25116e-06
-3.60505e-07
4.24228e-06
-2.67405e-07
4.25284e-06
-2.09222e-07
4.2605e-06
-1.48846e-07
4.25504e-06
-9.41771e-08
4.22965e-06
-4.27773e-08
-1.96185e-08
4.22057e-06
4.48306e-06
3.5364e-08
4.4734e-06
-8.53227e-07
4.41147e-06
-1.42433e-06
4.41675e-06
-2.40409e-07
4.45054e-06
3.3024e-07
4.47528e-06
2.97542e-07
4.49721e-06
8.44699e-08
4.49686e-06
-1.96167e-07
4.48925e-06
-3.92991e-07
4.47641e-06
-5.07347e-07
4.46083e-06
-5.29567e-07
4.4422e-06
-4.64023e-07
4.42259e-06
-4.29898e-07
4.4131e-06
-3.51013e-07
4.40439e-06
-2.58698e-07
4.39131e-06
-1.96142e-07
4.37981e-06
-1.37345e-07
4.3769e-06
-9.12638e-08
4.3858e-06
-5.16808e-08
-1.99025e-08
4.38609e-06
4.65282e-06
3.37487e-08
4.64299e-06
-8.43397e-07
4.58251e-06
-1.36385e-06
4.58617e-06
-2.44078e-07
4.61963e-06
2.96785e-07
4.64535e-06
2.71821e-07
4.66591e-06
6.39066e-08
4.66563e-06
-1.95888e-07
4.65856e-06
-3.85914e-07
4.64344e-06
-4.92229e-07
4.62953e-06
-5.15656e-07
4.60973e-06
-4.44222e-07
4.59219e-06
-4.12365e-07
4.57995e-06
-3.3877e-07
4.57221e-06
-2.5096e-07
4.55966e-06
-1.83592e-07
4.55486e-06
-1.32541e-07
4.55015e-06
-8.65562e-08
4.55371e-06
-5.52439e-08
-2.14829e-08
4.5553e-06
4.82907e-06
3.24634e-08
4.81896e-06
-8.33285e-07
4.76003e-06
-1.30492e-06
4.76246e-06
-2.46499e-07
4.7948e-06
2.64443e-07
4.8222e-06
2.44424e-07
4.8406e-06
4.55044e-08
4.84161e-06
-1.96903e-07
4.8326e-06
-3.76903e-07
4.81906e-06
-4.78688e-07
4.80261e-06
-4.99203e-07
4.78536e-06
-4.26973e-07
4.76659e-06
-3.93594e-07
4.7544e-06
-3.26579e-07
4.74639e-06
-2.42956e-07
4.73778e-06
-1.74977e-07
4.73496e-06
-1.29724e-07
4.73441e-06
-8.6008e-08
4.73002e-06
-5.08516e-08
-2.18476e-08
4.73038e-06
5.01205e-06
3.14861e-08
5.00153e-06
-8.22771e-07
4.94439e-06
-1.24778e-06
4.94561e-06
-2.47722e-07
4.97674e-06
2.33315e-07
5.00511e-06
2.16057e-07
5.02262e-06
2.7991e-08
5.02349e-06
-1.97773e-07
5.01366e-06
-3.67077e-07
5.00036e-06
-4.65386e-07
4.98346e-06
-4.82299e-07
4.96712e-06
-4.1064e-07
4.94806e-06
-3.7453e-07
4.93589e-06
-3.14405e-07
4.92854e-06
-2.35614e-07
4.92076e-06
-1.67196e-07
4.91302e-06
-1.21979e-07
4.90716e-06
-8.0154e-08
4.91099e-06
-5.4681e-08
-2.40653e-08
4.91321e-06
5.20199e-06
3.08053e-08
5.19103e-06
-8.11812e-07
5.13566e-06
-1.1924e-06
5.13615e-06
-2.48207e-07
5.16548e-06
2.03987e-07
5.19479e-06
1.86741e-07
5.21142e-06
1.1361e-08
5.21216e-06
-1.98513e-07
5.20155e-06
-3.56464e-07
5.18811e-06
-4.51945e-07
5.17136e-06
-4.65551e-07
5.15566e-06
-3.94937e-07
5.13684e-06
-3.55713e-07
5.12459e-06
-3.02155e-07
5.11715e-06
-2.28175e-07
5.11004e-06
-1.60086e-07
5.10585e-06
-1.17787e-07
5.1056e-06
-7.99e-08
5.10086e-06
-4.99486e-08
-2.52992e-08
5.1021e-06
5.3992e-06
3.03815e-08
5.38769e-06
-8.00302e-07
5.33418e-06
-1.13889e-06
5.33417e-06
-2.48204e-07
5.36165e-06
1.76509e-07
5.39119e-06
1.57202e-07
5.40739e-06
-4.83558e-09
5.40784e-06
-1.98971e-07
5.39645e-06
-3.45072e-07
5.38271e-06
-4.38201e-07
5.36659e-06
-4.4943e-07
5.35135e-06
-3.797e-07
5.33313e-06
-3.37491e-07
5.32041e-06
-2.89435e-07
5.31318e-06
-2.20944e-07
5.30694e-06
-1.53845e-07
5.30033e-06
-1.11179e-07
5.29528e-06
-7.48449e-08
5.2967e-06
-5.137e-08
-2.74067e-08
5.2988e-06
5.60393e-06
3.01879e-08
5.59179e-06
-7.88164e-07
5.54022e-06
-1.08731e-06
5.54e-06
-2.47987e-07
5.56562e-06
1.50889e-07
5.59459e-06
1.28232e-07
5.61063e-06
-2.08745e-08
5.61064e-06
-1.98987e-07
5.59895e-06
-3.33376e-07
5.58478e-06
-4.24036e-07
5.56931e-06
-4.33964e-07
5.55457e-06
-3.64959e-07
5.53701e-06
-3.19931e-07
5.52394e-06
-2.76359e-07
5.51667e-06
-2.13679e-07
5.51099e-06
-1.48165e-07
5.50551e-06
-1.05693e-07
5.50274e-06
-7.20785e-08
5.50102e-06
-4.96525e-08
-2.89617e-08
5.50258e-06
5.81649e-06
3.01816e-08
5.80365e-06
-7.75332e-07
5.75403e-06
-1.03769e-06
5.75386e-06
-2.47814e-07
5.77765e-06
1.27099e-07
5.8054e-06
1.00483e-07
5.82116e-06
-3.66363e-08
5.82106e-06
-1.98889e-07
5.8094e-06
-3.21718e-07
5.79471e-06
-4.0934e-07
5.77969e-06
-4.18951e-07
5.76559e-06
-3.50858e-07
5.7487e-06
-3.03034e-07
5.73551e-06
-2.6317e-07
5.72769e-06
-2.05861e-07
5.72307e-06
-1.43542e-07
5.71842e-06
-1.01047e-07
5.7169e-06
-7.05617e-08
5.71338e-06
-4.6127e-08
-2.96014e-08
5.71402e-06
6.03716e-06
3.03163e-08
6.02353e-06
-7.61699e-07
5.97596e-06
-9.90116e-07
5.97585e-06
-2.47705e-07
5.99818e-06
1.04772e-07
6.02391e-06
7.47508e-08
6.03962e-06
-5.235e-08
6.0394e-06
-1.98665e-07
6.02804e-06
-3.10358e-07
6.01271e-06
-3.94015e-07
5.99812e-06
-4.04356e-07
5.98467e-06
-3.37406e-07
5.96852e-06
-2.86887e-07
5.95527e-06
-2.49919e-07
5.94703e-06
-1.97625e-07
5.94312e-06
-1.39627e-07
5.93753e-06
-9.54573e-08
5.93334e-06
-6.63707e-08
5.93327e-06
-4.60565e-08
-3.01467e-08
5.93381e-06
6.26626e-06
3.05532e-08
6.25179e-06
-7.4722e-07
6.20628e-06
-9.44611e-07
6.20626e-06
-2.47688e-07
6.2273e-06
8.37329e-08
6.25107e-06
5.09854e-08
6.26624e-06
-6.75227e-08
6.26606e-06
-1.98487e-07
6.25509e-06
-2.9939e-07
6.23933e-06
-3.78255e-07
6.22482e-06
-3.89841e-07
6.21219e-06
-3.24774e-07
6.19664e-06
-2.71342e-07
6.18366e-06
-2.36937e-07
6.17489e-06
-1.88856e-07
6.17115e-06
-1.35885e-07
6.16744e-06
-9.17478e-08
6.1663e-06
-6.52271e-08
6.16232e-06
-4.20827e-08
-2.96589e-08
6.16184e-06
6.50412e-06
3.08349e-08
6.4887e-06
-7.31795e-07
6.44532e-06
-9.01232e-07
6.44526e-06
-2.47626e-07
6.46541e-06
6.35812e-08
6.48719e-06
2.92059e-08
6.50153e-06
-8.1866e-08
6.50136e-06
-1.98316e-07
6.49083e-06
-2.88864e-07
6.47488e-06
-3.62298e-07
6.46012e-06
-3.75082e-07
6.44835e-06
-3.13012e-07
6.43348e-06
-2.56471e-07
6.4208e-06
-2.24256e-07
6.41172e-06
-1.79774e-07
6.40795e-06
-1.3212e-07
6.40385e-06
-8.76393e-08
6.40009e-06
-6.14715e-08
6.3995e-06
-4.14889e-08
-2.90889e-08
6.39893e-06
6.75105e-06
3.11193e-08
6.73459e-06
-7.15326e-07
6.69341e-06
-8.60054e-07
6.69322e-06
-2.47442e-07
6.71272e-06
4.40838e-08
6.73274e-06
9.18548e-09
6.74588e-06
-9.50075e-08
6.74558e-06
-1.98012e-07
6.7355e-06
-2.78782e-07
6.71961e-06
-3.46405e-07
6.70443e-06
-3.59904e-07
6.69351e-06
-3.02091e-07
6.67938e-06
-2.42339e-07
6.66704e-06
-2.11918e-07
6.65787e-06
-1.70611e-07
6.65357e-06
-1.27818e-07
6.65089e-06
-8.49595e-08
6.64912e-06
-5.96952e-08
6.64628e-06
-3.86555e-08
-2.78033e-08
6.645e-06
7.00741e-06
3.13547e-08
6.98977e-06
-6.9768e-07
6.95089e-06
-8.2118e-07
6.95053e-06
-2.47075e-07
6.96964e-06
2.49719e-08
6.98814e-06
-9.31915e-09
6.9997e-06
-1.06569e-07
6.99912e-06
-1.9743e-07
6.98945e-06
-2.69114e-07
6.97387e-06
-3.30826e-07
6.95821e-06
-3.44241e-07
6.94792e-06
-2.91798e-07
6.93471e-06
-2.29135e-07
6.92263e-06
-1.99832e-07
6.91354e-06
-1.61521e-07
6.9088e-06
-1.23078e-07
6.90616e-06
-8.23234e-08
6.90317e-06
-5.66982e-08
6.90209e-06
-3.75796e-08
-2.63306e-08
6.90062e-06
7.27354e-06
3.1501e-08
7.25455e-06
-6.7869e-07
7.2181e-06
-7.84722e-07
7.21757e-06
-2.46549e-07
7.23657e-06
5.97024e-09
7.25377e-06
-2.65217e-08
7.26344e-06
-1.16239e-07
7.26234e-06
-1.96328e-07
7.253e-06
-2.59768e-07
7.23795e-06
-3.15783e-07
7.22185e-06
-3.28137e-07
7.21188e-06
-2.81835e-07
7.19983e-06
-2.17081e-07
7.18791e-06
-1.87911e-07
7.17913e-06
-1.52739e-07
7.17384e-06
-1.17788e-07
7.17175e-06
-8.02303e-08
7.16965e-06
-5.45987e-08
7.16785e-06
-3.57787e-08
-2.4595e-08
7.16611e-06
7.54981e-06
3.15235e-08
7.52942e-06
-6.58298e-07
7.49534e-06
-7.50644e-07
7.49476e-06
-2.45966e-07
7.51346e-06
-1.27312e-08
7.53001e-06
-4.30734e-08
7.53739e-06
-1.23624e-07
7.53566e-06
-1.9459e-07
7.52654e-06
-2.50656e-07
7.51218e-06
-3.01423e-07
7.49581e-06
-3.11767e-07
7.48581e-06
-2.71835e-07
7.47509e-06
-2.06358e-07
7.46335e-06
-1.76173e-07
7.45488e-06
-1.44271e-07
7.44917e-06
-1.1207e-07
7.44706e-06
-7.81242e-08
7.44483e-06
-5.23722e-08
7.44352e-06
-3.44642e-08
-2.28914e-08
7.44182e-06
7.83658e-06
3.13947e-08
7.81487e-06
-6.36582e-07
7.78297e-06
-7.1875e-07
7.7824e-06
-2.45391e-07
7.8006e-06
-3.09354e-08
7.81695e-06
-5.94233e-08
7.82185e-06
-1.28525e-07
7.81949e-06
-1.92229e-07
7.81054e-06
-2.41703e-07
7.79685e-06
-2.87734e-07
7.78051e-06
-2.95428e-07
7.77009e-06
-2.61413e-07
7.76077e-06
-1.97038e-07
7.74928e-06
-1.64681e-07
7.74115e-06
-1.36138e-07
7.73513e-06
-1.06053e-07
7.73289e-06
-7.58829e-08
7.73083e-06
-5.03152e-08
7.72971e-06
-3.33473e-08
-2.12924e-08
7.72811e-06
8.13425e-06
3.11011e-08
8.11142e-06
-6.13747e-07
8.0814e-06
-6.88729e-07
8.08084e-06
-2.44828e-07
8.09856e-06
-4.8664e-08
8.11401e-06
-7.48719e-08
8.11697e-06
-1.3148e-07
8.11427e-06
-1.89526e-07
8.10542e-06
-2.32861e-07
8.0923e-06
-2.74613e-07
8.07634e-06
-2.79465e-07
8.06524e-06
-2.50318e-07
8.05717e-06
-1.88965e-07
8.0462e-06
-1.53714e-07
8.03826e-06
-1.28194e-07
8.03216e-06
-9.99584e-08
8.02968e-06
-7.33971e-08
8.02786e-06
-4.84919e-08
8.02677e-06
-3.22579e-08
-1.98848e-08
8.02536e-06
8.44323e-06
3.06357e-08
8.4195e-06
-5.90025e-07
8.39069e-06
-6.59912e-07
8.39023e-06
-2.44374e-07