/*--------------------------------*- C++ -*----------------------------------*\
| =========                 |                                                 |
| \\      /  F ield         | OpenFOAM: The Open Source CFD Toolbox           |
|  \\    /   O peration     | Version:  v2012                                 |
|   \\  /    A nd           | Website:  www.openfoam.com                      |
|    \\/     M anipulation  |                                                 |
\*---------------------------------------------------------------------------*/
FoamFile
{
    version     2.0;
    format      ascii;
    class       surfaceScalarField;
    location    "5.2";
    object      phi;
}
// * * * * * * * * * * * * * * * * * * * * * * * * * * * * * * * * * * * * * //

dimensions      [0 3 -1 0 0 0 0];
oriented        oriented;


internalField   nonuniform List<scalar> 
13830
(
9.38657e-07
2.14264e-07
9.29712e-07
-2.8216e-07
9.50789e-07
-2.11907e-08
8.77642e-07
-1.01624e-06
1.00438e-06
3.79265e-07
9.0205e-07
9.22657e-07
8.86087e-07
3.2193e-07
9.30757e-07
8.35782e-07
8.93762e-07
3.29905e-08
9.31251e-07
3.39556e-07
9.29274e-07
-3.6133e-07
9.41182e-07
-1.69313e-07
9.41311e-07
-3.87116e-07
9.30029e-07
-3.52025e-07
9.36937e-07
-2.44874e-07
9.18207e-07
-3.47669e-07
9.28071e-07
-1.55767e-07
9.11499e-07
-2.48195e-07
9.17771e-07
-1.14364e-07
-1.84287e-07
8.92677e-07
9.73524e-07
2.13272e-07
9.64757e-07
-2.73393e-07
9.85822e-07
-4.22555e-08
9.10794e-07
-9.41213e-07
1.04317e-06
2.46891e-07
9.45513e-07
1.02031e-06
9.22493e-07
3.44949e-07
9.8208e-07
7.76196e-07
9.37983e-07
7.7087e-08
9.78507e-07
2.99032e-07
9.71738e-07
-3.54561e-07
9.85651e-07
-1.83226e-07
9.77086e-07
-3.78551e-07
9.72689e-07
-3.47629e-07
9.67792e-07
-2.39977e-07
9.5957e-07
-3.39447e-07
9.56653e-07
-1.52851e-07
9.53564e-07
-2.45105e-07
9.45148e-07
-1.05948e-07
-1.78597e-07
9.39457e-07
1.00943e-06
2.13297e-07
1.00123e-06
-2.652e-07
1.02126e-06
-6.22828e-08
9.50223e-07
-8.70174e-07
1.07646e-06
1.20656e-07
1.00489e-06
1.09188e-06
9.61547e-07
3.88289e-07
1.03058e-06
7.07165e-07
9.86268e-07
1.21397e-07
1.01877e-06
2.66531e-07
1.01036e-06
-3.46151e-07
1.02165e-06
-1.94513e-07
1.0083e-06
-3.65201e-07
1.00777e-06
-3.47099e-07
9.97872e-07
-2.30083e-07
9.95419e-07
-3.36994e-07
9.89202e-07
-1.46634e-07
9.9009e-07
-2.45993e-07
9.80894e-07
-9.6753e-08
-1.74838e-07
9.77135e-07
1.04674e-06
2.14339e-07
1.03941e-06
-2.5787e-07
1.05737e-06
-8.02493e-08
9.95789e-07
-8.08591e-07
1.10722e-06
9.22831e-09
1.06797e-06
1.13113e-06
1.00567e-06
4.50594e-07
1.06824e-06
6.44595e-07
1.03469e-06
1.54946e-07
1.05518e-06
2.46042e-07
1.04874e-06
-3.39715e-07
1.05467e-06
-2.00441e-07
1.04101e-06
-3.51543e-07
1.04027e-06
-3.46355e-07
1.02991e-06
-2.19725e-07
1.02889e-06
-3.35981e-07
1.02275e-06
-1.40486e-07
1.02412e-06
-2.47366e-07
1.01631e-06
-8.89456e-08
-1.70887e-07
1.01236e-06
1.08578e-06
2.16118e-07
1.07936e-06
-2.51451e-07
1.09446e-06
-9.53513e-08
1.0463e-06
-7.60428e-07
1.13576e-06
-8.02339e-08
1.12496e-06
1.14193e-06
1.05489e-06
5.20664e-07
1.10024e-06
5.99247e-07
1.0824e-06
1.72785e-07
1.0939e-06
2.34543e-07
1.08969e-06
-3.3551e-07
1.09119e-06
-2.0194e-07
1.07788e-06
-3.38228e-07
1.0758e-06
-3.44272e-07
1.0657e-06
-2.09627e-07
1.0645e-06
-3.34788e-07
1.05861e-06
-1.34597e-07
1.05944e-06
-2.48192e-07
1.05282e-06
-8.23225e-08
-1.66269e-07
1.0482e-06
1.12681e-06
2.18148e-07
1.12103e-06
-2.45666e-07
1.13299e-06
-1.07311e-07
1.09927e-06
-7.26705e-07
1.16339e-06
-1.44357e-07
1.17191e-06
1.1334e-06
1.1077e-06
5.84869e-07
1.13399e-06
5.72966e-07
1.12966e-06
1.77113e-07
1.13732e-06
2.2688e-07
1.13383e-06
-3.3202e-07
1.13301e-06
-2.01121e-07
1.11904e-06
-3.2426e-07
1.11581e-06
-3.41039e-07
1.10546e-06
-1.99279e-07
1.10364e-06
-3.32962e-07
1.09774e-06
-1.28701e-07
1.09761e-06
-2.48058e-07
1.09173e-06
-7.64456e-08
-1.60931e-07
1.08639e-06
1.16997e-06
2.19882e-07
1.16433e-06
-2.40035e-07
1.17341e-06
-1.16383e-07
1.15234e-06
-7.05633e-07
1.19209e-06
-1.84107e-07
1.21072e-06
1.11477e-06
1.16156e-06
6.34029e-07
1.1733e-06
5.61217e-07
1.17704e-06
1.73378e-07
1.18472e-06
2.19197e-07
1.18061e-06
-3.2791e-07
1.17915e-06
-1.99655e-07
1.16371e-06
-3.08826e-07
1.15972e-06
-3.37049e-07
1.14871e-06
-1.88262e-07
1.14609e-06
-3.30352e-07
1.14008e-06
-1.22684e-07
1.13873e-06
-2.46708e-07
1.13335e-06
-7.10714e-08
-1.54864e-07
1.12729e-06
1.21517e-06
2.20889e-07
1.20925e-06
-2.34108e-07
1.21597e-06
-1.23109e-07
1.2042e-06
-6.93858e-07
1.22374e-06
-2.03648e-07
1.24587e-06
1.09264e-06
1.21426e-06
6.65648e-07
1.21827e-06
5.57201e-07
1.22518e-06
1.66464e-07
1.23438e-06
2.10005e-07
1.22909e-06
-3.22623e-07
1.22795e-06
-1.98513e-07
1.21095e-06
-2.91828e-07
1.20648e-06
-3.32575e-07
1.19484e-06
-1.76626e-07
1.19129e-06
-3.268e-07
1.18521e-06
-1.16601e-07
1.18242e-06
-2.43921e-07
1.17747e-06
-6.61217e-08
-1.48032e-07
1.17064e-06
1.26227e-06
2.20973e-07
1.25582e-06
-2.27657e-07
1.2607e-06
-1.27996e-07
1.25475e-06
-6.87901e-07
1.2595e-06
-2.08397e-07
1.28154e-06
1.0706e-06
1.26508e-06
6.82109e-07
1.26716e-06
5.55118e-07
1.27441e-06
1.59214e-07
1.28491e-06
1.99505e-07
1.27838e-06
-3.16097e-07
1.2781e-06
-1.98232e-07
1.26004e-06
-2.73763e-07
1.25526e-06
-3.27799e-07
1.24344e-06
-1.64801e-07
1.23882e-06
-3.22188e-07
1.2328e-06
-1.1058e-07
1.22843e-06
-2.39549e-07
1.22387e-06
-6.15635e-08
-1.40425e-07
1.21627e-06
1.31108e-06
2.20169e-07
1.30417e-06
-2.20741e-07
1.30747e-06
-1.31301e-07
1.3047e-06
-6.8513e-07
1.29965e-06
-2.03348e-07
1.32021e-06
1.05004e-06
1.31472e-06
6.87591e-07
1.31823e-06
5.51614e-07
1.32464e-06
1.52798e-07
1.33571e-06
1.88442e-07
1.32801e-06
-3.08404e-07
1.32891e-06
-1.99129e-07
1.31057e-06
-2.5542e-07
1.30567e-06
-3.22905e-07
1.29422e-06
-1.53349e-07
1.28854e-06
-3.16504e-07
1.28274e-06
-1.04781e-07
1.27676e-06
-2.33574e-07
1.27255e-06
-5.73485e-08
-1.32099e-07
1.26422e-06
1.36153e-06
2.18662e-07
1.35445e-06
-2.13662e-07
1.35613e-06
-1.32984e-07
1.35508e-06
-6.84074e-07
1.34398e-06
-1.92254e-07
1.36281e-06
1.03121e-06
1.36454e-06
6.85869e-07
1.37053e-06
5.45616e-07
1.3757e-06
1.47634e-07
1.38673e-06
1.77413e-07
1.37793e-06
-2.99611e-07
1.38019e-06
-2.01384e-07
1.36236e-06
-2.37591e-07
1.35756e-06
-3.18109e-07
1.347e-06
-1.42789e-07
1.34034e-06
-3.09844e-07
1.33497e-06
-9.94033e-08
1.32751e-06
-2.26119e-07
1.32359e-06
-5.34291e-08
-1.23187e-07
1.31468e-06
1.41363e-06
2.16685e-07
1.40682e-06
-2.06856e-07
1.40664e-06
-1.32804e-07
1.40678e-06
-6.84212e-07
1.3921e-06
-1.77569e-07
1.40941e-06
1.01389e-06
1.41576e-06
6.79527e-07
1.42392e-06
5.37455e-07
1.42756e-06
1.43995e-07
1.43827e-06
1.66697e-07
1.42843e-06
-2.89773e-07
1.43211e-06
-2.05065e-07
1.41543e-06
-2.20908e-07
1.41091e-06
-3.13589e-07
1.40164e-06
-1.33519e-07
1.39413e-06
-3.02329e-07
1.38939e-06
-9.46726e-08
1.38069e-06
-2.17417e-07
1.37706e-06
-4.97928e-08
-1.13892e-07
1.36776e-06
1.46748e-06
2.14449e-07
1.46141e-06
-2.00781e-07
1.45909e-06
-1.30491e-07
1.46039e-06
-6.85509e-07
1.44358e-06
-1.6076e-07
1.45978e-06
9.97698e-07
1.46921e-06
6.70096e-07
1.47866e-06
5.28008e-07
1.48046e-06
1.42194e-07
1.49081e-06
1.56346e-07
1.47999e-06
-2.78959e-07
1.48505e-06
-2.10119e-07
1.46994e-06
-2.05797e-07
1.46573e-06
-3.09385e-07
1.45801e-06
-1.25792e-07
1.44973e-06
-2.9405e-07
1.44583e-06
-9.07739e-08
1.43617e-06
-2.07758e-07
1.43283e-06
-4.64567e-08
-1.04455e-07
1.4234e-06
1.52321e-06
2.12112e-07
1.51823e-06
-1.95801e-07
1.51367e-06
-1.25931e-07
1.51613e-06
-6.87965e-07
1.49804e-06
-1.42675e-07
1.51368e-06
9.82065e-07
1.52528e-06
6.5849e-07
1.53513e-06
5.18156e-07
1.53479e-06
1.42538e-07
1.54485e-06
1.46286e-07
1.53317e-06
-2.67281e-07
1.53941e-06
-2.16358e-07
1.52613e-06
-1.9252e-07
1.52209e-06
-3.05343e-07
1.51602e-06
-1.19721e-07
1.50703e-06
-2.85064e-07
1.50404e-06
-8.77758e-08
1.49371e-06
-1.97437e-07
1.4907e-06
-4.34383e-08
-9.51108e-08
1.48135e-06
1.58096e-06
2.09768e-07
1.57726e-06
-1.92103e-07
1.57062e-06
-1.1929e-07
1.57396e-06
-6.91303e-07
1.55514e-06
-1.23857e-07
1.57095e-06
9.66247e-07
1.58404e-06
6.45399e-07
1.5937e-06
5.08504e-07
1.59099e-06
1.45243e-07
1.60087e-06
1.36405e-07
1.58849e-06
-2.54897e-07
1.59556e-06
-2.23428e-07
1.58428e-06
-1.81236e-07
1.58009e-06
-3.0116e-07
1.57565e-06
-1.15279e-07
1.56603e-06
-2.75439e-07
1.56384e-06
-8.55932e-08
1.5531e-06
-1.86697e-07
1.55039e-06
-4.07234e-08
-8.60379e-08
1.54132e-06
1.64086e-06
2.07452e-07
1.63841e-06
-1.89655e-07
1.63013e-06
-1.11012e-07
1.63372e-06
-6.94893e-07
1.61463e-06
-1.04767e-07
1.63148e-06
9.49396e-07
1.64537e-06
6.31512e-07
1.65459e-06
4.99282e-07
1.64944e-06
1.50397e-07
1.65925e-06
1.26596e-07
1.64638e-06
-2.42026e-07
1.65377e-06
-2.30823e-07
1.64456e-06
-1.72031e-07
1.63989e-06
-2.96488e-07
1.63693e-06
-1.12319e-07
1.62678e-06
-2.65287e-07
1.62521e-06
-8.4022e-08
1.61422e-06
-1.75703e-07
1.61174e-06
-3.82513e-08
-7.73239e-08
1.60303e-06
1.70305e-06
2.05154e-07
1.70165e-06
-1.88257e-07
1.69232e-06
-1.01678e-07
1.69529e-06
-6.97871e-07
1.67645e-06
-8.59194e-08
1.69511e-06
9.30737e-07
1.70905e-06
6.17566e-07
1.71794e-06
4.90393e-07
1.7104e-06
1.57935e-07
1.7202e-06
1.16803e-07
1.70711e-06
-2.28938e-07
1.7142e-06
-2.37919e-07
1.7071e-06
-1.64923e-07
1.70167e-06
-2.91065e-07
1.69998e-06
-1.1062e-07
1.68943e-06
-2.54743e-07
1.68824e-06
-8.28343e-08
1.67709e-06
-1.64549e-07
1.67476e-06
-3.59259e-08
-6.89695e-08
1.66641e-06
1.76763e-06
2.02842e-07
1.76702e-06
-1.87647e-07
1.75715e-06
-9.18104e-08
1.75868e-06
-6.99401e-07
1.74064e-06
-6.78778e-08
1.76162e-06
9.09762e-07
1.77493e-06
6.04251e-07
1.78379e-06
4.81538e-07
1.77408e-06
1.6764e-07
1.78385e-06
1.07029e-07
1.77085e-06
-2.15937e-07
1.77699e-06
-2.44053e-07
1.7719e-06
-1.59841e-07
1.76563e-06
-2.8479e-07
1.76496e-06
-1.09951e-07
1.75413e-06
-2.43913e-07
1.75316e-06
-8.18649e-08
1.7419e-06
-1.53291e-07
1.73962e-06
-3.36416e-08
-6.09256e-08
1.73157e-06
1.83469e-06
2.00485e-07
1.83466e-06
-1.87613e-07
1.82456e-06
-8.17091e-08
1.82408e-06
-6.98926e-07
1.80735e-06
-5.11431e-08
1.83076e-06
8.86349e-07
1.84297e-06
5.92044e-07
1.85212e-06
4.72389e-07
1.84063e-06
1.7913e-07
1.85031e-06
9.73496e-08
1.8377e-06
-2.03331e-07
1.84225e-06
-2.48602e-07
1.83902e-06
-1.56613e-07
1.83194e-06
-2.7771e-07
1.8321e-06
-1.10105e-07
1.82104e-06
-2.32854e-07
1.8202e-06
-8.10311e-08
1.8089e-06
-1.41987e-07
1.80657e-06
-3.13115e-08
-5.31441e-08
1.79879e-06
1.90432e-06
1.98069e-07
1.90475e-06
-1.88045e-07
1.89446e-06
-7.14234e-08
1.89182e-06
-6.96285e-07
1.8767e-06
-3.60249e-08
1.9023e-06
8.60747e-07
1.91324e-06
5.81107e-07
1.92292e-06
4.62707e-07
1.91019e-06
1.91859e-07
1.91964e-06
8.79063e-08
1.90771e-06
-1.91404e-07
1.91016e-06
-2.51055e-07
1.90854e-06
-1.54989e-07
1.90078e-06
-2.69946e-07
1.90158e-06
-1.10909e-07
1.8903e-06
-2.21574e-07
1.88958e-06
-8.03116e-08
1.87832e-06
-1.30722e-07
1.87589e-06
-2.88828e-08
-4.56165e-08
1.86836e-06
1.97658e-06
1.95589e-07
1.97746e-06
-1.88918e-07
1.96688e-06
-6.08457e-08
1.96225e-06
-6.91661e-07
1.94881e-06
-2.25807e-08
1.97609e-06
8.33467e-07
1.98589e-06
5.71305e-07
1.99621e-06
4.52392e-07
1.98293e-06
2.05137e-07
1.99192e-06
7.89151e-08
1.98092e-06
-1.80406e-07
1.98095e-06
-2.51088e-07
1.98061e-06
-1.54641e-07
1.97228e-06
-2.61616e-07
1.97355e-06
-1.12186e-07
1.96207e-06
-2.10089e-07
1.96144e-06
-7.96879e-08
1.95034e-06
-1.19616e-07
1.94779e-06
-2.63369e-08
-3.83836e-08
1.94056e-06
2.05159e-06
1.93045e-07
2.05291e-06
-1.90236e-07
2.04192e-06
-4.98527e-08
2.03567e-06
-6.85408e-07
2.02374e-06
-1.06503e-08
2.05209e-06
8.05117e-07
2.06106e-06
5.62333e-07
2.07197e-06
4.41475e-07
2.05895e-06
2.18166e-07
2.06718e-06
7.06765e-08
2.05732e-06
-1.70539e-07
2.05482e-06
-2.4859e-07
2.05537e-06
-1.55193e-07
2.04657e-06
-2.52811e-07
2.04811e-06
-1.13731e-07
2.03647e-06
-1.98443e-07
2.03589e-06
-7.91137e-08
2.02508e-06
-1.08807e-07
2.02242e-06
-2.36773e-08
-3.15198e-08
2.01556e-06
2.12946e-06
1.90428e-07
2.1312e-06
-1.91977e-07
2.11976e-06
-3.84127e-08
2.11224e-06
-6.77886e-07
2.10153e-06
5.53358e-11
2.13037e-06
7.76279e-07
2.13884e-06
5.53858e-07
2.15023e-06
4.30086e-07
2.13832e-06
2.30081e-07
2.14543e-06
6.35678e-08
2.13682e-06
-1.61934e-07
2.13192e-06
-2.43689e-07
2.13298e-06
-1.56249e-07
2.12378e-06
-2.43617e-07
2.12536e-06
-1.15306e-07
2.11362e-06
-1.86711e-07
2.11301e-06
-7.85021e-08
2.10265e-06
-9.84412e-08
2.09989e-06
-2.09169e-08
-2.51011e-08
2.09347e-06
2.21028e-06
1.87727e-07
2.21238e-06
-1.94074e-07
2.20059e-06
-2.66182e-08
2.19207e-06
-6.69368e-07
2.18226e-06
9.86406e-09
2.21109e-06
7.47448e-07
2.21935e-06
5.45594e-07
2.23099e-06
4.18448e-07
2.22106e-06
2.40015e-07
2.22664e-06
5.79883e-08
2.21934e-06
-1.54638e-07
2.21237e-06
-2.36722e-07
2.21353e-06
-1.57409e-07
2.20404e-06
-2.34122e-07
2.20541e-06
-1.16674e-07
2.19368e-06
-1.74985e-07
2.19291e-06
-7.77276e-08
2.1831e-06
-8.86349e-08
2.18028e-06
-1.80935e-08
-1.91715e-08
2.17435e-06
2.29419e-06
1.84933e-07
2.29653e-06
-1.9642e-07
2.28458e-06
-1.46618e-08
2.27525e-06
-6.60036e-07
2.26603e-06
1.90837e-08
2.29445e-06
7.19027e-07
2.30273e-06
5.3731e-07
2.3143e-06
4.06884e-07
2.30711e-06
2.47201e-07
2.31085e-06
5.42469e-08
2.30481e-06
-1.48602e-07
2.29626e-06
-2.28167e-07
2.29715e-06
-1.58297e-07
2.28746e-06
-2.24436e-07
2.28842e-06
-1.17631e-07
2.27679e-06
-1.63362e-07
2.2757e-06
-7.66368e-08
2.26649e-06
-7.94197e-08
2.26372e-06
-1.53294e-08
-1.37229e-08
2.25828e-06
2.38128e-06
1.82042e-07
2.38374e-06
-1.98883e-07
2.37186e-06
-2.78735e-09
2.36185e-06
-6.5002e-07
2.35296e-06
2.79701e-08
2.38064e-06
6.91347e-07
2.38917e-06
5.28777e-07
2.40024e-06
3.9582e-07
2.39637e-06
2.51073e-07
2.39817e-06
5.24437e-08
2.39323e-06
-1.43665e-07
2.38363e-06
-2.18562e-07
2.38389e-06
-1.5856e-07
2.37419e-06
-2.14731e-07
2.37455e-06
-1.17989e-07
2.36313e-06
-1.51952e-07
2.36145e-06
-7.49481e-08
2.35269e-06
-7.06656e-08
2.35037e-06
-1.30115e-08
-8.69714e-09
2.34535e-06
2.47166e-06
1.79057e-07
2.4741e-06
-2.01319e-07
2.46256e-06
8.75271e-09
2.45197e-06
-6.39432e-07
2.44323e-06
3.67103e-08
2.46988e-06
6.64697e-07
2.47893e-06
5.19733e-07
2.48902e-06
3.85729e-07
2.48873e-06
2.5136e-07
2.48872e-06
5.2455e-08
2.48463e-06
-1.39577e-07
2.47454e-06
-2.08474e-07
2.47387e-06
-1.57883e-07
2.46432e-06
-2.05185e-07
2.46395e-06
-1.17615e-07
2.45295e-06
-1.40957e-07
2.44985e-06
-7.18462e-08
2.44149e-06
-6.23064e-08
2.44039e-06
-1.19088e-08
-3.9867e-09
2.43568e-06
2.56547e-06
1.75984e-07
2.56773e-06
-2.03579e-07
2.55676e-06
1.97278e-08
2.54571e-06
-6.28381e-07
2.53701e-06
4.54039e-08
2.56237e-06
6.39337e-07
2.57223e-06
5.09878e-07
2.58096e-06
3.76995e-07
2.58416e-06
2.48163e-07
2.58262e-06
5.39948e-08
2.57909e-06
-1.36053e-07
2.56904e-06
-1.9842e-07
2.56724e-06
-1.56084e-07
2.55792e-06
-1.95867e-07
2.5568e-06
-1.16496e-07
2.54628e-06
-1.3043e-07
2.54711e-06
-7.2682e-08
2.54146e-06
-5.66586e-08
2.53396e-06
-4.40071e-09
5.83362e-10
2.52939e-06
2.66284e-06
1.72829e-07
2.66478e-06
-2.0552e-07
2.65455e-06
2.99494e-08
2.64313e-06
-6.16955e-07
2.63449e-06
5.40451e-08
2.65831e-06
6.15515e-07
2.66925e-06
4.98934e-07
2.67637e-06
3.69883e-07
2.68271e-06
2.41816e-07
2.68001e-06
5.66991e-08
2.67673e-06
-1.32777e-07
2.6672e-06
-1.88886e-07
2.66413e-06
-1.53016e-07
2.65509e-06
-1.86831e-07
2.65379e-06
-1.15194e-07
2.64161e-06
-1.18245e-07
2.63732e-06
-6.83911e-08
2.6306e-06
-4.99365e-08
2.63052e-06
-4.32478e-09
4.33386e-09
2.62677e-06
2.76389e-06
1.69594e-07
2.76539e-06
-2.07022e-07
2.75605e-06
3.9286e-08
2.74431e-06
-6.05208e-07
2.73583e-06
6.25232e-08
2.75791e-06
5.93435e-07
2.77017e-06
4.86668e-07
2.77554e-06
3.64515e-07
2.7845e-06
2.32862e-07
2.78116e-06
6.00385e-08
2.7776e-06
-1.29224e-07
2.76927e-06
-1.80555e-07
2.76454e-06
-1.4828e-07
2.75618e-06
-1.78476e-07
2.75449e-06
-1.13501e-07
2.7416e-06
-1.05353e-07
2.73577e-06
-6.25653e-08
2.72945e-06
-4.36132e-08
2.73133e-06
-6.20105e-09
8.00795e-09
2.72765e-06
2.86877e-06
1.66283e-07
2.86975e-06
-2.07999e-07
2.86137e-06
4.76602e-08
2.84929e-06
-5.93124e-07
2.84121e-06
7.06006e-08
2.86137e-06
5.73274e-07
2.87514e-06
4.729e-07
2.87878e-06
3.60877e-07
2.88968e-06
2.2196e-07
2.88629e-06
6.34338e-08
2.88194e-06
-1.24873e-07
2.87532e-06
-1.73942e-07
2.86868e-06
-1.41641e-07
2.86116e-06
-1.70956e-07
2.86008e-06
-1.12422e-07
2.85466e-06
-9.99287e-08
2.8538e-06
-6.1703e-08
2.84808e-06
-3.78987e-08
2.83701e-06
4.87641e-09
1.28811e-08
2.83213e-06
2.97762e-06
1.62906e-07
2.97804e-06
-2.08415e-07
2.97066e-06
5.50403e-08
2.95813e-06
-5.80601e-07
2.95079e-06
7.79413e-08
2.96894e-06
5.55128e-07
2.9843e-06
4.5754e-07
2.98632e-06
3.58852e-07
2.99853e-06
2.09751e-07
2.99549e-06
6.64712e-08
2.99011e-06
-1.19491e-07
2.98528e-06
-1.69114e-07
2.97711e-06
-1.3347e-07
2.97015e-06
-1.6399e-07
2.96487e-06
-1.07143e-07
2.95389e-06
-8.89515e-08
2.9447e-06
-5.25119e-08
2.93999e-06
-3.31874e-08
2.94417e-06
6.95239e-10
1.57864e-08
2.94126e-06
3.09058e-06
1.59485e-07
3.09045e-06
-2.08281e-07
3.08407e-06
6.14159e-08
3.07091e-06
-5.67435e-07
3.0647e-06
8.4143e-08
3.08083e-06
5.39005e-07
3.09776e-06
4.40606e-07
3.09838e-06
3.58227e-07
3.11134e-06
1.96795e-07
3.10896e-06
6.88522e-08
3.10243e-06
-1.12965e-07
3.09891e-06
-1.65596e-07
3.09044e-06
-1.25001e-07
3.0833e-06
-1.56848e-07
3.08266e-06
-1.06503e-07
3.0812e-06
-8.74925e-08
3.07903e-06
-5.03354e-08
3.07167e-06
-2.58323e-08
3.05883e-06
1.35376e-08
2.10177e-08
3.0536e-06
3.2078e-06
1.56048e-07
3.20716e-06
-2.07639e-07
3.20183e-06
6.67432e-08
3.18768e-06
-5.53291e-07
3.18308e-06
8.87441e-08
3.1972e-06
5.24891e-07
3.21567e-06
4.22138e-07
3.21512e-06
3.58775e-07
3.22835e-06
1.83567e-07
3.22678e-06
7.04189e-08
3.21946e-06
-1.05648e-07
3.21556e-06
-1.61697e-07
3.21002e-06
-1.19451e-07
3.20025e-06
-1.47087e-07
3.20001e-06
-1.06258e-07
3.18193e-06
-6.94164e-08
3.174e-06
-4.23977e-08
3.16852e-06
-2.03554e-08
3.17309e-06
8.96607e-09
2.24364e-08
3.17167e-06
3.32943e-06
1.52635e-07
3.32837e-06
-2.06579e-07
3.32409e-06
7.10165e-08
3.30866e-06
-5.37859e-07
3.30594e-06
9.14683e-08
3.3183e-06
5.12531e-07
3.33797e-06
4.02462e-07
3.33691e-06
3.59832e-07
3.34944e-06
1.71041e-07
3.3497e-06
7.01601e-08
3.34063e-06
-9.65763e-08
3.33751e-06
-1.58581e-07
3.33238e-06
-1.14316e-07
3.31531e-06
-1.30015e-07
3.30966e-06
-1.00609e-07
3.30148e-06
-6.1243e-08
3.29405e-06
-3.49617e-08
3.28883e-06
-1.5139e-08
3.29439e-06
3.40961e-09
2.36147e-08
3.29321e-06
3.45564e-06
1.49282e-07
3.45424e-06
-2.05188e-07
3.45107e-06
7.41885e-08
3.43401e-06
-5.20798e-07
3.43332e-06
9.21555e-08
3.44427e-06
5.01589e-07
3.46477e-06
3.81957e-07
3.46387e-06
3.60733e-07
3.47491e-06
1.59997e-07
3.47801e-06
6.70643e-08
3.46593e-06
-8.45011e-08
3.46472e-06
-1.5737e-07
3.45521e-06
-1.04798e-07
3.45389e-06
-1.28696e-07
3.45171e-06
-9.84303e-08
3.45232e-06
-6.18562e-08
3.44922e-06
-3.18598e-08
3.44139e-06
-7.30529e-09
3.42399e-06
2.08081e-08
2.92432e-08
3.41836e-06
3.58663e-06
1.46003e-07
3.58489e-06
-2.03457e-07
3.58305e-06
7.60373e-08
3.56384e-06
-5.01596e-07
3.56552e-06
9.04797e-08
3.57502e-06
4.9209e-07
3.59647e-06
3.60503e-07
3.59556e-06
3.61641e-07
3.60584e-06
1.49722e-07
3.6093e-06
6.3601e-08
3.59886e-06
-7.40583e-08
3.59363e-06
-1.52142e-07
3.59011e-06
-1.01277e-07
3.57236e-06
-1.10949e-07
3.56513e-06
-9.12018e-08
3.55514e-06
-5.18598e-08
3.54977e-06
-2.64946e-08
3.54458e-06
-2.11506e-09
3.55065e-06
1.47449e-08
2.91806e-08
3.55071e-06
3.72257e-06
1.42815e-07
3.72056e-06
-2.01447e-07
3.72005e-06
7.655e-08
3.69865e-06
-4.80197e-07
3.7024e-06
8.67266e-08
3.71101e-06
4.8348e-07
3.7327e-06
3.38816e-07
3.733e-06
3.61344e-07
3.74101e-06
1.41709e-07
3.74671e-06
5.79028e-08
3.73566e-06
-6.30128e-08
3.72924e-06
-1.45717e-07
3.72913e-06
-1.01165e-07
3.70778e-06
-8.96034e-08
3.69988e-06
-8.33041e-08
3.68981e-06
-4.17857e-08
3.68447e-06
-2.11595e-08
3.67949e-06
2.87333e-09
3.68642e-06
7.81003e-09
2.89284e-08
3.68667e-06
3.8637e-06
1.39707e-07
3.86142e-06
-1.99168e-07
3.86226e-06
7.57086e-08
3.83873e-06
-4.56672e-07
3.84413e-06
8.13308e-08
3.85249e-06
4.75122e-07
3.87347e-06
3.17834e-07
3.87661e-06
3.58199e-07
3.88011e-06
1.38216e-07
3.8905e-06
4.75104e-08
3.87376e-06
-4.62757e-08
3.87129e-06
-1.43244e-07
3.86155e-06
-9.14203e-08
3.86805e-06
-9.61054e-08
3.86515e-06
-8.04082e-08
3.86669e-06
-4.33283e-08
3.86281e-06
-1.72759e-08
3.85579e-06
9.89134e-09
3.83288e-06
3.07197e-08
3.56863e-08
3.82613e-06
4.01025e-06
1.36616e-07
4.00749e-06
-1.96417e-07
4.00999e-06
7.3213e-08
3.98409e-06
-4.30772e-07
3.99133e-06
7.40961e-08
3.99894e-06
4.67503e-07
4.02015e-06
2.96631e-07
4.02369e-06
3.5466e-07
4.02826e-06
1.33645e-07
4.03434e-06
4.14294e-08
4.02733e-06
-3.92691e-08
4.02054e-06
-1.36455e-07
4.02111e-06
-9.19898e-08
3.99517e-06
-7.01673e-08
3.98502e-06
-7.02511e-08
3.9752e-06
-3.35125e-08
3.97097e-06
-1.30478e-08
3.9669e-06
1.39675e-08
3.97384e-06
2.37708e-08
3.51608e-08
3.97437e-06
4.16238e-06
1.33518e-07
4.15918e-06
-1.9322e-07
4.16311e-06
6.92843e-08
4.13537e-06
-4.03027e-07
4.14365e-06
6.58097e-08
4.15146e-06
4.59695e-07
4.17141e-06
2.76685e-07
4.1777e-06
3.4837e-07
4.18009e-06
1.31257e-07
4.18581e-06
3.57046e-08
4.18096e-06
-3.44167e-08
4.15971e-06
-1.15204e-07
4.15614e-06
-8.8424e-08
4.1454e-06
-5.94259e-08
4.13685e-06
-6.16997e-08
4.1264e-06
-2.30664e-08
4.12196e-06
-8.60238e-09
4.11821e-06
1.77168e-08
4.12576e-06
1.62179e-08
3.43283e-08
4.12659e-06
4.32034e-06
1.30363e-07
4.31668e-06
-1.89556e-07
4.32185e-06
6.41094e-08
4.29281e-06
-3.73989e-07
4.30127e-06
5.73524e-08
4.31046e-06
4.50506e-07
4.32637e-06
2.60777e-07
4.3401e-06
3.34635e-07
4.33395e-06
1.37412e-07
4.34657e-06
2.30815e-08
4.33108e-06
-1.89215e-08
4.33457e-06
-1.18695e-07
4.3338e-06
-8.76623e-08
4.33334e-06
-5.8962e-08
4.3284e-06
-5.67607e-08
4.33113e-06
-2.57975e-08
4.32656e-06
-4.02491e-09
4.3194e-06
2.48682e-08
4.29098e-06
4.46434e-08
4.34542e-08
4.28185e-06
4.48441e-06
1.27044e-07
4.47994e-06
-1.85094e-07
4.48669e-06
5.73635e-08
4.45612e-06
-3.43414e-07
4.46538e-06
4.80914e-08
4.47451e-06
4.41368e-07
4.4902e-06
2.45093e-07
4.50256e-06
3.22274e-07
4.5001e-06
1.39875e-07
4.5061e-06
1.70763e-08
4.49619e-06
-9.01163e-09
4.47922e-06
-1.01723e-07
4.47533e-06
-8.37767e-08
4.4664e-06
-5.00304e-08
4.45762e-06
-4.79749e-08
4.44758e-06
-1.57634e-08
4.4429e-06
6.53247e-10
4.43955e-06
2.8219e-08
4.44758e-06
3.662e-08
4.27167e-08
4.44832e-06
4.65468e-06
1.23571e-07
4.6496e-06
-1.8001e-07
4.65737e-06
4.95884e-08
4.62619e-06
-3.12234e-07
4.63519e-06
3.90918e-08
4.64538e-06
4.31177e-07
4.65936e-06
2.31115e-07
4.67161e-06
3.10026e-07
4.67173e-06
1.39754e-07
4.67176e-06
1.70461e-08
4.66622e-06
-3.47321e-09
4.6483e-06
-8.37972e-08
4.64449e-06
-7.99685e-08
4.63523e-06
-4.07689e-08
4.62857e-06
-4.13216e-08
4.6182e-06
-5.38618e-09
4.61397e-06
4.87909e-09
4.60971e-06
3.24824e-08
4.61685e-06
2.94797e-08
4.10678e-08
4.61849e-06
4.83146e-06
1.19894e-07
4.82574e-06
-1.74281e-07
4.83429e-06
4.10358e-08
4.80323e-06
-2.81173e-07
4.81083e-06
3.14856e-08
4.8238e-06
4.18213e-07
4.83277e-06
2.22138e-07
4.84969e-06
2.93112e-07
4.84498e-06
1.44457e-07
4.84891e-06
1.31171e-08
4.83892e-06
6.51657e-09
4.82533e-06
-7.02034e-08
4.8182e-06
-7.28408e-08
4.81194e-06
-3.45094e-08
4.80326e-06
-3.26341e-08
4.80681e-06
-8.93675e-09
4.80939e-06
2.29316e-09
4.81576e-06
2.61149e-08
4.80025e-06
4.49925e-08
4.84904e-08
4.79282e-06
5.01504e-06
1.15929e-07
5.00838e-06
-1.67628e-07
5.01793e-06
3.14925e-08
4.98699e-06
-2.50235e-07
4.9936e-06
2.48728e-08
5.00794e-06
4.03875e-07
5.01566e-06
2.14417e-07
5.03124e-06
2.77533e-07
5.02781e-06
1.47884e-07
5.029e-06
1.19332e-08
5.02207e-06
1.34423e-08
5.00749e-06
-5.56216e-08
5.00043e-06
-6.57808e-08
4.99489e-06
-2.89691e-08
4.98821e-06
-2.59602e-08
4.97982e-06
-5.40759e-10
4.97236e-06
9.75084e-09
4.96967e-06
2.88062e-08
4.97696e-06
3.76979e-08
4.72502e-08
4.9782e-06
5.2055e-06
1.11741e-07
5.1983e-06
-1.60424e-07
5.20809e-06
2.17041e-08
5.17836e-06
-2.20507e-07
5.18266e-06
2.05733e-08
5.19952e-06
3.87014e-07
5.2051e-06
2.08838e-07
5.22007e-06
2.62561e-07
5.21705e-06
1.50904e-07
5.2162e-06
1.27844e-08
5.21164e-06
1.80044e-08
5.19701e-06
-4.09914e-08
5.19004e-06
-5.88174e-08
5.18408e-06
-2.30121e-08
5.17767e-06
-1.95413e-08
5.17052e-06
6.6007e-09
5.1702e-06
1.00707e-08
5.1678e-06
3.12107e-08
5.16708e-06
3.84164e-08
4.5595e-08
5.16874e-06
5.40324e-06
1.07276e-07
5.39538e-06
-1.52561e-07
5.40538e-06
1.17004e-08
5.37741e-06
-1.92529e-07
5.37878e-06
1.91964e-08
5.39782e-06
3.67972e-07
5.40166e-06
2.05004e-07
5.41637e-06
2.47851e-07
5.41301e-06
1.54265e-07
5.41166e-06
1.41366e-08
5.40793e-06
2.17271e-08
5.39434e-06
-2.73949e-08
5.3862e-06
-5.06847e-08
5.38108e-06
-1.7889e-08
5.37482e-06
-1.32827e-08
5.36913e-06
1.22946e-08
5.36451e-06
1.46905e-08
5.36314e-06
3.25795e-08
5.36445e-06
3.71069e-08
4.38469e-08
5.3662e-06
5.60848e-06
1.02533e-07
5.60004e-06
-1.44117e-07
5.61005e-06
1.68552e-09
5.58438e-06
-1.6686e-07
5.58286e-06
2.07143e-08
5.60265e-06
3.48182e-07
5.60598e-06
2.01676e-07
5.6199e-06
2.33931e-07
5.61689e-06
1.57274e-07
5.61472e-06
1.63087e-08
5.6115e-06
2.49487e-08
5.59911e-06
-1.50117e-08
5.59037e-06
-4.19395e-08
5.58543e-06
-1.29477e-08
5.57975e-06
-7.60799e-09
5.57495e-06
1.70971e-08
5.57075e-06
1.88922e-08
5.56982e-06
3.35107e-08
5.57009e-06
3.68384e-08
4.29109e-08
5.57102e-06
5.82146e-06
9.75551e-08
5.81266e-06
-1.35321e-07
5.82228e-06
-7.93313e-09
5.79983e-06
-1.44409e-07
5.7951e-06
2.54454e-08
5.81496e-06
3.28324e-07
5.81762e-06
1.99012e-07
5.83142e-06
2.20131e-07
5.82868e-06
1.60016e-07
5.82578e-06
1.9207e-08
5.82279e-06
2.79441e-08
5.81193e-06
-4.15676e-09
5.8023e-06
-3.23043e-08
5.79761e-06
-8.26506e-09
5.79235e-06
-2.34288e-09
5.78882e-06
2.0625e-08
5.78576e-06
2.19554e-08
5.78663e-06
3.26385e-08
5.78364e-06
3.98229e-08
4.26997e-08
5.78386e-06
6.04255e-06
9.23088e-08
6.03331e-06
-1.26089e-07
6.04261e-06
-1.72265e-08
6.0229e-06
-1.247e-07
6.01632e-06
3.20202e-08
6.03443e-06
3.10218e-07
6.0377e-06
1.95746e-07
6.05051e-06
2.07314e-07
6.04884e-06
1.61685e-07
6.0448e-06
2.32523e-08
6.04237e-06
3.03763e-08
6.03236e-06
5.84646e-09
6.02274e-06
-2.26775e-08
6.01792e-06
-3.44599e-09
6.01339e-06
2.18491e-09
6.00949e-06
2.45202e-08
6.00463e-06
2.68148e-08
6.00187e-06
3.54068e-08
6.0044e-06
3.72892e-08
4.19118e-08
6.00519e-06
6.27197e-06
8.68371e-08
6.26247e-06
-1.16584e-07
6.27121e-06
-2.5972e-08
6.25394e-06
-1.0743e-07
6.24624e-06
3.97234e-08
6.26281e-06
2.93647e-07
6.26588e-06
1.92675e-07
6.27805e-06
1.95148e-07
6.27737e-06
1.62356e-07
6.2724e-06
2.82253e-08
6.27025e-06
3.25281e-08
6.26124e-06
1.48604e-08
6.25187e-06
-1.33165e-08
6.24666e-06
1.76517e-09
6.24231e-06
6.53542e-09
6.23954e-06
2.7298e-08
6.23679e-06
2.95613e-08
6.23695e-06
3.52442e-08
6.23428e-06
3.99626e-08
4.15713e-08
6.23462e-06
6.5101e-06
8.11448e-08
6.50031e-06
-1.06796e-07
6.50851e-06
-3.41768e-08
6.49334e-06
-9.22601e-08
6.48526e-06
4.78032e-08
6.50008e-06
2.78828e-07
6.50296e-06
1.89798e-07
6.51437e-06
1.83735e-07
6.51455e-06
1.62182e-07
6.50889e-06
3.38867e-08
6.50688e-06
3.45393e-08
6.49884e-06
2.28978e-08
6.4897e-06
-4.17481e-09
6.48421e-06
7.25526e-09
6.48023e-06
1.0516e-08
6.47753e-06
2.99948e-08
6.47331e-06
3.37787e-08
6.47037e-06
3.81808e-08
6.47229e-06
3.80426e-08
4.08075e-08
6.47306e-06
6.75723e-06
7.52521e-08
6.74717e-06
-9.67326e-08
6.75483e-06
-4.18384e-08
6.74148e-06
-7.89071e-08
6.73369e-06
5.55925e-08
6.74685e-06
2.65663e-07
6.74939e-06
1.87261e-07
6.75974e-06
1.73382e-07
6.76063e-06
1.61298e-07
6.75448e-06
4.00295e-08
6.75243e-06
3.65896e-08
6.74539e-06
2.99408e-08
6.73672e-06
4.49511e-09
6.73104e-06
1.29388e-08
6.72701e-06
1.4544e-08
6.72502e-06
3.19798e-08
6.72278e-06
3.60196e-08
6.72264e-06
3.83286e-08
6.71993e-06
4.07431e-08
4.03734e-08
6.72037e-06
7.0137e-06
6.9198e-08
7.00335e-06
-8.6376e-08
7.01051e-06
-4.90001e-08
6.99893e-06
-6.73273e-08
6.99172e-06
6.28003e-08
7.00335e-06
2.54031e-07
7.0054e-06
1.85219e-07
7.0146e-06
1.64174e-07
7.01604e-06
1.59858e-07
7.00965e-06
4.64255e-08
7.00754e-06
3.8698e-08
7.00139e-06
3.6085e-08
6.99316e-06
1.27334e-08
6.98741e-06
1.86802e-08
6.98329e-06
1.86637e-08
6.98144e-06
3.38301e-08
6.97828e-06
3.91889e-08
6.97548e-06
4.11247e-08
6.97648e-06
3.97437e-08
3.97502e-08
6.9771e-06
7.27987e-06
6.30195e-08
7.26919e-06
-7.57022e-08
7.27593e-06
-5.57312e-08
7.266e-06
-5.73992e-08
7.26013e-06
6.86669e-08
7.26991e-06
2.44256e-07
7.27151e-06
1.83611e-07
7.27939e-06
1.56295e-07
7.28116e-06
1.58087e-07
7.27461e-06
5.2983e-08
7.2723e-06
4.10012e-08
7.2669e-06
4.1489e-08
7.25933e-06
2.03069e-08
7.25374e-06
2.42647e-08
7.24923e-06
2.31793e-08
7.24787e-06
3.51851e-08
7.24622e-06
4.08388e-08
7.24599e-06
4.13517e-08
7.24343e-06
4.23111e-08
3.95925e-08
7.24358e-06
7.55609e-06
5.67631e-08
7.54526e-06
-6.48712e-08
7.55139e-06
-6.18667e-08
7.54318e-06
-4.91913e-08
7.53808e-06
7.37714e-08
7.54636e-06
2.35976e-07
7.54803e-06
1.81942e-07
7.55439e-06
1.49931e-07
7.55629e-06
1.56191e-07
7.54985e-06
5.94244e-08
7.54733e-06
4.35145e-08
7.54266e-06
4.61617e-08
7.53566e-06
2.73042e-08
7.53033e-06
2.95967e-08
7.52556e-06
2.7948e-08
7.52428e-06
3.64654e-08
7.52195e-06
4.31751e-08
7.51977e-06
4.3525e-08
7.52009e-06
4.19982e-08
3.95864e-08
7.52009e-06
7.84268e-06
5.05348e-08
7.83213e-06
-5.43175e-08
7.83697e-06
-6.67097e-08
7.83123e-06
-4.34476e-08
7.82502e-06
7.99778e-08
7.83262e-06
2.28383e-07
7.83559e-06
1.78968e-07
7.84009e-06
1.45434e-07
7.84194e-06
1.54333e-07
7.83571e-06
6.56609e-08
7.8329e-06
4.63213e-08
7.82878e-06
5.0283e-08
7.82232e-06
3.37621e-08
7.81751e-06
3.44098e-08
7.81253e-06
3.29314e-08
7.81112e-06
3.78703e-08
7.81004e-06
4.42527e-08
7.80996e-06
4.36116e-08
7.80765e-06
4.43015e-08
4.00585e-08
7.80718e-06
8.14008e-06
4.4414e-08
8.13006e-06
-4.43007e-08
8.13301e-06
-6.96524e-08
8.13002e-06
-4.04617e-08
8.12709e-06
8.29069e-08
8.14448e-06
2.10991e-07
8.13543e-06
1.88026e-07
8.13644e-06
1.44417e-07
8.13859e-06
1.52191e-07
8.13261e-06
7.16332e-08
8.12951e-06
4.94236e-08
8.12592e-06
5.3876e-08
8.11989e-06
3.97939e-08
8.11561e-06
3.86818e-08
8.11061e-06
3.79328e-08
8.10894e-06
3.95391e-08
8.10735e-06
4.58456e-08
8.10576e-06
4.52037e-08
8.1059e-06
4.41621e-08
4.07159e-08
8.10524e-06
8.44875e-06
3.84201e-08
8.43893e-06
-3.44741e-08
8.44101e-06
-7.17365e-08
8.43893e-06
-3.83774e-08
8.43689e-06
8.49481e-08
8.44047e-06
2.07412e-07
8.44168e-06
1.86812e-07
8.44471e-06
1.41387e-07
8.44678e-06
1.50126e-07
8.44093e-06
7.74759e-08
8.4375e-06
5.286e-08
8.43433e-06
5.70444e-08
8.42865e-06
4.54738e-08
8.42496e-06
4.23719e-08
8.42025e-06
4.26373e-08
8.41817e-06
4.16249e-08
8.41714e-06
4.68723e-08