/*--------------------------------*- C++ -*----------------------------------*\
| =========                 |                                                 |
| \\      /  F ield         | OpenFOAM: The Open Source CFD Toolbox           |
|  \\    /   O peration     | Version:  v2012                                 |
|   \\  /    A nd           | Website:  www.openfoam.com                      |
|    \\/     M anipulation  |                                                 |
\*---------------------------------------------------------------------------*/
FoamFile
{
    version     2.0;
    format      ascii;
    class       volVectorField;
    location    "5.2";
    object      U;
}
// * * * * * * * * * * * * * * * * * * * * * * * * * * * * * * * * * * * * * //

dimensions      [0 1 -1 0 0 0 0];


internalField   nonuniform List<vector> 
7000
(
(0.960143 0.00172021 0)
(1.03862 -0.00259607 0)
(0.950833 -4.4079e-05 0)
(1.07385 -0.0122582 0)
(0.808616 0.00601382 0)
(1.31748 0.0126032 0)
(0.640188 0.00502233 0)
(1.21876 0.0160151 0)
(0.794559 7.00208e-05 0)
(1.09498 0.00863257 0)
(0.9027 -0.00972951 0)
(1.07411 -0.00485304 0)
(0.938893 -0.0132823 0)
(1.06622 -0.0138006 0)
(0.923464 -0.0105343 0)
(1.07163 -0.0175801 0)
(0.893121 -0.00840862 0)
(1.08134 -0.0159385 0)
(0.867669 -0.00808749 0)
(1.08473 -0.0150403 0)
(0.962933 0.00170732 0)
(1.03469 -0.00250909 0)
(0.953877 -0.000314414 0)
(1.06878 -0.0112652 0)
(0.814709 0.00429331 0)
(1.30643 0.0139446 0)
(0.673064 0.00545767 0)
(1.19243 0.0151645 0)
(0.849252 0.0011758 0)
(1.06603 0.00770254 0)
(0.951957 -0.0096077 0)
(1.04364 -0.00529093 0)
(0.983626 -0.013127 0)
(1.02602 -0.0134594 0)
(0.974301 -0.0106084 0)
(1.01653 -0.0168942 0)
(0.95615 -0.00851878 0)
(1.01105 -0.015654 0)
(0.947496 -0.00742126 0)
(0.998385 -0.0154513 0)
(0.968371 0.00170102 0)
(1.0279 -0.00242496 0)
(0.959621 -0.000541475 0)
(1.06003 -0.0103585 0)
(0.831368 0.00229731 0)
(1.28014 0.0155006 0)
(0.739995 0.0060353 0)
(1.14077 0.0139062 0)
(0.915881 0.00215939 0)
(1.03084 0.00667256 0)
(0.988721 -0.00940262 0)
(1.01458 -0.00575025 0)
(1.00642 -0.0127179 0)
(0.995061 -0.0134094 0)
(0.998079 -0.0102735 0)
(0.983122 -0.0166122 0)
(0.984598 -0.00837741 0)
(0.978665 -0.0153613 0)
(0.977538 -0.00718653 0)
(0.970829 -0.0144815 0)
(0.975737 0.00170532 0)
(1.01954 -0.00235462 0)
(0.967317 -0.000735104 0)
(1.04846 -0.00960174 0)
(0.858545 0.000690951 0)
(1.23813 0.0164306 0)
(0.821852 0.00691293 0)
(1.08207 0.0125876 0)
(0.965101 0.0029778 0)
(1.0072 0.00601606 0)
(1.00531 -0.00920602 0)
(1.00022 -0.0060357 0)
(1.00847 -0.0122547 0)
(0.983457 -0.0134125 0)
(0.997819 -0.0097985 0)
(0.972892 -0.0165735 0)
(0.985886 -0.00796926 0)
(0.970121 -0.0154596 0)
(0.97952 -0.00665972 0)
(0.965013 -0.0138427 0)
(0.983985 0.00171736 0)
(1.01101 -0.00229346 0)
(0.975723 -0.000903846 0)
(1.03575 -0.00897874 0)
(0.891685 -0.000571714 0)
(1.18563 0.0167622 0)
(0.896622 0.00805048 0)
(1.03512 0.0115137 0)
(0.991677 0.00350384 0)
(0.998535 0.00566508 0)
(1.01038 -0.00907144 0)
(0.998026 -0.00613723 0)
(1.00402 -0.0118049 0)
(0.983014 -0.0133492 0)
(0.991186 -0.00935543 0)
(0.973046 -0.0165161 0)
(0.979835 -0.00760333 0)
(0.970089 -0.015577 0)
(0.974214 -0.00609904 0)
(0.965389 -0.0133934 0)
(0.992014 0.00173354 0)
(1.00359 -0.00223937 0)
(0.983468 -0.0010414 0)
(1.02387 -0.00851123 0)
(0.92421 -0.00154289 0)
(1.1312 0.0167265 0)
(0.951671 0.00919546 0)
(1.00784 0.0108394 0)
(1.00222 0.00371747 0)
(0.999795 0.00546814 0)
(1.0121 -0.00897009 0)
(1.00144 -0.00612786 0)
(1.00136 -0.0113411 0)
(0.985986 -0.0132377 0)
(0.987046 -0.00891104 0)
(0.975518 -0.0164329 0)
(0.975663 -0.00728282 0)
(0.971653 -0.0156078 0)
(0.970279 -0.00561392 0)
(0.96647 -0.0130045 0)
(0.998952 0.00174957 0)
(0.998038 -0.00218881 0)
(0.989596 -0.00114659 0)
(1.01429 -0.00820299 0)
(0.950835 -0.00219806 0)
(1.08296 0.0164914 0)
(0.985002 0.0101401 0)
(0.997487 0.010518 0)
(1.00513 0.0037006 0)
(1.00478 0.00530267 0)
(1.01414 -0.00886307 0)
(1.00597 -0.00607775 0)
(1.00209 -0.0108331 0)
(0.98904 -0.0130938 0)
(0.986757 -0.00843858 0)
(0.977726 -0.016329 0)
(0.974858 -0.00695561 0)
(0.972985 -0.0155552 0)
(0.969145 -0.00521137 0)
(0.967181 -0.0125787 0)
(1.00433 0.00176123 0)
(0.994495 -0.00213721 0)
(0.993844 -0.00122488 0)
(1.00746 -0.00802246 0)
(0.969373 -0.0025598 0)
(1.04568 0.0161675 0)
(1.00102 0.0107986 0)
(0.996833 0.0104094 0)
(1.00608 0.00357524 0)
(1.00966 0.00510894 0)
(1.01671 -0.00872991 0)
(1.00968 -0.00602884 0)
(1.00481 -0.0102695 0)
(0.991517 -0.0129291 0)
(0.988762 -0.00793636 0)
(0.979688 -0.0161863 0)
(0.97608 -0.0066171 0)
(0.97424 -0.0154218 0)
(0.969717 -0.004861 0)
(0.967852 -0.0120795 0)
(1.0081 0.00176584 0)
(0.992591 -0.0020814 0)
(0.996531 -0.00128245 0)
(1.00294 -0.00792627 0)
(0.980521 -0.00269846 0)
(1.02003 0.0158292 0)
(1.00612 0.0111808 0)
(0.999591 0.0103789 0)
(1.00727 0.00342339 0)
(1.01304 0.0048744 0)
(1.01884 -0.00856707 0)
(1.01202 -0.00600331 0)
(1.0078 -0.00966032 0)
(0.993622 -0.0127514 0)
(0.991393 -0.0074162 0)
(0.981923 -0.0159915 0)
(0.977992 -0.00628003 0)
(0.975837 -0.0151926 0)
(0.970952 -0.00453897 0)
(0.968856 -0.0115052 0)
(1.01047 0.00176276 0)
(0.991776 -0.00202065 0)
(0.998232 -0.00132339 0)
(0.999843 -0.00787886 0)
(0.986541 -0.00268354 0)
(1.00386 0.0155121 0)
(1.00583 0.0113474 0)
(1.0024 0.0103379 0)
(1.00872 0.00327996 0)
(1.01481 0.00461366 0)
(1.01982 -0.00837489 0)
(1.013 -0.00601272 0)
(1.01004 -0.00902881 0)
(0.995549 -0.0125665 0)
(0.993766 -0.00690079 0)
(0.984612 -0.0157394 0)
(0.980007 -0.00595403 0)
(0.97792 -0.0148578 0)
(0.972479 -0.00423719 0)
(0.970328 -0.0108657 0)
(1.01172 0.00175308 0)
(0.991596 -0.00195674 0)
(0.999474 -0.00134886 0)
(0.997372 -0.00785793 0)
(0.989866 -0.00257047 0)
(0.994145 0.0152234 0)
(1.0038 0.0113671 0)
(1.00428 0.0102492 0)
(1.00985 0.00315757 0)
(1.01527 0.00434654 0)
(1.0195 -0.00815343 0)
(1.01281 -0.00606258 0)
(1.01123 -0.00840261 0)
(0.997291 -0.012382 0)
(0.995645 -0.00641494 0)
(0.987561 -0.0154313 0)
(0.982021 -0.00564899 0)
(0.980379 -0.0144231 0)
(0.974302 -0.00395359 0)
(0.97224 -0.0101734 0)
(1.01211 0.00173867 0)
(0.991802 -0.0018932 0)
(1.00058 -0.0013571 0)
(0.995066 -0.00785325 0)
(0.992239 -0.00239922 0)
(0.988301 0.0149597 0)
(1.00191 0.0112927 0)
(1.0054 0.0101117 0)
(1.01033 0.00306343 0)
(1.01474 0.0040844 0)
(1.01819 -0.00790324 0)
(1.01173 -0.00615524 0)
(1.01149 -0.0078061 0)
(0.998741 -0.012206 0)
(0.997068 -0.00597918 0)
(0.990437 -0.0150739 0)
(0.984024 -0.00537577 0)
(0.982981 -0.0139017 0)
(0.976431 -0.00368823 0)
(0.974472 -0.0094436 0)
(1.0118 0.00172145 0)
(0.992313 -0.00183433 0)
(1.00165 -0.00134491 0)
(0.992856 -0.00786265 0)
(0.994457 -0.0021935 0)
(0.984696 0.0147157 0)
(1.00087 0.0111574 0)
(1.00616 0.0099404 0)
(1.01021 0.00300445 0)
(1.01354 0.00383101 0)
(1.01631 -0.00762518 0)
(1.01007 -0.00629114 0)
(1.01113 -0.00725714 0)
(0.99984 -0.012042 0)
(0.9981 -0.00560881 0)
(0.99297 -0.0146761 0)
(0.985943 -0.00514447 0)
(0.985462 -0.0133099 0)
(0.978744 -0.00344205 0)
(0.976836 -0.00869538 0)
(1.01092 0.00170295 0)
(0.993119 -0.00178402 0)
(1.00261 -0.00130987 0)
(0.990946 -0.00788636 0)
(0.996534 -0.00196697 0)
(0.982519 0.0144847 0)
(1.00075 0.0109803 0)
(1.00683 0.00975416 0)
(1.00973 0.00298778 0)
(1.01198 0.00358662 0)
(1.0143 -0.00732096 0)
(1.00816 -0.00646785 0)
(1.01044 -0.00676766 0)
(1.00063 -0.0118849 0)
(0.998767 -0.00531298 0)
(0.995013 -0.0142428 0)
(0.98767 -0.00496358 0)
(0.987585 -0.0126696 0)
(0.981029 -0.00321521 0)
(0.97909 -0.00794689 0)
(1.00959 0.00168418 0)
(0.994198 -0.00174491 0)
(1.00333 -0.00125203 0)
(0.98964 -0.00792254 0)
(0.998054 -0.00172741 0)
(0.981496 0.0142574 0)
(1.00131 0.0107737 0)
(1.00754 0.00956863 0)
(1.00916 0.00301889 0)
(1.01031 0.00335183 0)
(1.01248 -0.00699318 0)
(1.00626 -0.00667701 0)
(1.00959 -0.00634553 0)
(1.0012 -0.0117244 0)
(0.999082 -0.00509301 0)
(0.996527 -0.0137741 0)
(0.989133 -0.00483291 0)
(0.989185 -0.0120052 0)
(0.983082 -0.00300902 0)
(0.98101 -0.00721315 0)
(1.008 0.00166563 0)
(0.995483 -0.00171768 0)
(1.00367 -0.00117464 0)
(0.989151 -0.00796519 0)
(0.998561 -0.00148061 0)
(0.981597 0.0140219 0)
(1.00215 0.010548 0)
(1.00832 0.00939192 0)
(1.00868 0.00310277 0)
(1.00872 0.00311765 0)
(1.01104 -0.0066488 0)
(1.00459 -0.00690384 0)
(1.00868 -0.00599597 0)
(1.00164 -0.0115478 0)
(0.999101 -0.00494384 0)
(0.997533 -0.0132732 0)
(0.990325 -0.00473912 0)
(0.990219 -0.0113303 0)
(0.984773 -0.00282352 0)
(0.982464 -0.00650593 0)
(1.00632 0.00164731 0)
(0.996861 -0.00170106 0)
(1.00361 -0.00108345 0)
(0.989467 -0.00800492 0)
(0.99786 -0.0012328 0)
(0.982783 0.0137653 0)
(1.00291 0.0103161 0)
(1.00911 0.00922331 0)
(1.00838 0.00323917 0)
(1.00731 0.00288041 0)
(1.01003 -0.00629471 0)
(1.00324 -0.00712991 0)
(1.00772 -0.00572118 0)
(1.00197 -0.0113432 0)
(0.998937 -0.00485668 0)
(0.998092 -0.0127518 0)
(0.991283 -0.00466551 0)
(0.99077 -0.0106465 0)
(0.986065 -0.00265267 0)
(0.983462 -0.005829 0)
(1.00474 0.001629 0)
(0.998195 -0.00169266 0)
(1.00326 -0.000984628 0)
(0.990335 -0.00803154 0)
(0.996149 -0.000991458 0)
(0.984841 0.0134766 0)
(1.00338 0.0100907 0)
(1.00983 0.00905775 0)
(1.00827 0.00342457 0)
(1.00615 0.00264625 0)
(1.00941 -0.00593846 0)
(1.00223 -0.00733413 0)
(1.00673 -0.00552119 0)
(1.00215 -0.0111038 0)
(0.998722 -0.00481925 0)
(0.998286 -0.0122216 0)
(0.992047 -0.00460219 0)
(0.991012 -0.00995341 0)
(0.98699 -0.00248812 0)
(0.984129 -0.00517836 0)
(1.00338 0.00161041 0)
(0.99936 -0.00169017 0)
(1.00281 -0.000882567 0)
(0.991375 -0.00803721 0)
(0.993935 -0.000764314 0)
(0.987363 0.0131513 0)
(1.00351 0.00987955 0)
(1.01041 0.00889041 0)
(1.00832 0.00365391 0)
(1.00526 0.00241473 0)
(1.00912 -0.00559069 0)
(1.00153 -0.00749435 0)
(1.00577 -0.00539322 0)
(1.00214 -0.0108319 0)
(0.998558 -0.00481861 0)
(0.998223 -0.0116874 0)
(0.992635 -0.00454711 0)
(0.991128 -0.00925146 0)
(0.987622 -0.00232147 0)
(0.98464 -0.00454913 0)
(1.00233 0.00159135 0)
(1.00027 -0.0016921 0)
(1.00243 -0.000778928 0)
(0.99225 -0.00801838 0)
(0.991793 -0.000556977 0)
(0.989874 0.0127903 0)
(1.00339 0.00968914 0)
(1.01079 0.00871448 0)
(1.0085 0.0039145 0)
(1.00467 0.00218322 0)
(1.00908 -0.00526045 0)
(1.0011 -0.00759188 0)
(1.0049 -0.00532783 0)
(1.00196 -0.0105348 0)
(0.998478 -0.00484404 0)
(0.998012 -0.0111454 0)
(0.993054 -0.00450344 0)
(0.991247 -0.0085488 0)
(0.988048 -0.00214625 0)
(0.985128 -0.00393697 0)
(1.00159 0.00157176 0)
(1.00091 -0.00169793 0)
(1.00225 -0.000673127 0)
(0.992797 -0.00797551 0)
(0.990133 -0.000372242 0)
(0.992005 0.0124002 0)
(1.00314 0.00952066 0)
(1.01092 0.00852451 0)
(1.00876 0.00419305 0)
(1.00439 0.00195983 0)
(1.00922 -0.00495697 0)
(1.0009 -0.00761744 0)
(1.00419 -0.00530772 0)
(1.00166 -0.0102192 0)
(0.998449 -0.00489104 0)
(0.997741 -0.0105857 0)
(0.993311 -0.00446595 0)
(0.991412 -0.00786126 0)
(0.98835 -0.00196717 0)
(0.985649 -0.00334282 0)
(1.00113 0.00155165 0)
(1.00131 -0.00170774 0)
(1.00225 -0.000563604 0)
(0.993042 -0.00791205 0)
(0.989088 -0.000208825 0)
(0.99359 0.0119898 0)
(1.00283 0.00936866 0)
(1.01081 0.00832354 0)
(1.00907 0.00447242 0)
(1.00442 0.00175578 0)
(1.00947 -0.00468499 0)
(1.00089 -0.00756962 0)
(1.00367 -0.00531885 0)
(1.00131 -0.00988616 0)
(0.998418 -0.00496298 0)
(0.997456 -0.0100153 0)
(0.993433 -0.00441131 0)
(0.991594 -0.00718826 0)
(0.988595 -0.00179394 0)
(0.986189 -0.00277708 0)
(1.00088 0.001531 0)
(1.00153 -0.00172153 0)
(1.00236 -0.00044936 0)
(0.993121 -0.0078325 0)
(0.988575 -6.24256e-05 0)
(0.99465 0.0115671 0)
(1.00248 0.00922698 0)
(1.01044 0.00811678 0)
(1.00937 0.00473686 0)
(1.0047 0.0015704 0)
(1.00973 -0.00444528 0)
(1.00104 -0.00744706 0)
(1.0033 -0.00535721 0)
(1.00099 -0.00952656 0)
(0.998351 -0.00504111 0)
(0.997172 -0.00947449 0)
(0.99347 -0.00434516 0)
(0.991741 -0.00650738 0)
(0.988828 -0.00161844 0)
(0.986705 -0.00225316 0)
(1.00077 0.00150977 0)
(1.00164 -0.00173903 0)
(1.00249 -0.000330568 0)
(0.993193 -0.00774044 0)
(0.988418 7.06431e-05 0)
(0.995301 0.0111418 0)
(1.0021 0.00908996 0)
(1.00983 0.00790316 0)
(1.00963 0.004975 0)
(1.00517 0.00141876 0)
(1.0099 -0.00424536 0)
(1.00132 -0.0072517 0)
(1.00306 -0.00541357 0)
(1.00073 -0.00915832 0)
(0.998245 -0.00506998 0)
(0.996881 -0.00894813 0)
(0.993481 -0.00432788 0)
(0.991819 -0.0058388 0)
(0.989073 -0.00140908 0)
(0.987158 -0.00176481 0)
(1.00073 0.00148788 0)
(1.00168 -0.00175938 0)
(1.00257 -0.000208764 0)
(0.993368 -0.00763799 0)
(0.988461 0.000193954 0)
(0.99567 0.01072 0)
(1.0017 0.00895772 0)
(1.00901 0.00768023 0)
(1.00978 0.00516125 0)
(1.00572 0.00131974 0)
(1.00994 -0.00408084 0)
(1.00169 -0.00700306 0)
(1.00289 -0.00544994 0)
(1.00053 -0.00882015 0)
(0.998131 -0.00508063 0)
(0.99657 -0.00834958 0)
(0.993511 -0.00431946 0)
(0.991837 -0.00525256 0)
(0.989341 -0.00119376 0)
(0.987535 -0.00129509 0)
(1.00071 0.00146503 0)
(1.00171 -0.00178099 0)
(1.00255 -8.6913e-05 0)
(0.993694 -0.00752643 0)
(0.988609 0.000311734 0)
(0.995858 0.0103062 0)
(1.00128 0.00882291 0)
(1.00804 0.00746689 0)
(1.00981 0.0052711 0)
(1.00626 0.00125826 0)
(1.00982 -0.0039367 0)
(1.0021 -0.00672343 0)
(1.00276 -0.00546255 0)
(1.00039 -0.00844573 0)
(0.998046 -0.00513532 0)
(0.996257 -0.00775715 0)
(0.993573 -0.00423641 0)
(0.991811 -0.00468607 0)
(0.989643 -0.00102468 0)
(0.987848 -0.0008764 0)
(1.00069 0.00144138 0)
(1.00174 -0.00180334 0)
(1.00241 3.26635e-05 0)
(0.994169 -0.00740717 0)
(0.988822 0.000423906 0)
(0.995932 0.00991177 0)
(1.0009 0.00867332 0)
(1.00699 0.00727468 0)
(1.0097 0.00531071 0)
(1.00674 0.00123794 0)
(1.00955 -0.00383784 0)
(1.00251 -0.00640267 0)
(1.00264 -0.0054877 0)
(1.00029 -0.00805448 0)
(0.997997 -0.00511356 0)
(0.995969 -0.00721065 0)
(0.993692 -0.0041985 0)
(0.991766 -0.0041083 0)
(0.989959 -0.000863708 0)
(0.988123 -0.000533228 0)
(1.00064 0.00141782 0)
(1.00178 -0.00182622 0)
(1.00215 0.000148798 0)
(0.99476 -0.0072835 0)
(0.989088 0.000537023 0)
(0.995938 0.00952754 0)
(1.00059 0.00852449 0)
(1.00594 0.00709223 0)
(1.00945 0.00528121 0)
(1.00709 0.00126865 0)
(1.00915 -0.0037255 0)
(1.00287 -0.00613508 0)
(1.00251 -0.00537641 0)
(1.00023 -0.007816 0)
(0.997988 -0.00501188 0)
(0.995703 -0.00664846 0)
(0.993855 -0.00401849 0)
(0.991754 -0.0038411 0)
(0.990284 -0.000524742 0)
(0.988381 -0.000138252 0)
(1.00057 0.00139258 0)
(1.00184 -0.00184449 0)
(1.00179 0.000257634 0)
(0.995419 -0.0071582 0)
(0.9894 0.000660809 0)
(0.995913 0.00915588 0)
(1.00036 0.00835532 0)
(1.00496 0.00695122 0)
(1.0091 0.00517771 0)
(1.0073 0.0013105 0)
(1.00868 -0.00360618 0)
(1.00316 -0.00584931 0)
(1.00237 -0.00528566 0)
(1.00018 -0.00743142 0)
(0.998026 -0.00504532 0)
(0.995508 -0.00612428 0)
(0.994005 -0.00374302 0)
(0.991789 -0.00344213 0)
(0.990643 -0.000287146 0)
(0.988602 0.00027095 0)
(1.00049 0.00136543 0)
(1.0019 -0.00185809 0)
(1.00135 0.00035245 0)
(0.996091 -0.00701816 0)
(0.989749 0.000754897 0)
(0.995885 0.00884221 0)
(1.00024 0.0081413 0)
(1.0041 0.00685092 0)
(1.00869 0.00499353 0)
(1.00737 0.00141198 0)
(1.00817 -0.00362567 0)
(1.00336 -0.00541526 0)
(1.00223 -0.00532351 0)
(1.00015 -0.00695766 0)
(0.998067 -0.00507093 0)
(0.995383 -0.00545611 0)
(0.994197 -0.00385766 0)
(0.991858 -0.00259015 0)
(0.990971 -0.000544578 0)
(0.988867 0.000323728 0)
(1.00039 0.00134468 0)
(1.00197 -0.00187929 0)
(1.00089 0.000453709 0)
(0.996725 -0.006896 0)
(0.990121 0.000882869 0)
(0.995882 0.00850613 0)
(1.00022 0.00795018 0)
(1.0034 0.00675767 0)
(1.00826 0.00478704 0)
(1.00731 0.00147179 0)
(1.00767 -0.00346678 0)
(1.00349 -0.00538074 0)
(1.00206 -0.00482004 0)
(1.00013 -0.00692348 0)
(0.998143 -0.00482369 0)
(0.995277 -0.00507235 0)
(0.994407 -0.00333488 0)
(0.991983 -0.00273783 0)
(0.991209 0.000126565 0)
(0.989193 0.000998106 0)
(1.00029 0.00131116 0)
(1.00203 -0.00187046 0)
(1.00044 0.000522094 0)
(0.997282 -0.00673599 0)
(0.990495 0.000969265 0)
(0.995922 0.00825055 0)
(1.00028 0.00767337 0)
(1.00285 0.00673617 0)
(1.00787 0.004506 0)
(1.00718 0.00158939 0)
(1.00717 -0.00333452 0)
(1.00359 -0.00517193 0)
(1.00189 -0.00473446 0)
(1.00009 -0.00641512 0)
(0.998213 -0.00488073 0)
(0.995305 -0.00451174 0)
(0.994492 -0.00323299 0)
(0.9922 -0.00210244 0)
(0.991663 0.000153629 0)
(0.98943 0.00109752 0)
(1.00019 0.00128398 0)
(1.00208 -0.0018772 0)
(1.00004 0.000589956 0)
(0.997736 -0.00659284 0)
(0.990852 0.00104343 0)
(0.996011 0.00801973 0)
(1.00041 0.00740793 0)
(1.00245 0.00667393 0)
(1.00754 0.00429067 0)
(1.00699 0.00158686 0)
(1.00674 -0.00308803 0)
(1.0036 -0.00506588 0)
(1.00175 -0.00443363 0)
(1.00008 -0.00620648 0)
(0.998288 -0.00466689 0)
(0.995312 -0.00429561 0)
(0.994715 -0.00295477 0)
(0.992413 -0.00171583 0)
(0.991781 0.000253921 0)
(0.989799 0.00136816 0)
(1.0001 0.0012697 0)
(1.00208 -0.00189715 0)
(0.999727 0.000674873 0)
(0.998081 -0.00647476 0)
(0.991177 0.00117711 0)
(0.996144 0.00772015 0)
(1.0006 0.00719997 0)
(1.00217 0.00664116 0)
(1.00728 0.00405088 0)
(1.00681 0.00160838 0)
(1.00633 -0.00288151 0)
(1.00365 -0.00514389 0)
(1.0016 -0.00383201 0)
(1.00007 -0.0061331 0)
(0.998349 -0.00437302 0)
(0.995453 -0.00403281 0)
(0.994818 -0.00227924 0)
(0.992692 -0.00193064 0)
(0.992227 0.00104044 0)
(0.99008 0.00215741 0)
(1.00003 0.00122181 0)
(1.00205 -0.00184474 0)
(0.999513 0.00069097 0)
(0.998321 -0.00622525 0)
(0.991467 0.00113212 0)
(0.996305 0.00763519 0)
(1.00081 0.00673756 0)
(1.002 0.00678595 0)
(1.00709 0.00363908 0)
(1.00661 0.00180854 0)
(1.00597 -0.00291136 0)
(1.00367 -0.004664 0)
(1.0015 -0.00423554 0)
(1.00006 -0.00502547 0)
(0.99845 -0.00481703 0)
(0.995575 -0.00297883 0)
(0.994927 -0.00239992 0)
(0.992994 -0.00074069 0)
(0.992524 0.000115681 0)
(0.990394 0.00143624 0)
(0.999968 0.00120549 0)
(1.00199 -0.00186105 0)
(0.999391 0.000740221 0)
(0.998486 -0.00608507 0)
(0.991715 0.00118261 0)
(0.99648 0.00744156 0)
(1.00103 0.00644497 0)
(1.00191 0.00672782 0)
(1.00694 0.00347543 0)
(1.00646 0.00159005 0)
(1.00566 -0.00234017 0)
(1.00368 -0.00484356 0)
(1.00145 -0.00371196 0)
(1.00005 -0.00494793 0)
(0.998552 -0.0043518 0)
(0.995825 -0.00314651 0)
(0.995132 -0.00182317 0)
(0.99318 -0.000630355 0)
(0.992645 0.000654145 0)
(0.99083 0.00206903 0)
(0.999934 0.00119133 0)
(1.00189 -0.00186986 0)
(0.999348 0.000790309 0)
(0.9986 -0.00593811 0)
(0.991924 0.00126561 0)
(0.996656 0.0071894 0)
(1.0012 0.00627043 0)
(1.00188 0.00662267 0)
(1.00682 0.00333973 0)
(1.00635 0.00148739 0)
(1.00533 -0.00198082 0)
(1.00374 -0.0049021 0)
(1.00139 -0.00326886 0)
(1.00009 -0.00482799 0)
(0.998633 -0.00379186 0)
(0.996043 -0.00301524 0)
(0.995299 -0.00143982 0)
(0.993532 -0.000619491 0)
(0.993087 0.0015608 0)
(0.991126 0.00290288 0)
(0.99992 0.00113673 0)
(1.00176 -0.00179033 0)
(0.999368 0.000763616 0)
(0.998675 -0.00557106 0)
(0.99212 0.00107561 0)
(0.9968 0.00721947 0)
(1.00136 0.00564411 0)
(1.00187 0.00691903 0)
(1.00673 0.00292181 0)
(1.00624 0.00160569 0)
(1.00505 -0.00204164 0)
(1.00376 -0.00427129 0)
(1.0014 -0.00374974 0)
(1.00013 -0.00362928 0)
(0.998766 -0.00411121 0)
(0.996301 -0.00198364 0)
(0.995496 -0.00135958 0)
(0.993861 0.000234335 0)
(0.993407 0.000380229 0)
(0.99148 0.00175414 0)
(0.999913 0.00113014 0)
(1.00164 -0.00181337 0)
(0.999416 0.000774641 0)
(0.998737 -0.00538335 0)
(0.992305 0.00107592 0)
(0.996917 0.00703877 0)
(1.00147 0.00538482 0)
(1.00188 0.00671012 0)
(1.00659 0.00295758 0)
(1.00616 0.00122754 0)
(1.00479 -0.0014146 0)
(1.00377 -0.00444479 0)
(1.00146 -0.0032086 0)
(1.00017 -0.0035653 0)
(0.998903 -0.00357545 0)
(0.996644 -0.00215804 0)
(0.995762 -0.00112599 0)
(0.994005 0.000344458 0)
(0.993501 0.00119681 0)
(0.991949 0.00253548 0)
(0.999919 0.00111934 0)
(1.00152 -0.00181848 0)
(0.99947 0.000791116 0)
(0.998801 -0.00518189 0)
(0.992493 0.0011077 0)
(0.997023 0.00680793 0)
(1.00151 0.00524794 0)
(1.0019 0.00648702 0)
(1.00645 0.0029661 0)
(1.0061 0.000924859 0)
(1.0045 -0.000906298 0)
(1.00381 -0.00440628 0)
(1.00152 -0.00289712 0)
(1.00025 -0.00344252 0)
(0.99902 -0.00297208 0)
(0.996886 -0.00216059 0)
(0.996041 -0.000725636 0)
(0.994508 0.000478654 0)
(0.994023 0.00220835 0)
(0.992231 0.00352199 0)
(0.999935 0.00105518 0)
(1.00141 -0.00170446 0)
(0.999531 0.000702454 0)
(0.998842 -0.00468733 0)
(0.992713 0.000799125 0)
(0.997094 0.00689399 0)
(1.00155 0.00456005 0)
(1.0019 0.00678776 0)
(1.00629 0.00261498 0)
(1.00602 0.00108085 0)
(1.00426 -0.00120711 0)
(1.00377 -0.00366426 0)
(1.00161 -0.00331891 0)
(1.00033 -0.00226168 0)
(0.999149 -0.00311323 0)
(0.997202 -0.00111909 0)
(0.996336 -0.000662945 0)
(0.994792 0.00144373 0)
(0.994334 0.00108022 0)
(0.992613 0.00210057 0)
(0.999935 0.00106067 0)
(1.00133 -0.00174425 0)
(0.999571 0.000679371 0)
(0.998888 -0.00447259 0)
(0.992949 0.000791376 0)
(0.997154 0.00668054 0)
(1.00156 0.00440439 0)
(1.0019 0.0063694 0)
(1.00608 0.0028555 0)
(1.00592 0.00070097 0)
(1.00403 -0.00074768 0)
(1.00374 -0.00356171 0)
(1.00178 -0.00304794 0)
(1.00041 -0.00223775 0)
(0.999323 -0.00258341 0)
(0.997519 -0.00116389 0)
(0.99675 -0.000377415 0)
(0.995081 0.0012734 0)
(0.994346 0.00197131 0)
(0.992992 0.0030849 0)
(0.999935 0.00104601 0)
(1.00128 -0.00172395 0)
(0.999595 0.000652721 0)
(0.998933 -0.00420541 0)
(0.993197 0.000777797 0)
(0.99724 0.00645 0)
(1.00153 0.00433733 0)
(1.00189 0.00595224 0)
(1.00586 0.00303202 0)
(1.00584 0.000328273 0)
(1.00381 -0.000130876 0)
(1.00366 -0.00347117 0)
(1.00186 -0.00269823 0)
(1.00054 -0.00238641 0)
(0.999431 -0.00203673 0)
(0.997795 -0.00119949 0)
(0.99701 1.82995e-06 0)
(0.99554 0.00125139 0)
(0.994994 0.00305712 0)
(0.993318 0.00403438 0)
(0.999943 0.000964627 0)
(1.00123 -0.00157406 0)
(0.999623 0.000504107 0)
(0.998947 -0.00363619 0)
(0.993482 0.000433832 0)
(0.997309 0.00649153 0)
(1.00151 0.00380905 0)
(1.00186 0.00600638 0)
(1.00563 0.00287057 0)
(1.00573 0.000507171 0)
(1.0036 -0.000326146 0)
(1.00356 -0.00266269 0)
(1.00201 -0.00305677 0)
(1.00064 -0.00144965 0)
(0.999613 -0.00221086 0)
(0.99806 -0.000427018 0)
(0.997401 0.000140729 0)
(0.996005 0.00255589 0)
(0.995239 0.00259165 0)
(0.993518 0.00310533 0)
(0.999932 0.00100059 0)
(1.00121 -0.00165072 0)
(0.999637 0.00048051 0)
(0.99896 -0.00345135 0)
(0.993781 0.000482507 0)
(0.997386 0.00622408 0)
(1.0015 0.00371781 0)
(1.00185 0.00565039 0)
(1.00539 0.00297029 0)
(1.0056 0.000344762 0)
(1.00345 5.48664e-05 0)
(1.0034 -0.00232575 0)
(1.00215 -0.00258104 0)
(1.00078 -0.00152914 0)
(0.999755 -0.00158634 0)
(0.998434 -0.000305913 0)
(0.997911 0.000150378 0)
(0.996337 0.00183856 0)
(0.995309 0.00246556 0)
(0.993803 0.00343539 0)
(0.999916 0.000936883 0)
(1.00121 -0.00153553 0)
(0.999636 0.000379379 0)
(0.998981 -0.0030732 0)
(0.994091 0.00039545 0)
(0.997482 0.00598567 0)
(1.00147 0.00368793 0)
(1.00183 0.00522234 0)
(1.00513 0.00312668 0)
(1.00551 0.000258765 0)
(1.00328 0.000332233 0)
(1.0033 -0.00199652 0)
(1.00222 -0.00230761 0)
(1.00093 -0.00131381 0)
(0.999978 -0.00109976 0)
(0.998578 -0.000295563 0)
(0.998097 0.000257173 0)
(0.996821 0.00131467 0)
(0.995929 0.00282172 0)
(0.994186 0.00396313 0)
(0.999907 0.000889684 0)
(1.0012 -0.00144189 0)
(0.999648 0.000240393 0)
(0.998978 -0.00261017 0)
(0.9944 0.000192452 0)
(0.99759 0.00584496 0)
(1.00146 0.00344936 0)
(1.00182 0.00505313 0)
(1.0049 0.00313535 0)
(1.00536 0.000310808 0)
(1.00317 0.000359034 0)
(1.0031 -0.00136273 0)
(1.00236 -0.00226694 0)
(1.00112 -0.000856094 0)
(1.00008 -0.00105897 0)
(0.998895 0.000165631 0)
(0.998489 0.000577349 0)
(0.997282 0.00202269 0)
(0.99636 0.00292415 0)
(0.994474 0.00381118 0)
(0.999893 0.00091229 0)
(1.0012 -0.00147717 0)
(0.999657 0.000202269 0)
(0.998989 -0.00242503 0)
(0.994721 0.000299428 0)
(0.997692 0.00550265 0)
(1.00144 0.00340842 0)
(1.00181 0.00477839 0)
(1.00465 0.00319751 0)
(1.00525 0.000281028 0)
(1.00307 0.000588662 0)
(1.00298 -0.00105297 0)
(1.00242 -0.00177923 0)
(1.00126 -0.000938067 0)
(1.00034 -0.000630564 0)
(0.999108 0.000520441 0)
(0.998774 0.000630075 0)
(0.997716 0.00204924 0)
(0.996726 0.00270488 0)
(0.994771 0.00347226 0)
(0.999879 0.000798696 0)
(1.00119 -0.00128388 0)
(0.999667 4.52665e-05 0)
(0.999 -0.00200833 0)
(0.995028 0.000226991 0)
(0.997811 0.00522304 0)
(1.00143 0.00338915 0)
(1.00181 0.00447482 0)
(1.00441 0.00327536 0)
(1.00512 0.000393305 0)
(1.003 0.00060208 0)
(1.0028 -0.000587158 0)
(1.00248 -0.00171086 0)
(1.00147 -0.000504597 0)
(1.00055 -0.0004651 0)
(0.999349 0.000705075 0)
(0.999104 0.000946947 0)
(0.998119 0.00214174 0)
(0.997053 0.00267099 0)
(0.995094 0.00343829 0)
(0.999866 0.000825818 0)
(1.00119 -0.00128607 0)
(0.999679 -2.18592e-05 0)
(0.99902 -0.00178865 0)
(0.995333 0.000310977 0)
(0.997933 0.00495164 0)
(1.00141 0.00328848 0)
(1.00181 0.00419885 0)
(1.00419 0.00336239 0)
(1.00499 0.00039881 0)
(1.00296 0.00070944 0)
(1.00267 -0.000276525 0)
(1.00255 -0.00121011 0)
(1.00163 -0.000424189 0)
(1.00077 -0.000235233 0)
(0.999627 0.000943915 0)
(0.999376 0.00117078 0)
(0.998464 0.002022 0)
(0.997402 0.00264525 0)
(0.995434 0.0034151 0)
(0.999854 0.000745582 0)
(1.00118 -0.00117367 0)
(0.999696 -0.000128438 0)
(0.999048 -0.00152965 0)
(0.995628 0.000385173 0)
(0.998049 0.00464285 0)
(1.00141 0.00325604 0)
(1.00183 0.00400273 0)
(1.00397 0.00340707 0)
(1.00485 0.000490586 0)
(1.00294 0.000779369 0)
(1.00256 4.23976e-05 0)
(1.00257 -0.00095641 0)
(1.0018 -0.000283488 0)
(1.00104 4.01366e-06 0)
(0.999885 0.00113455 0)
(0.999609 0.0013606 0)
(0.998817 0.00211645 0)
(0.997792 0.00274792 0)
(0.995771 0.0034124 0)
(0.999846 0.000716605 0)
(1.00117 -0.0010818 0)
(0.999716 -0.000235155 0)
(0.999081 -0.00132622 0)
(0.995912 0.00047458 0)
(0.998177 0.0044279 0)
(1.0014 0.00321118 0)
(1.00185 0.00373028 0)
(1.00376 0.00339155 0)
(1.00471 0.000598536 0)
(1.00294 0.000844386 0)
(1.00245 0.000337086 0)
(1.0026 -0.000599008 0)
(1.00198 -1.14321e-05 0)
(1.00129 0.000205313 0)
(1.00017 0.00128878 0)
(0.999868 0.00157627 0)
(0.999156 0.00222076 0)
(0.998121 0.00273122 0)
(0.996081 0.00331968 0)
(0.999838 0.000676196 0)
(1.00115 -0.00101882 0)
(0.99974 -0.00030771 0)
(0.999127 -0.00114295 0)
(0.996194 0.000585855 0)
(0.998293 0.00417002 0)
(1.00138 0.00314376 0)
(1.00188 0.00351803 0)
(1.00358 0.00342704 0)
(1.00457 0.000752701 0)
(1.00296 0.000910581 0)
(1.00238 0.000579406 0)
(1.00261 -0.000284575 0)
(1.00213 0.000143626 0)
(1.00154 0.000356207 0)
(1.00045 0.001392 0)
(1.00009 0.00175959 0)
(0.999438 0.00229952 0)
(0.998451 0.00273605 0)
(0.996411 0.00328797 0)
(0.999832 0.000616558 0)
(1.00113 -0.000907947 0)
(0.999769 -0.000393122 0)
(0.999176 -0.000972291 0)
(0.996458 0.000670132 0)
(0.998419 0.0039834 0)
(1.00138 0.00312268 0)
(1.00192 0.00332852 0)
(1.00341 0.00340745 0)
(1.00443 0.000862837 0)
(1.00299 0.000931587 0)
(1.00232 0.000790659 0)
(1.00263 9.20268e-07 0)
(1.00228 0.00040457 0)
(1.00179 0.000547734 0)
(1.00077 0.0015376 0)
(1.00036 0.00198163 0)
(0.99973 0.00243579 0)
(0.998753 0.00280344 0)
(0.996729 0.00325071 0)
(0.999826 0.000585597 0)
(1.0011 -0.0008281 0)
(0.9998 -0.000471928 0)
(0.999238 -0.000846102 0)
(0.996727 0.000795559 0)
(0.998539 0.00381533 0)
(1.00137 0.00306329 0)
(1.00196 0.00312005 0)
(1.00326 0.00337231 0)
(1.00429 0.00102492 0)
(1.00303 0.00101603 0)
(1.0023 0.00102726 0)
(1.00265 0.000329803 0)
(1.00241 0.000621904 0)
(1.00203 0.000727426 0)
(1.00108 0.00161894 0)
(1.00059 0.00209275 0)
(0.999963 0.00247975 0)
(0.99902 0.00282359 0)
(0.997023 0.00317221 0)
(0.999822 0.000517093 0)
(1.00107 -0.000726273 0)
(0.999836 -0.000533213 0)
(0.999308 -0.000702461 0)
(0.996978 0.000852783 0)
(0.998661 0.00363992 0)
(1.00136 0.0030564 0)
(1.00201 0.00299049 0)
(1.00314 0.00334421 0)
(1.00415 0.00118591 0)
(1.00307 0.0010686 0)
(1.00228 0.00117369 0)
(1.00266 0.000557956 0)
(1.00253 0.000823114 0)
(1.00225 0.000888951 0)
(1.0014 0.00167749 0)
(1.00086 0.0022223 0)
(1.00023 0.00260683 0)
(0.999279 0.00292412 0)
(0.997321 0.0031778 0)
(0.999817 0.000493431 0)
(1.00104 -0.000648783 0)
(0.999874 -0.000596411 0)
(0.999383 -0.000626725 0)
(0.997234 0.000949696 0)
(0.998788 0.00351376 0)
(1.00135 0.00301348 0)
(1.00206 0.00284692 0)
(1.00302 0.0032991 0)
(1.00401 0.00132749 0)
(1.00312 0.00112664 0)
(1.00231 0.00132728 0)
(1.0027 0.000835161 0)
(1.00265 0.00106797 0)
(1.00246 0.0011284 0)
(1.00173 0.00177181 0)
(1.00114 0.00236578 0)
(1.00047 0.00268328 0)
(0.999497 0.00300182 0)
(0.997573 0.00316166 0)
(0.999813 0.000412349 0)
(1.00101 -0.000505598 0)
(0.999913 -0.000683059 0)
(0.999472 -0.000495932 0)
(0.997477 0.00094926 0)
(0.998907 0.00343646 0)
(1.00134 0.00299261 0)
(1.00212 0.00271736 0)
(1.00294 0.00324613 0)
(1.00387 0.0014841 0)
(1.00317 0.001201 0)
(1.00233 0.00146389 0)
(1.00273 0.001046 0)
(1.00277 0.00124429 0)
(1.00265 0.00133138 0)
(1.00203 0.0018063 0)
(1.00141 0.00240577 0)
(1.00073 0.00273326 0)
(0.999718 0.00306551 0)
(0.997818 0.00316667 0)
(0.999808 0.000385539 0)
(1.00097 -0.0004549 0)
(0.999952 -0.00068674 0)
(0.999554 -0.000488375 0)
(0.997728 0.00106683 0)
(0.999041 0.00323057 0)
(1.00132 0.0030287 0)
(1.00216 0.00269033 0)
(1.00287 0.00321947 0)
(1.00374 0.00162729 0)
(1.00322 0.00127941 0)
(1.00239 0.00156965 0)
(1.00278 0.00126079 0)
(1.00289 0.00142584 0)
(1.00281 0.00156045 0)
(1.00232 0.00188216 0)
(1.00171 0.00251935 0)
(1.00099 0.0028259 0)
(0.999923 0.00314499 0)
(0.998043 0.00323101 0)
(0.999805 0.00033276 0)
(1.00093 -0.000358801 0)
(0.999987 -0.000718374 0)
(0.999663 -0.000460432 0)
(0.997961 0.0011455 0)
(0.999165 0.00300016 0)
(1.00134 0.0030718 0)
(1.00222 0.00269603 0)
(1.00282 0.00321305 0)
(1.00361 0.00179315 0)
(1.00327 0.00138107 0)
(1.00245 0.00168766 0)
(1.00283 0.00146077 0)
(1.00302 0.0015793 0)
(1.00297 0.00177337 0)
(1.0026 0.0020025 0)
(1.002 0.00259276 0)
(1.00124 0.00285915 0)
(1.00014 0.00320698 0)
(0.998254 0.00330028 0)
(0.9998 0.000273417 0)
(1.00088 -0.000245531 0)
(1.00002 -0.000743637 0)
(0.999762 -0.000416083 0)
(0.998195 0.00110189 0)
(0.999312 0.00298844 0)
(1.00135 0.00309373 0)
(1.00226 0.00261636 0)
(1.00277 0.00314562 0)
(1.00349 0.0019095 0)
(1.00331 0.00145767 0)
(1.00254 0.00176254 0)
(1.00289 0.0016447 0)
(1.00315 0.00169764 0)
(1.00312 0.00197719 0)
(1.00284 0.00211479 0)
(1.00227 0.00262204 0)
(1.0015 0.00289835 0)
(1.00037 0.00325779 0)
(0.998448 0.00335072 0)
(0.999797 0.00024531 0)
(1.00084 -0.000195726 0)
(1.00005 -0.000706908 0)