/*--------------------------------*- C++ -*----------------------------------*\
| =========                 |                                                 |
| \\      /  F ield         | OpenFOAM: The Open Source CFD Toolbox           |
|  \\    /   O peration     | Version:  v2012                                 |
|   \\  /    A nd           | Website:  www.openfoam.com                      |
|    \\/     M anipulation  |                                                 |
\*---------------------------------------------------------------------------*/
FoamFile
{
    version     2.0;
    format      ascii;
    class       surfaceScalarField;
    location    "9.5";
    object      phi;
}
// * * * * * * * * * * * * * * * * * * * * * * * * * * * * * * * * * * * * * //

dimensions      [0 3 -1 0 0 0 0];
oriented        oriented;


internalField   nonuniform List<scalar> 
13830
(
1.02313e-06
-3.8195e-07
7.94925e-07
1.10575e-06
9.11697e-07
-1.77293e-06
1.01612e-06
2.04787e-06
9.11814e-07
-3.09629e-07
9.83759e-07
-1.08993e-06
1.02892e-06
-6.06959e-07
9.27743e-07
1.15676e-07
9.34885e-07
8.36839e-07
9.11637e-07
3.28197e-07
9.35635e-07
1.15438e-07
9.37025e-07
1.0047e-07
9.49932e-07
1.27605e-07
9.44634e-07
1.33489e-07
9.39825e-07
1.959e-07
9.35125e-07
1.99439e-07
9.26679e-07
2.19154e-07
9.26592e-07
2.38327e-07
9.19168e-07
1.94042e-07
2.10186e-07
9.13105e-07
1.06271e-06
-4.72129e-07
8.39299e-07
1.32916e-06
9.58896e-07
-1.89253e-06
1.08963e-06
1.91713e-06
9.835e-07
-2.03496e-07
1.02977e-06
-1.13621e-06
1.07454e-06
-6.51732e-07
9.67423e-07
2.22798e-07
9.71249e-07
8.33014e-07
9.52263e-07
3.47183e-07
9.7569e-07
9.20109e-08
9.76728e-07
9.94326e-08
9.88935e-07
1.15398e-07
9.83679e-07
1.38745e-07
9.75415e-07
2.04164e-07
9.74954e-07
1.99899e-07
9.58076e-07
2.36033e-07
9.67899e-07
2.28504e-07
9.45989e-07
2.15953e-07
1.94269e-07
9.61906e-07
1.10051e-06
-5.63189e-07
8.97851e-07
1.53183e-06
1.00811e-06
-2.00278e-06
1.16494e-06
1.7603e-06
1.05614e-06
-9.46961e-08
1.07364e-06
-1.1537e-06
1.12079e-06
-6.98884e-07
1.02079e-06
3.22796e-07
1.01228e-06
8.4152e-07
1.00681e-06
3.52656e-07
1.01965e-06
7.91738e-08
1.02878e-06
9.02971e-08
1.02934e-06
1.1484e-07
1.03418e-06
1.33903e-07
1.01283e-06
2.25516e-07
1.02015e-06
1.92583e-07
9.94473e-07
2.61708e-07
1.00467e-06
2.18306e-07
9.85328e-07
2.35295e-07
1.8881e-07
9.90787e-07
1.1378e-06
-6.53211e-07
9.65255e-07
1.70437e-06
1.05997e-06
-2.0975e-06
1.2327e-06
1.58757e-06
1.12044e-06
1.75607e-08
1.11192e-06
-1.14518e-06
1.16199e-06
-7.48956e-07
1.08426e-06
4.00528e-07
1.06336e-06
8.62419e-07
1.06968e-06
3.46331e-07
1.06863e-06
8.02244e-08
1.08338e-06
7.55487e-08
1.07456e-06
1.23659e-07
1.08396e-06
1.24503e-07
1.05849e-06
2.50989e-07
1.0629e-06
1.88178e-07
1.04037e-06
2.84234e-07
1.0423e-06
2.16373e-07
1.03069e-06
2.4691e-07
1.90487e-07
1.02901e-06
1.17395e-06
-7.39607e-07
1.03723e-06
1.84109e-06
1.1123e-06
-2.17257e-06
1.28796e-06
1.41192e-06
1.17445e-06
1.31062e-07
1.14491e-06
-1.11563e-06
1.19474e-06
-7.98792e-07
1.15094e-06
4.44331e-07
1.1247e-06
8.8866e-07
1.13419e-06
3.36841e-07
1.12071e-06
9.37009e-08
1.13449e-06
6.17705e-08
1.12314e-06
1.35006e-07
1.13137e-06
1.16277e-07
1.1107e-06
2.71661e-07
1.10898e-06
1.8989e-07
1.09253e-06
3.00685e-07
1.08843e-06
2.20473e-07
1.0807e-06
2.54647e-07
1.94721e-07
1.07646e-06
1.20858e-06
-8.1934e-07
1.10876e-06
1.9409e-06
1.16311e-06
-2.22692e-06
1.32885e-06
1.24617e-06
1.21949e-06
2.40426e-07
1.17453e-06
-1.07068e-06
1.21922e-06
-8.43483e-07
1.213e-06
4.50555e-07
1.19203e-06
9.09624e-07
1.19573e-06
3.3314e-07
1.17323e-06
1.16198e-07
1.18089e-06
5.41115e-08
1.17144e-06
1.44456e-07
1.17731e-06
1.10415e-07
1.16431e-06
2.84653e-07
1.15979e-06
1.9441e-07
1.14784e-06
3.12638e-07
1.14198e-06
2.26332e-07
1.13543e-06
2.61194e-07
1.99441e-07
1.13071e-06
1.24177e-06
-8.89412e-07
1.17585e-06
2.00682e-06
1.2111e-06
-2.26217e-06
1.35663e-06
1.10064e-06
1.25834e-06
3.38717e-07
1.20343e-06
-1.01576e-06
1.23883e-06
-8.78887e-07
1.26606e-06
4.23327e-07
1.25818e-06
9.17508e-07
1.25215e-06
3.39171e-07
1.22333e-06
1.45012e-07
1.22346e-06
5.39857e-08
1.21586e-06
1.52055e-07
1.22091e-06
1.05369e-07
1.21457e-06
2.90991e-07
1.21164e-06
1.97337e-07
1.20341e-06
3.20871e-07
1.19856e-06
2.31178e-07
1.19291e-06
2.6685e-07
2.03992e-07
1.18836e-06
1.27425e-06
-9.47484e-07
1.2368e-06
2.04428e-06
1.25594e-06
-2.28131e-06
1.37484e-06
9.81752e-07
1.29369e-06
4.19861e-07
1.23429e-06
-9.56361e-07
1.25826e-06
-9.02859e-07
1.30963e-06
3.71961e-07
1.31649e-06
9.10651e-07
1.30231e-06
3.53349e-07
1.2692e-06
1.78116e-07
1.26328e-06
5.99127e-08
1.25546e-06
1.59866e-07
1.26105e-06
9.97863e-08
1.25935e-06
2.92692e-07
1.26035e-06
1.96337e-07
1.25617e-06
3.25048e-07
1.25347e-06
2.33876e-07
1.2494e-06
2.70919e-07
2.08172e-07
1.24522e-06
1.3073e-06
-9.92432e-07
1.29221e-06
2.05936e-06
1.29822e-06
-2.28732e-06
1.38823e-06
8.91749e-07
1.32754e-06
4.80551e-07
1.26922e-06
-8.98045e-07
1.28146e-06
-9.15098e-07
1.34527e-06
3.08154e-07
1.36365e-06
8.92273e-07
1.34596e-06
3.71033e-07
1.31091e-06
2.13166e-07
1.30165e-06
6.91794e-08
1.29206e-06
1.69448e-07
1.29827e-06
9.3582e-08
1.29917e-06
2.91785e-07
1.304e-06
1.91511e-07
1.30397e-06
3.25081e-07
1.30345e-06
2.34396e-07
1.30154e-06
2.72821e-07
2.11805e-07
1.29791e-06
1.34243e-06
-1.02459e-06
1.34413e-06
2.05767e-06
1.33931e-06
-2.28251e-06
1.40188e-06
8.29186e-07
1.36161e-06
5.2082e-07
1.30931e-06
-8.45744e-07
1.31077e-06
-9.16564e-07
1.37558e-06
2.43353e-07
1.40042e-06
8.67425e-07
1.38425e-06
3.87204e-07
1.35005e-06
2.47365e-07
1.34015e-06
7.9088e-08
1.32858e-06
1.81016e-07
1.33467e-06
8.7487e-08
1.33634e-06
2.90114e-07
1.34337e-06
1.84481e-07
1.34671e-06
3.21748e-07
1.34773e-06
2.3337e-07
1.34807e-06
2.72487e-07
2.1469e-07
1.34518e-06
1.38095e-06
-1.04552e-06
1.39482e-06
2.0438e-06
1.38103e-06
-2.26872e-06
1.42029e-06
7.89923e-07
1.39772e-06
5.43395e-07
1.35453e-06
-8.02552e-07
1.34704e-06
-9.0908e-07
1.40402e-06
1.86373e-07
1.43069e-06
8.40757e-07
1.41975e-06
3.98146e-07
1.38889e-06
2.78222e-07
1.38031e-06
8.76727e-08
1.36753e-06
1.93791e-07
1.37272e-06
8.23012e-08
1.37376e-06
2.8907e-07
1.38096e-06
1.77282e-07
1.38631e-06
3.16397e-07
1.38799e-06
2.31686e-07
1.39019e-06
2.70288e-07
2.16666e-07
1.38822e-06
1.42359e-06
-1.05746e-06
1.44601e-06
2.02139e-06
1.42509e-06
-2.24781e-06
1.44654e-06
7.68476e-07
1.43746e-06
5.52475e-07
1.40409e-06
-7.69177e-07
1.39004e-06
-8.95039e-07
1.43452e-06
1.41896e-07
1.4597e-06
8.15583e-07
1.45574e-06
4.021e-07
1.42964e-06
3.04323e-07
1.4233e-06
9.4018e-08
1.4104e-06
2.06687e-07
1.41421e-06
7.84861e-08
1.41397e-06
2.89311e-07
1.41969e-06
1.71569e-07
1.42576e-06
3.10321e-07
1.42731e-06
2.30139e-07
1.4308e-06
2.66794e-07
2.17676e-07
1.42979e-06
1.47041e-06
-1.06262e-06
1.49862e-06
1.99318e-06
1.47264e-06
-2.22183e-06
1.48183e-06
7.5929e-07
1.48182e-06
5.5248e-07
1.45704e-06
-7.44395e-07
1.43892e-06
-8.76917e-07
1.47038e-06
1.10431e-07
1.49225e-06
7.93715e-07
1.49521e-06
3.9914e-07
1.47403e-06
3.25507e-07
1.46984e-06
9.82059e-08
1.45769e-06
2.18839e-07
1.46004e-06
7.61354e-08
1.45863e-06
2.90716e-07
1.46194e-06
1.68256e-07
1.46794e-06
3.04323e-07
1.46885e-06
2.29234e-07
1.47309e-06
2.62552e-07
2.17787e-07
1.47298e-06
1.521e-06
-1.06275e-06
1.55293e-06
1.96125e-06
1.52399e-06
-2.19289e-06
1.52568e-06
7.57595e-07
1.53101e-06
5.47151e-07
1.5127e-06
-7.26083e-07
1.4925e-06
-8.56719e-07
1.51334e-06
8.95993e-08
1.5314e-06
7.75654e-07
1.53998e-06
3.90562e-07
1.52302e-06
3.42458e-07
1.52028e-06
1.0095e-07
1.50932e-06
2.29795e-07
1.51032e-06
7.51433e-08
1.50841e-06
2.92621e-07
1.50911e-06
1.67561e-07
1.51479e-06
2.98644e-07
1.51488e-06
2.29144e-07
1.51944e-06
2.57982e-07
2.17169e-07
1.52006e-06
1.57477e-06
-1.0589e-06
1.60891e-06
1.9271e-06
1.5788e-06
-2.16278e-06
1.5767e-06
7.59701e-07
1.58474e-06
5.39113e-07
1.57077e-06
-7.1212e-07
1.54968e-06
-8.35627e-07
1.56335e-06
7.59266e-08
1.57801e-06
7.60993e-07
1.59047e-06
3.78102e-07
1.57684e-06
3.56089e-07
1.57468e-06
1.03117e-07
1.56505e-06
2.39417e-07
1.5648e-06
7.53917e-08
1.56322e-06
2.94201e-07
1.56159e-06
1.69195e-07
1.56705e-06
2.93187e-07
1.56639e-06
2.29803e-07
1.57099e-06
2.53379e-07
2.16046e-07
1.57212e-06
1.63129e-06
-1.05165e-06
1.66656e-06
1.89184e-06
1.63644e-06
-2.13266e-06
1.63326e-06
7.62884e-07
1.64252e-06
5.29856e-07
1.63121e-06
-7.00811e-07
1.60958e-06
-8.13995e-07
1.61922e-06
6.62809e-08
1.63132e-06
7.4889e-07
1.64608e-06
3.63344e-07
1.6351e-06
3.67074e-07
1.63286e-06
1.05355e-07
1.6246e-06
2.4768e-07
1.62313e-06
7.68542e-08
1.6226e-06
2.94738e-07
1.61913e-06
1.72665e-07
1.62456e-06
2.87759e-07
1.62334e-06
2.31019e-07
1.62777e-06
2.48949e-07
2.14647e-07
1.62917e-06
1.69043e-06
-1.04133e-06
1.72605e-06
1.85622e-06
1.69631e-06
-2.10293e-06
1.6941e-06
7.65098e-07
1.70398e-06
5.19977e-07
1.69408e-06
-6.90909e-07
1.67165e-06
-7.91569e-07
1.67939e-06
5.85428e-08
1.68982e-06
7.38453e-07
1.70573e-06
3.47443e-07
1.69711e-06
3.75692e-07
1.69451e-06
1.07953e-07
1.68768e-06
2.54513e-07
1.68492e-06
7.96094e-08
1.68592e-06
2.93743e-07
1.68112e-06
1.77462e-07
1.68666e-06
2.82218e-07
1.68512e-06
2.3256e-07
1.68923e-06
2.44836e-07
2.13175e-07
1.6907e-06
1.75231e-06
-1.02833e-06
1.78781e-06
1.82072e-06
1.75811e-06
-2.07323e-06
1.75849e-06
7.64728e-07
1.76892e-06
5.09543e-07
1.75946e-06
-6.8145e-07
1.73566e-06
-7.67767e-07
1.7426e-06
5.16042e-08
1.75212e-06
7.28929e-07
1.76841e-06
3.31149e-07
1.76218e-06
3.81921e-07
1.75924e-06
1.10898e-07
1.75398e-06
2.59768e-07
1.74981e-06
8.37847e-08
1.75255e-06
2.91005e-07
1.74689e-06
1.83122e-07
1.75259e-06
2.76513e-07
1.75098e-06
2.34175e-07
1.7547e-06
2.41113e-07
2.11766e-07
1.75611e-06
1.81725e-06
-1.01324e-06
1.85234e-06
1.78563e-06
1.8219e-06
-2.0428e-06
1.82616e-06
7.60471e-07
1.83726e-06
4.98444e-07
1.82742e-06
-6.71615e-07
1.8016e-06
-7.41948e-07
1.80817e-06
4.50333e-08
1.81738e-06
7.19726e-07
1.83357e-06
3.14951e-07
1.82985e-06
3.85651e-07
1.82669e-06
1.14057e-07
1.82319e-06
2.63269e-07
1.81747e-06
8.95007e-08
1.8219e-06
2.86572e-07
1.81579e-06
1.89232e-07
1.82165e-06
2.70656e-07
1.82022e-06
2.35609e-07
1.82356e-06
2.37767e-07
2.10472e-07
1.82486e-06
1.8855e-06
-9.96842e-07
1.92009e-06
1.75105e-06
1.88801e-06
-2.01072e-06
1.89711e-06
7.51368e-07
1.9089e-06
4.86655e-07
1.89801e-06
-6.60723e-07
1.8697e-06
-7.13637e-07
1.87602e-06
3.87147e-08
1.88539e-06
7.10358e-07
1.90113e-06
2.9921e-07
1.8999e-06
3.86874e-07
1.89659e-06
1.17368e-07
1.89498e-06
2.64877e-07
1.88767e-06
9.68156e-08
1.89355e-06
2.80692e-07
1.88733e-06
1.95452e-07
1.89328e-06
2.64706e-07
1.89226e-06
2.36627e-07
1.89532e-06
2.34711e-07
2.09262e-07
1.89653e-06
1.95717e-06
-9.7991e-07
1.99127e-06
1.71695e-06
1.9569e-06
-1.97635e-06
1.97136e-06
7.36903e-07
1.98367e-06
4.7435e-07
1.97127e-06
-6.48323e-07
1.94033e-06
-6.82699e-07
1.94642e-06
3.26279e-08
1.95635e-06
7.0043e-07
1.97131e-06
2.84243e-07
1.97244e-06
3.8575e-07
1.96883e-06
1.20975e-07
1.96918e-06
2.64529e-07
1.96034e-06
1.05658e-07
1.96727e-06
2.7376e-07
1.9612e-06
2.01515e-07
1.96711e-06
2.58798e-07
1.96668e-06
2.37058e-07
1.96956e-06
2.31828e-07
2.08055e-07
1.97077e-06
2.03215e-06
-9.63012e-07
2.06588e-06
1.68322e-06
2.02896e-06
-1.93944e-06
2.04878e-06
7.17088e-07
2.06126e-06
4.61871e-07
2.04724e-06
-6.34305e-07
2.01395e-06
-6.49409e-07
2.01979e-06
2.67867e-08
2.03054e-06
6.89676e-07
2.04444e-06
2.70347e-07
2.04766e-06
3.8253e-07
2.0434e-06
1.25234e-07
2.04568e-06
2.62246e-07
2.03556e-06
1.1578e-07
2.04309e-06
2.66233e-07
2.03738e-06
2.07226e-07
2.04304e-06
2.5313e-07
2.04325e-06
2.36851e-07
2.04606e-06
2.29022e-07
2.06776e-07
2.04734e-06
2.11023e-06
-9.46403e-07
2.14377e-06
1.64969e-06
2.10442e-06
-1.90009e-06
2.12907e-06
6.92434e-07
2.14134e-06
4.49607e-07
2.12595e-06
-6.18923e-07
2.09093e-06
-6.1439e-07
2.09645e-06
2.12687e-08
2.10811e-06
6.78015e-07
2.12064e-06
2.5782e-07
2.12573e-06
3.77437e-07
2.12039e-06
1.30575e-07
2.12449e-06
2.58148e-07
2.11351e-06
1.26764e-07
2.1212e-06
2.58543e-07
2.11598e-06
2.12439e-07
2.1212e-06
2.47915e-07
2.12198e-06
2.36069e-07
2.12477e-06
2.26229e-07
2.05378e-07
2.12617e-06
2.19125e-06
-9.3007e-07
2.22482e-06
1.61611e-06
2.1833e-06
-1.85856e-06
2.21196e-06
6.63775e-07
2.22369e-06
4.37879e-07
2.20746e-06
-6.02692e-07
2.17154e-06
-5.78473e-07
2.17657e-06
1.62407e-08
2.18905e-06
6.65535e-07
2.19987e-06
2.46994e-07
2.20673e-06
3.70578e-07
2.19999e-06
1.37315e-07
2.20567e-06
2.52473e-07
2.19434e-06
1.38094e-07
2.20183e-06
2.51047e-07
2.19726e-06
2.17015e-07
2.20186e-06
2.43315e-07
2.20307e-06
2.34858e-07
2.20588e-06
2.23418e-07
2.03837e-07
2.20742e-06
2.27519e-06
-9.13866e-07
2.30906e-06
1.58224e-06
2.26557e-06
-1.81507e-06
2.2973e-06
6.32047e-07
2.30828e-06
4.26896e-07
2.29179e-06
-5.86192e-07
2.25585e-06
-5.42538e-07
2.26016e-06
1.19313e-08
2.2733e-06
6.52392e-07
2.28205e-06
2.38246e-07
2.29066e-06
3.6197e-07
2.28244e-06
1.45532e-07
2.28934e-06
2.45572e-07
2.27818e-06
1.49261e-07
2.28521e-06
2.44015e-07
2.28139e-06
2.20827e-07
2.28532e-06
2.39394e-07
2.28673e-06
2.33444e-07
2.28966e-06
2.20485e-07
2.02143e-07
2.29136e-06
2.36217e-06
-8.97648e-07
2.39661e-06
1.54779e-06
2.35124e-06
-1.7697e-06
2.38517e-06
5.98114e-07
2.39529e-06
4.1678e-07
2.37899e-06
-5.6989e-07
2.34386e-06
-5.0741e-07
2.34722e-06
8.57094e-09
2.36094e-06
6.38671e-07
2.36725e-06
2.3194e-07
2.37753e-06
3.51684e-07
2.36801e-06
1.55055e-07
2.3757e-06
2.37881e-07
2.36514e-06
1.59822e-07
2.3715e-06
2.37652e-07
2.36856e-06
2.23766e-07
2.37172e-06
2.36237e-07
2.37303e-06
2.32135e-07
2.37642e-06
2.17096e-07
2.00283e-07
2.37828e-06
2.45236e-06
-8.81332e-07
2.48766e-06
1.5125e-06
2.44038e-06
-1.72243e-06
2.4758e-06
5.62703e-07
2.48498e-06
4.07596e-07
2.46913e-06
-5.54035e-07
2.43552e-06
-4.73806e-07
2.43776e-06
6.33557e-09
2.45212e-06
6.24305e-07
2.45575e-06
2.28311e-07
2.46747e-06
3.3996e-07
2.45698e-06
1.65548e-07
2.46498e-06
2.29881e-07
2.45537e-06
1.6943e-07
2.4609e-06
2.32131e-07
2.45892e-06
2.25746e-07
2.46078e-06
2.34369e-07
2.46192e-06
2.30999e-07
2.46637e-06
2.12649e-07
1.98264e-07
2.46839e-06
2.54595e-06
-8.64877e-07
2.58236e-06
1.47609e-06
2.53315e-06
-1.67322e-06
2.56943e-06
5.26423e-07
2.57766e-06
3.99366e-07
2.56229e-06
-5.38663e-07
2.53079e-06
-4.4231e-07
2.53179e-06
5.33946e-09
2.54699e-06
6.09102e-07
2.5479e-06
2.274e-07
2.5607e-06
3.27164e-07
2.54961e-06
1.76632e-07
2.55748e-06
2.22016e-07
2.54903e-06
1.77883e-07
2.55358e-06
2.27577e-07
2.55257e-06
2.26752e-07
2.55848e-06
2.28466e-07
2.56183e-06
2.27647e-07
2.55967e-06
2.14805e-07
1.96113e-07
2.56183e-06
2.64306e-06
-8.48258e-07
2.68085e-06
1.4383e-06
2.62969e-06
-1.62207e-06
2.66631e-06
4.89805e-07
2.67363e-06
3.92049e-07
2.65859e-06
-5.23621e-07
2.62967e-06
-4.13388e-07
2.62935e-06
5.65505e-09
2.64562e-06
5.92836e-07
2.64401e-06
2.29007e-07
2.65748e-06
3.13697e-07
2.64616e-06
1.87943e-07
2.65349e-06
2.14688e-07
2.64627e-06
1.85103e-07
2.65022e-06
2.23627e-07
2.64817e-06
2.28804e-07
2.64928e-06
2.27357e-07
2.65066e-06
2.26263e-07
2.65643e-06
2.0904e-07
1.9379e-07
2.65875e-06
2.74383e-06
-8.31433e-07
2.78323e-06
1.3989e-06
2.73018e-06
-1.56902e-06
2.76666e-06
4.5332e-07
2.77318e-06
3.85526e-07
2.75821e-06
-5.08649e-07
2.73213e-06
-3.87302e-07
2.73055e-06
7.22954e-09
2.74797e-06
5.7542e-07
2.74434e-06
2.32629e-07
2.75798e-06
3.00061e-07
2.74699e-06
1.98938e-07
2.75314e-06
2.08532e-07
2.74761e-06
1.90633e-07
2.75057e-06
2.20666e-07
2.74804e-06
2.31333e-07
2.74832e-06
2.27086e-07
2.74936e-06
2.25213e-07
2.75701e-06
2.01396e-07
1.91586e-07
2.75921e-06
2.84837e-06
-8.14346e-07
2.88959e-06
1.35768e-06
2.83473e-06
-1.51416e-06
2.87067e-06
4.17379e-07
2.87662e-06
3.7958e-07
2.86137e-06
-4.93406e-07
2.83821e-06
-3.64136e-07
2.8355e-06
9.93827e-09
2.85404e-06
5.56877e-07
2.84907e-06
2.37604e-07
2.86237e-06
2.86754e-07
2.85232e-06
2.08993e-07
2.85664e-06
2.04207e-07
2.85308e-06
1.9419e-07
2.85612e-06
2.17635e-07
2.86072e-06
2.2673e-07
2.86643e-06
2.21375e-07
2.8692e-06
2.22448e-07
2.86161e-06
2.08977e-07
1.89848e-07
2.86335e-06
2.95683e-06
-7.96929e-07
3e-06
1.31451e-06
2.94347e-06
-1.45763e-06
2.97853e-06
3.82323e-07
2.98421e-06
3.73896e-07
2.96831e-06
-4.77503e-07
2.94797e-06
-3.43797e-07
2.94432e-06
1.35935e-08
2.9639e-06
5.37299e-07
2.95815e-06
2.43352e-07
2.97089e-06
2.7401e-07
2.96215e-06
2.17736e-07
2.96453e-06
2.0183e-07
2.96252e-06
1.96194e-07
2.96056e-06
2.19604e-07
2.95966e-06
2.27629e-07
2.95818e-06
2.22849e-07
2.95913e-06
2.21498e-07
2.96995e-06
1.9816e-07
1.88153e-07
2.97164e-06
3.06934e-06
-7.79114e-07
3.11453e-06
1.26933e-06
3.05653e-06
-1.39963e-06
3.09044e-06
3.48409e-07
3.09624e-06
3.68102e-07
3.07932e-06
-4.60586e-07
3.06152e-06
-3.26002e-07
3.05717e-06
1.7946e-08
3.07759e-06
5.16876e-07
3.07157e-06
2.49377e-07
3.08377e-06
2.61808e-07
3.07615e-06
2.25354e-07
3.07721e-06
2.00769e-07
3.07698e-06
1.96429e-07
3.07935e-06
2.1723e-07
3.08665e-06
2.20327e-07
3.09172e-06
2.1778e-07
3.09444e-06
2.18781e-07
3.08257e-06
2.10029e-07
1.86708e-07
3.08401e-06
3.18609e-06
-7.6084e-07
3.23325e-06
1.22217e-06
3.17403e-06
-1.34041e-06
3.20657e-06
3.1587e-07
3.21295e-06
3.61728e-07
3.19464e-06
-4.42275e-07
3.17909e-06
-3.10452e-07
3.17416e-06
2.28679e-08
3.19535e-06
4.95692e-07
3.18923e-06
2.55494e-07
3.20126e-06
2.4978e-07
3.19375e-06
2.32869e-07
3.19594e-06
1.98571e-07
3.19422e-06
1.98153e-07
3.1968e-06
2.14645e-07
3.18765e-06
2.29487e-07
3.1866e-06
2.1882e-07
3.18933e-06
2.16055e-07
3.19883e-06
2.00526e-07
1.84414e-07
3.20113e-06
3.30722e-06
-7.42051e-07
3.35624e-06
1.17315e-06
3.29612e-06
-1.28029e-06
3.32713e-06
2.84852e-07
3.33447e-06
3.54391e-07
3.31464e-06
-4.22443e-07
3.30079e-06
-2.96608e-07
3.29573e-06
2.79288e-08
3.31698e-06
4.74449e-07
3.31175e-06
2.60719e-07
3.3227e-06
2.38833e-07
3.31674e-06
2.38825e-07
3.31799e-06
1.97322e-07
3.31142e-06
2.0472e-07
3.30862e-06
2.17446e-07
3.30755e-06
2.30563e-07
3.30708e-06
2.1929e-07
3.30955e-06
2.13579e-07
3.32043e-06
1.89649e-07
1.82227e-07
3.32262e-06
3.43295e-06
-7.22715e-07
3.48361e-06
1.12248e-06
3.42293e-06
-1.21961e-06
3.45231e-06
2.55474e-07
3.46091e-06
3.45788e-07
3.43967e-06
-4.01202e-07
3.42675e-06
-2.83688e-07
3.4223e-06
3.23836e-08
3.44252e-06
4.54228e-07
3.43941e-06
2.63825e-07
3.44796e-06
2.30281e-07
3.44502e-06
2.41771e-07
3.44105e-06
2.01286e-07
3.44955e-06
1.96221e-07
3.45154e-06
2.1546e-07
3.45809e-06
2.24011e-07
3.46289e-06
2.14486e-07
3.4651e-06
2.11368e-07
3.44775e-06
2.07005e-07
1.81506e-07
3.44847e-06
3.56348e-06
-7.02849e-07
3.61548e-06
1.07048e-06
3.55469e-06
-1.15882e-06
3.5822e-06
2.27959e-07
3.59256e-06
3.35431e-07
3.56965e-06
-3.78289e-07
3.55765e-06
-2.7169e-07
3.55333e-06
3.66975e-08
3.57343e-06
4.3413e-07
3.57032e-06
2.66936e-07
3.57989e-06
2.20709e-07
3.5751e-06
2.46567e-07
3.57354e-06
2.02847e-07
3.56865e-06
2.01112e-07
3.56599e-06
2.18114e-07
3.56282e-06
2.27184e-07
3.56204e-06
2.15269e-07
3.56564e-06
2.07771e-07
3.57781e-06
1.94826e-07
1.79379e-07
3.57994e-06
3.69901e-06
-6.82478e-07
3.75203e-06
1.01747e-06
3.69152e-06
-1.09831e-06
3.71708e-06
2.02396e-07
3.72924e-06
3.23272e-07
3.70501e-06
-3.54052e-07
3.69328e-06
-2.59963e-07
3.68981e-06
4.01655e-08
3.70881e-06
4.15131e-07
3.70673e-06
2.69021e-07
3.71574e-06
2.11695e-07
3.71268e-06
2.4963e-07
3.71323e-06
2.02292e-07
3.70437e-06
2.09968e-07
3.70176e-06
2.20732e-07
3.69832e-06
2.30618e-07
3.69697e-06
2.16619e-07
3.69975e-06
2.04997e-07
3.71407e-06
1.80501e-07
1.77351e-07
3.7161e-06
3.83976e-06
-6.61653e-07
3.89345e-06
9.63778e-07
3.83361e-06
-1.03846e-06
3.85718e-06
1.78818e-07
3.87091e-06
3.09543e-07
3.84609e-06
-3.29229e-07
3.83348e-06
-2.47354e-07
3.83223e-06
4.14195e-08
3.84845e-06
3.98907e-07
3.84943e-06
2.68037e-07
3.85336e-06
2.07771e-07
3.85448e-06
2.48511e-07
3.84578e-06
2.10991e-07
3.86315e-06
1.92598e-07
3.86777e-06
2.16105e-07
3.87437e-06
2.2402e-07
3.87839e-06
2.12602e-07
3.87812e-06
2.05264e-07
3.85717e-06
2.01449e-07
1.77577e-07
3.85695e-06
3.986e-06
-6.40499e-07
4.03991e-06
9.0987e-07
3.98125e-06
-9.79805e-07
4.00245e-06
1.57616e-07
4.01821e-06
2.93784e-07
3.99235e-06
-3.0337e-07
3.97989e-06
-2.3489e-07
3.97837e-06
4.29361e-08
3.99614e-06
3.81143e-07
3.99356e-06
2.70617e-07
4.00411e-06
1.97215e-07
4.00563e-06
2.46997e-07
4.00436e-06
2.12256e-07
3.99039e-06
2.06569e-07
3.98828e-06
2.18218e-07
3.98502e-06
2.27275e-07
3.98322e-06
2.14407e-07
3.9867e-06
2.01779e-07
4.00133e-06
1.86826e-07
1.74587e-07
4.00432e-06
4.13789e-06
-6.19106e-07
4.19169e-06
8.56075e-07
4.13453e-06
-9.22648e-07
4.1534e-06
1.3874e-07
4.17061e-06
2.76582e-07
4.14462e-06
-2.77387e-07
4.13131e-06
-2.21581e-07
4.13074e-06
4.35061e-08
4.14849e-06
3.63395e-07
4.14472e-06
2.74385e-07
4.15596e-06
1.85981e-07
4.14718e-06
2.55777e-07
4.14078e-06
2.18649e-07
4.13929e-06
2.08062e-07
4.14016e-06
2.17349e-07
4.13655e-06
2.30881e-07
4.135e-06
2.15964e-07
4.13719e-06
1.99585e-07
4.1535e-06
1.70514e-07
1.71463e-07
4.15663e-06
4.29565e-06
-5.97573e-07
4.34903e-06
8.02704e-07
4.2936e-06
-8.67221e-07
4.31039e-06
1.21951e-07
4.32809e-06
2.58878e-07
4.30351e-06
-2.52808e-07
4.28726e-06
-2.05326e-07
4.29028e-06
4.04894e-08
4.30444e-06
3.49233e-07
4.30452e-06
2.74304e-07
4.30519e-06
1.8531e-07
4.32208e-06
2.38883e-07
4.31873e-06
2.22007e-07
4.32492e-06
2.01872e-07
4.33138e-06
2.10885e-07
4.33946e-06
2.22799e-07
4.34441e-06
2.11015e-07
4.34038e-06
2.03614e-07
4.31432e-06
1.96572e-07
1.72234e-07
4.31355e-06
4.45959e-06
-5.76081e-07
4.51203e-06
7.50265e-07
4.45892e-06
-8.14107e-07
4.47305e-06
1.07819e-07
4.49206e-06
2.39867e-07
4.46745e-06
-2.28196e-07
4.45189e-06
-1.89767e-07
4.45208e-06
4.03053e-08
4.47121e-06
3.30096e-07
4.46523e-06
2.80287e-07
4.47597e-06
1.74573e-07
4.46916e-06
2.45696e-07
4.46209e-06
2.29076e-07
4.45743e-06
2.06526e-07
4.46042e-06
2.07894e-07
4.45739e-06
2.25829e-07
4.45629e-06
2.1212e-07
4.4593e-06
2.00598e-07
4.47447e-06
1.81407e-07
1.68275e-07
4.47843e-06
4.62984e-06
-5.54718e-07
4.68117e-06
6.98939e-07
4.63036e-06
-7.63299e-07
4.64245e-06
9.57342e-08
4.66142e-06
2.20898e-07
4.63851e-06
-2.05292e-07
4.62109e-06
-1.72343e-07
4.62201e-06
3.93851e-08
4.64151e-06
3.10593e-07
4.63279e-06
2.89009e-07
4.64029e-06
1.67067e-07
4.6372e-06
2.48787e-07
4.63225e-06
2.34028e-07
4.62658e-06
2.122e-07
4.62968e-06
2.04794e-07
4.62759e-06
2.27917e-07
4.62586e-06
2.13845e-07
4.62858e-06
1.97885e-07
4.64489e-06
1.65096e-07
1.64931e-07
4.64823e-06
4.80663e-06
-5.3356e-07
4.85668e-06
6.4889e-07
4.80813e-06
-7.14747e-07
4.81891e-06
8.49475e-08
4.83614e-06
2.03676e-07
4.81797e-06
-1.87131e-07
4.79472e-06
-1.49084e-07
4.80149e-06
3.2613e-08
4.81297e-06
2.99107e-07
4.81708e-06
2.84901e-07
4.81297e-06
1.71179e-07
4.83663e-06
2.25125e-07
4.8372e-06
2.3346e-07
4.84199e-06
2.07413e-07
4.84839e-06
1.98394e-07
4.86035e-06
2.15949e-07
4.86516e-06
2.09044e-07
4.85817e-06
2.04868e-07
4.82651e-06
1.96757e-07
1.68679e-07
4.82276e-06
4.99031e-06
-5.12803e-07
5.03859e-06
6.00618e-07
4.99288e-06
-6.69041e-07
5.00153e-06
7.62999e-08
5.01896e-06
1.86248e-07
5.00083e-06
-1.69005e-07
4.97982e-06
-1.28075e-07
4.98157e-06
3.08595e-08
4.99705e-06
2.8363e-07
4.9936e-06
2.88353e-07
4.9905e-06
1.74276e-07
4.99465e-06
2.20977e-07
4.99079e-06
2.37318e-07
4.98687e-06
2.11341e-07
4.98636e-06
1.98894e-07
4.98942e-06
2.12897e-07
4.98558e-06
2.12885e-07
4.98817e-06
2.0227e-07
5.00489e-06
1.80038e-07
1.66546e-07
5.00702e-06
5.18097e-06
-4.92462e-07
5.22759e-06
5.54005e-07
5.18426e-06
-6.25717e-07
5.19192e-06
6.86381e-08
5.2079e-06
1.70273e-07
5.19119e-06
-1.52298e-07
5.17197e-06
-1.08852e-07
5.16815e-06
3.4677e-08
5.18961e-06
2.62174e-07
5.18178e-06
2.96178e-07
5.17927e-06
1.76789e-07
5.18212e-06
2.18123e-07
5.18219e-06
2.37253e-07
5.176e-06
2.17523e-07
5.17648e-06
1.98419e-07
5.17889e-06
2.10485e-07
5.18219e-06
2.09591e-07
5.18799e-06
1.96469e-07
5.19287e-06
1.75151e-07
1.61975e-07
5.19745e-06
5.37893e-06
-4.72612e-07
5.42378e-06
5.09156e-07
5.38266e-06
-5.846e-07
5.39025e-06
6.10424e-08
5.40287e-06
1.57656e-07
5.39006e-06
-1.39485e-07
5.36903e-06
-8.78263e-08
5.36503e-06
3.86854e-08
5.38248e-06
2.44719e-07
5.37968e-06
2.98978e-07
5.37351e-06
1.82963e-07
5.3783e-06
2.1333e-07
5.3793e-06
2.36255e-07
5.37394e-06
2.22881e-07
5.37316e-06
1.99201e-07
5.37759e-06
2.06055e-07
5.38305e-06
2.0413e-07
5.3884e-06
1.91124e-07
5.3898e-06
1.73747e-07
1.57181e-07
5.39459e-06
5.58446e-06
-4.53329e-07
5.62736e-06
4.66252e-07
5.58854e-06
-5.45782e-07
5.59625e-06
5.33327e-08
5.60565e-06
1.48261e-07
5.59522e-06
-1.29059e-07
5.57434e-06
-6.69423e-08
5.56894e-06
4.4082e-08
5.58496e-06
2.28701e-07
5.58485e-06
2.99089e-07
5.57662e-06
1.91191e-07
5.58188e-06
2.08073e-07
5.58342e-06
2.34707e-07
5.57989e-06
2.26412e-07
5.57816e-06
2.00932e-07
5.58359e-06
2.00624e-07
5.58769e-06
2.00031e-07
5.59047e-06
1.88343e-07
5.5947e-06
1.69516e-07
1.52761e-07
5.59912e-06
5.79775e-06
-4.34604e-07
5.83887e-06
4.25133e-07
5.80192e-06
-5.08833e-07
5.81077e-06
4.4486e-08
5.81609e-06
1.42937e-07
5.8078e-06
-1.20763e-07
5.78742e-06
-4.65647e-08
5.78074e-06
5.07578e-08
5.79521e-06
2.14241e-07
5.79751e-06
2.9678e-07
5.78829e-06
2.00411e-07
5.7931e-06
2.03265e-07
5.7954e-06
2.32412e-07
5.79384e-06
2.27972e-07
5.7914e-06
2.03366e-07
5.79653e-06
1.95496e-07
5.80171e-06
1.94856e-07
5.80743e-06
1.82616e-07
5.80778e-06
1.69165e-07
1.49141e-07
5.8114e-06
6.01918e-06
-4.16486e-07
6.05846e-06
3.85849e-07
6.02325e-06
-4.73621e-07
6.03324e-06
3.44999e-08
6.03524e-06
1.40933e-07
6.02765e-06
-1.13173e-07
6.00877e-06
-2.76845e-08
6.0008e-06
5.87299e-08
6.01349e-06
2.01556e-07
6.01811e-06
2.92154e-07
6.00879e-06
2.09728e-07
6.01235e-06
1.9971e-07
6.01545e-06
2.29307e-07
6.01558e-06
2.27843e-07
6.01314e-06
2.05812e-07
6.01711e-06
1.91522e-07
6.02119e-06
1.90781e-07
6.02263e-06
1.81174e-07
6.02907e-06
1.62723e-07
1.46222e-07
6.03199e-06
6.249e-06
-3.98986e-07
6.28646e-06
3.48387e-07
6.25286e-06
-4.40014e-07
6.26377e-06
2.35819e-08
6.2634e-06
1.41308e-07
6.25544e-06
-1.0521e-07
6.23858e-06
-1.08263e-08
6.22946e-06
6.78476e-08
6.24032e-06
1.90692e-07
6.24698e-06
2.85502e-07
6.23801e-06
2.18693e-07
6.24005e-06
1.97668e-07
6.24395e-06
2.25415e-07
6.24552e-06
2.26272e-07
6.24361e-06
2.07722e-07
6.24614e-06
1.88987e-07
6.2519e-06
1.85021e-07
6.2586e-06
1.74473e-07
6.25871e-06
1.62615e-07
1.43894e-07
6.26104e-06
6.48753e-06
-3.82114e-07
6.5232e-06
3.12717e-07
6.49109e-06
-4.07902e-07
6.50261e-06
1.20585e-08
6.50095e-06
1.4297e-07
6.49172e-06
-9.59797e-08
6.47708e-06
3.81679e-09
6.46717e-06
7.77593e-08
6.4762e-06
1.81658e-07
6.48431e-06
2.77397e-07
6.47614e-06
2.26858e-07
6.47682e-06
1.96985e-07
6.48131e-06
2.20933e-07
6.48383e-06
2.23751e-07
6.4828e-06
2.08752e-07
6.48409e-06
1.87693e-07
6.48851e-06
1.806e-07
6.49017e-06
1.72817e-07
6.49688e-06
1.55901e-07
1.41703e-07
6.49907e-06
6.73509e-06
-3.65867e-07
6.76898e-06
2.7883e-07
6.73828e-06
-3.77203e-07
6.75022e-06
1.17171e-10
6.74815e-06
1.45041e-07
6.73733e-06
-8.51596e-08
6.72449e-06
1.66573e-08
6.71425e-06
8.80035e-08
6.72133e-06
1.74571e-07
6.73032e-06
2.68406e-07
6.72354e-06
2.33637e-07
6.723e-06
1.97526e-07
6.72772e-06
2.16212e-07
6.73077e-06
2.2071e-07
6.73095e-06
2.08566e-07
6.73151e-06
1.87134e-07
6.73684e-06
1.75269e-07
6.74298e-06
1.66679e-07
6.74423e-06
1.5465e-07
1.39505e-07
6.74643e-06
6.99202e-06
-3.50239e-07
7.02413e-06
2.46718e-07
6.99487e-06
-3.47941e-07
7.00686e-06
-1.1874e-08
7.0053e-06
1.46607e-07
6.99274e-06
-7.26046e-08
6.9811e-06
2.82994e-08
6.97101e-06
9.80948e-08
6.97612e-06
1.69461e-07
6.98565e-06
2.58869e-07
6.98053e-06
2.38763e-07
6.97889e-06
1.99166e-07
6.98353e-06
2.11573e-07
6.98695e-06
2.17284e-07
6.98849e-06
2.07027e-07
6.98873e-06
1.86901e-07
6.9923e-06
1.71699e-07
6.99437e-06
1.64605e-07
7.00061e-06
1.48404e-07
1.37073e-07
7.00305e-06
7.25866e-06
-3.35213e-07
7.28895e-06
2.16436e-07
7.26121e-06
-3.20205e-07
7.27299e-06
-2.36582e-08
7.27431e-06
1.45291e-07
7.25847e-06
-5.67674e-08
7.24729e-06
3.94855e-08
7.23773e-06
1.07651e-07
7.24095e-06
1.66241e-07
7.25064e-06
2.49183e-07
7.2472e-06
2.42198e-07
7.2447e-06
2.01671e-07
7.24918e-06
2.07096e-07
7.25284e-06
2.13622e-07
7.25553e-06
2.0434e-07
7.25578e-06
1.86645e-07
7.25958e-06
1.67898e-07
7.26519e-06
1.58999e-07
7.26687e-06
1.46723e-07
1.34175e-07
7.26977e-06
7.53538e-06
-3.20763e-07
7.56399e-06
1.87829e-07
7.53748e-06
-2.93694e-07
7.54914e-06
-3.5323e-08
7.55365e-06
1.40785e-07
7.5332e-06
-3.63207e-08
7.52342e-06
4.92663e-08
7.51467e-06
1.16403e-07
7.51622e-06
1.64689e-07
7.5257e-06
2.39702e-07
7.52406e-06
2.43843e-07
7.52101e-06
2.04719e-07
7.52514e-06
2.02959e-07
7.52896e-06
2.09802e-07
7.53242e-06
2.00881e-07
7.53305e-06
1.86017e-07
7.53549e-06
1.65459e-07
7.53765e-06
1.56834e-07
7.54328e-06
1.41102e-07
1.30804e-07
7.54665e-06
7.82249e-06
-3.06797e-07
7.84997e-06
1.60345e-07
7.82378e-06
-2.675e-07
7.83571e-06
-4.72525e-08
7.83291e-06
1.43585e-07
7.81684e-06
-2.02494e-08
7.81029e-06
5.58178e-08
7.80217e-06
1.24523e-07
7.80232e-06
1.64535e-07
7.81125e-06
2.30772e-07
7.81135e-06
2.43745e-07
7.808e-06
2.08062e-07
7.8117e-06
1.99261e-07
7.81561e-06
2.05895e-07
7.81951e-06
1.96979e-07
7.82089e-06
1.84636e-07
7.82351e-06
1.62841e-07
7.82847e-06
1.51876e-07
7.83033e-06
1.39245e-07
1.27243e-07
7.83389e-06
8.12045e-06
-2.93287e-07
8.14668e-06
1.34118e-07
8.12064e-06
-2.41464e-07
8.13417e-06
-6.07808e-08
8.14184e-06
1.35916e-07
8.13014e-06
-8.55045e-09
8.11092e-06
7.50427e-08
8.10013e-06
1.35305e-07
8.09949e-06
1.65183e-07
8.10769e-06
2.22571e-07
8.10947e-06
2.41956e-07
8.10619e-06
2.11347e-07
8.10925e-06
1.96197e-07
8.11332e-06
2.01832e-07
8.11745e-06
1.92842e-07
8.11969e-06
1.82394e-07
8.12126e-06
1.61272e-07
8.12342e-06
1.49717e-07
8.12844e-06
1.34224e-07
1.23807e-07
8.13188e-06
8.42973e-06
-2.80254e-07
8.45354e-06
1.1031e-07
8.43036e-06
-2.18289e-07
8.44152e-06
-7.19399e-08
8.44607e-06
1.3136e-07
8.42403e-06
1.34953e-08
8.41562e-06
8.34498e-08
8.40974e-06
1.41192e-07
8.40858e-06
1.66339e-07
8.41582e-06
2.15332e-07
8.41888e-06
2.38899e-07
8.41591e-06
2.14313e-07
8.41826e-06
1.93849e-07
8.4225e-06
1.97589e-07
8.42664e-06
1.88705e-07
8.42956e-06
1.79476e-07
8.43137e-06
1.59458e-07
8.43562e-06
1.45467e-07
8.43788e-06
1.31963e-07
1.20346e-07
8.44134e-06
8.75063e-06
-2.67596e-07
8.77265e-06
8.82838e-08
8.75063e-06
-1.96267e-07
8.7584e-06
-7.97053e-08
8.76349e-06
1.26269e-07
8.74422e-06
3.27658e-08
8.73537e-06
9.22956e-08
8.73071e-06
1.45852e-07
8.72953e-06
1.67522e-07
8.73578e-06
2.09085e-07
8.73989e-06
2.34787e-07
8.73766e-06
2.16536e-07
8.73928e-06
1.9223e-07
8.74356e-06