/*--------------------------------*- C++ -*----------------------------------*\
| =========                 |                                                 |
| \\      /  F ield         | OpenFOAM: The Open Source CFD Toolbox           |
|  \\    /   O peration     | Version:  v2012                                 |
|   \\  /    A nd           | Website:  www.openfoam.com                      |
|    \\/     M anipulation  |                                                 |
\*---------------------------------------------------------------------------*/
FoamFile
{
    version     2.0;
    format      ascii;
    class       volVectorField;
    location    "9.5";
    object      U;
}
// * * * * * * * * * * * * * * * * * * * * * * * * * * * * * * * * * * * * * //

dimensions      [0 1 -1 0 0 0 0];


internalField   nonuniform List<vector> 
7000
(
(0.879556 -0.00250342 0)
(1.28857 0.00853045 0)
(0.447011 -0.0171581 0)
(1.44861 0.0241101 0)
(0.766783 -0.00509065 0)
(1.1526 -0.0151732 0)
(0.957404 -0.00937915 0)
(1.22867 0.00058787 0)
(0.770492 0.0175377 0)
(1.20353 0.00741376 0)
(0.764041 0.003503 0)
(1.2137 0.00312967 0)
(0.801232 0.00459672 0)
(1.21278 0.00515249 0)
(0.816084 0.00827025 0)
(1.1787 0.00989691 0)
(0.826767 0.0115963 0)
(1.1411 0.015331 0)
(0.841963 0.0130195 0)
(1.10938 0.0171814 0)
(0.882422 -0.00339147 0)
(1.28389 0.010744 0)
(0.482542 -0.0186522 0)
(1.43571 0.0228515 0)
(0.844704 -0.00330055 0)
(1.15522 -0.0163859 0)
(0.971849 -0.0104335 0)
(1.2282 0.00298433 0)
(0.78344 0.0176398 0)
(1.19064 0.00800682 0)
(0.79044 0.00284537 0)
(1.1951 0.00306877 0)
(0.830633 0.00412791 0)
(1.18642 0.00527173 0)
(0.852876 0.00857901 0)
(1.13888 0.00984729 0)
(0.878858 0.0125094 0)
(1.08074 0.0146029 0)
(0.917314 0.0146105 0)
(1.02352 0.0157348 0)
(0.888376 -0.0041737 0)
(1.27414 0.0129463 0)
(0.540557 -0.0199134 0)
(1.40853 0.0212064 0)
(0.932263 -0.00184471 0)
(1.14355 -0.0169293 0)
(0.991064 -0.0112335 0)
(1.22143 0.00516976 0)
(0.820401 0.0176279 0)
(1.16576 0.00837363 0)
(0.846748 0.00221162 0)
(1.15827 0.00291134 0)
(0.891028 0.0038539 0)
(1.13848 0.00529283 0)
(0.91977 0.00933234 0)
(1.08042 0.0095931 0)
(0.945841 0.0138946 0)
(1.02142 0.0137933 0)
(0.970144 0.0161599 0)
(0.982897 0.0149309 0)
(0.897416 -0.00488432 0)
(1.25833 0.0146605 0)
(0.614027 -0.0209573 0)
(1.36823 0.0193869 0)
(1.01035 -0.000430643 0)
(1.11792 -0.0169471 0)
(1.00929 -0.0120133 0)
(1.20291 0.00688811 0)
(0.881181 0.017865 0)
(1.13478 0.00834229 0)
(0.918461 0.00201867 0)
(1.11336 0.0025231 0)
(0.958617 0.00403294 0)
(1.08983 0.00499403 0)
(0.981674 0.0104169 0)
(1.03859 0.00927427 0)
(0.990091 0.0152345 0)
(0.9968 0.0134699 0)
(0.991341 0.0171232 0)
(0.978131 0.014985 0)
(0.909269 -0.00559097 0)
(1.2359 0.0160403 0)
(0.69463 -0.0218006 0)
(1.31816 0.0173462 0)
(1.06937 0.00102204 0)
(1.08555 -0.0166372 0)
(1.02195 -0.0128383 0)
(1.17201 0.00800527 0)
(0.9527 0.018407 0)
(1.1079 0.00811944 0)
(0.983593 0.00225742 0)
(1.07571 0.00202787 0)
(1.00912 0.00442655 0)
(1.05873 0.00459811 0)
(1.01999 0.0114536 0)
(1.02551 0.00922574 0)
(1.01163 0.016308 0)
(0.999589 0.0136325 0)
(1.00058 0.017744 0)
(0.988518 0.015383 0)
(0.923217 -0.0062607 0)
(1.20723 0.0171224 0)
(0.77321 -0.0224361 0)
(1.26326 0.0152834 0)
(1.10458 0.00246376 0)
(1.05516 -0.0160675 0)
(1.02575 -0.0136188 0)
(1.13375 0.00846784 0)
(1.01718 0.0189882 0)
(1.09205 0.00794805 0)
(1.02839 0.00278297 0)
(1.05276 0.00166685 0)
(1.03493 0.00479161 0)
(1.04542 0.0043205 0)
(1.03671 0.012196 0)
(1.02978 0.00944485 0)
(1.02244 0.0171131 0)
(1.01297 0.0139998 0)
(1.00951 0.0182653 0)
(1.00326 0.0157896 0)
(0.938097 -0.00685959 0)
(1.17391 0.0178855 0)
(0.842412 -0.0228701 0)
(1.20853 0.0134192 0)
(1.11646 0.00380724 0)
(1.03273 -0.015309 0)
(1.02038 -0.0142683 0)
(1.09554 0.00826069 0)
(1.06226 0.0193328 0)
(1.08587 0.00798467 0)
(1.05149 0.00349261 0)
(1.04129 0.00155971 0)
(1.04139 0.00507156 0)
(1.03965 0.00413803 0)
(1.04007 0.0126095 0)
(1.03644 0.00967644 0)
(1.02925 0.0176794 0)
(1.02603 0.0143568 0)
(1.01963 0.0187167 0)
(1.01721 0.0161486 0)
(0.952532 -0.00736724 0)
(1.13869 0.0183525 0)
(0.898359 -0.0231275 0)
(1.15761 0.0118562 0)
(1.10978 0.00496462 0)
(1.01951 -0.0144404 0)
(1.00911 -0.0147478 0)
(1.06266 0.00748575 0)
(1.08436 0.0193318 0)
(1.08277 0.00824518 0)
(1.0582 0.00433709 0)
(1.03446 0.00168124 0)
(1.03715 0.00532515 0)
(1.03322 0.00394946 0)
(1.0362 0.0127631 0)
(1.03761 0.00972131 0)
(1.03261 0.0180129 0)
(1.03373 0.0145971 0)
(1.02784 0.0190523 0)
(1.02715 0.0164833 0)
(0.965294 -0.00777209 0)
(1.10478 0.0185789 0)
(0.940515 -0.0232411 0)
(1.11261 0.0106362 0)
(1.09147 0.00587765 0)
(1.01308 -0.0135478 0)
(0.997004 -0.015045 0)
(1.03659 0.00635459 0)
(1.08638 0.0190283 0)
(1.07689 0.00863972 0)
(1.05466 0.00526586 0)
(1.02789 0.00194356 0)
(1.02868 0.0056221 0)
(1.02412 0.00371957 0)
(1.02849 0.0127567 0)
(1.03225 0.00954609 0)
(1.0314 0.018114 0)
(1.03461 0.0146906 0)
(1.03112 0.0192416 0)
(1.03116 0.0167937 0)
(0.975636 -0.00807291 0)
(1.07504 0.0186232 0)
(0.970461 -0.0232383 0)
(1.07469 0.00976447 0)
(1.0686 0.00652292 0)
(1.01005 -0.0127185 0)
(0.988059 -0.0151517 0)
(1.01658 0.00511163 0)
(1.07418 0.0185353 0)
(1.06624 0.00904673 0)
(1.04559 0.00620696 0)
(1.02057 0.00225541 0)
(1.01955 0.00599256 0)
(1.01402 0.0034756 0)
(1.01911 0.0126876 0)
(1.02269 0.00922259 0)
(1.02568 0.0180055 0)
(1.02952 0.0146624 0)
(1.02864 0.0192782 0)
(1.02913 0.0170572 0)
(0.983407 -0.00827885 0)
(1.05119 0.0185358 0)
(0.990627 -0.0231388 0)
(1.04458 0.00920075 0)
(1.04672 0.00692561 0)
(1.00806 -0.0120143 0)
(0.983608 -0.0150884 0)
(1.00171 0.00395703 0)
(1.05435 0.0179676 0)
(1.05215 0.00936563 0)
(1.03436 0.00708674 0)
(1.0132 0.0025465 0)
(1.01138 0.00642146 0)
(1.00513 0.00325631 0)
(1.00978 0.0126279 0)
(1.01201 0.00885164 0)
(1.01704 0.0177453 0)
(1.02073 0.0145671 0)
(1.02177 0.019175 0)
(1.02263 0.0172522 0)
(0.988938 -0.00840586 0)
(1.03349 0.0183568 0)
(1.00347 -0.0229607 0)
(1.02244 0.00887886 0)
(1.02904 0.00712089 0)
(1.0062 -0.0114596 0)
(0.982765 -0.0149012 0)
(0.991487 0.00300989 0)
(1.03292 0.017409 0)
(1.03742 0.00953645 0)
(1.02346 0.00785301 0)
(1.00669 0.00277418 0)
(1.00477 0.00687015 0)
(0.998601 0.00308355 0)
(1.00177 0.0126162 0)
(1.00256 0.00852521 0)
(1.00771 0.0174092 0)
(1.01091 0.014462 0)
(1.01299 0.0189627 0)
(1.01417 0.0173687 0)
(0.992798 -0.0084717 0)
(1.02104 0.0181163 0)
(1.01111 -0.0227232 0)
(1.00764 0.00872759 0)
(1.01651 0.0071651 0)
(1.00447 -0.0110453 0)
(0.983844 -0.0146296 0)
(0.985412 0.0023126 0)
(1.01433 0.0169095 0)
(1.02454 0.00954142 0)
(1.01454 0.00848603 0)
(1.00166 0.00292704 0)
(0.999876 0.00730393 0)
(0.994509 0.00296326 0)
(0.99575 0.0126595 0)
(0.995576 0.00830622 0)
(0.999593 0.0170591 0)
(1.00227 0.01439 0)
(1.00468 0.0186799 0)
(1.00609 0.0174079 0)
(0.995549 -0.00849157 0)
(1.01236 0.0178364 0)
(1.01517 -0.0224467 0)
(0.99881 0.00868298 0)
(1.00856 0.00712406 0)
(1.00308 -0.0107412 0)
(0.985487 -0.0143118 0)
(0.982572 0.00183871 0)
(1.00086 0.016492 0)
(1.01482 0.00939651 0)
(1.00831 0.00899281 0)
(0.998278 0.0030198 0)
(0.996587 0.00770176 0)
(0.992352 0.0028949 0)
(0.991856 0.0127383 0)
(0.991285 0.0082192 0)
(0.993777 0.0167226 0)
(0.996022 0.0143701 0)
(0.998352 0.0183634 0)
(0.999899 0.0173804 0)
(0.997585 -0.00847595 0)
(1.00605 0.0175326 0)
(1.01679 -0.0221502 0)
(0.99414 0.00869726 0)
(1.00402 0.00703486 0)
(1.0022 -0.0105144 0)
(0.987008 -0.0139745 0)
(0.981753 0.00152802 0)
(0.992679 0.0161537 0)
(1.00834 0.00913881 0)
(1.00461 0.00939887 0)
(0.996433 0.00308204 0)
(0.994708 0.00805561 0)
(0.99155 0.00287754 0)
(0.989844 0.0128172 0)
(0.989304 0.00825811 0)
(0.990465 0.0164001 0)
(0.99242 0.0143979 0)
(0.994487 0.0180396 0)
(0.996079 0.0173048 0)
(0.999093 -0.00843083 0)
(1.00119 0.0172159 0)
(1.01676 -0.0218481 0)
(0.991919 0.00873551 0)
(1.00175 0.006922 0)
(1.00184 -0.0103364 0)
(0.988215 -0.0136272 0)
(0.981827 0.00131779 0)
(0.988586 0.0158789 0)
(1.00439 0.0088088 0)
(1.00276 0.00972827 0)
(0.995809 0.00313987 0)
(0.993977 0.00836346 0)
(0.991646 0.00291027 0)
(0.989296 0.0128591 0)
(0.989024 0.00840119 0)
(0.989276 0.0160867 0)
(0.991053 0.0144607 0)
(0.992812 0.017721 0)
(0.994362 0.017199 0)
(1.0001 -0.00835951 0)
(0.997407 0.0168938 0)
(1.01557 -0.0215478 0)
(0.990861 0.00877245 0)
(1.00094 0.00679881 0)
(1.00194 -0.0101859 0)
(0.989128 -0.0132684 0)
(0.982018 0.00115889 0)
(0.986964 0.0156483 0)
(1.002 0.00843863 0)
(1.00191 0.00999275 0)
(0.995988 0.00320892 0)
(0.9941 0.00862234 0)
(0.992299 0.00299444 0)
(0.989744 0.0128387 0)
(0.989825 0.00861994 0)
(0.989583 0.015775 0)
(0.991259 0.0145518 0)
(0.992722 0.0174208 0)
(0.994166 0.0170769 0)
(1.00056 -0.00826493 0)
(0.994737 0.0165713 0)
(1.01358 -0.0212488 0)
(0.990222 0.00878854 0)
(1.00113 0.00666979 0)
(1.00242 -0.0100471 0)
(0.989798 -0.0128897 0)
(0.981934 0.00102232 0)
(0.986466 0.0154441 0)
(1.00039 0.00805051 0)
(1.00138 0.0101946 0)
(0.996547 0.00329274 0)
(0.994785 0.00882659 0)
(0.993222 0.00313385 0)
(0.99074 0.0127458 0)
(0.991164 0.00888988 0)
(0.990752 0.0154523 0)
(0.99239 0.0146543 0)
(0.993592 0.0171586 0)
(0.994905 0.0169584 0)
(1.0005 -0.00815133 0)
(0.993323 0.0162515 0)
(1.0111 -0.0209453 0)
(0.989728 0.00876767 0)
(1.00205 0.00653433 0)
(1.00318 -0.00990673 0)
(0.990273 -0.0124803 0)
(0.981492 0.000896589 0)
(0.986303 0.0152518 0)
(0.999121 0.0076593 0)
(1.00079 0.0103315 0)
(0.997142 0.00338629 0)
(0.995765 0.00897037 0)
(0.994174 0.00333295 0)
(0.991907 0.0125769 0)
(0.992605 0.00919433 0)
(0.99225 0.0151219 0)
(0.993918 0.0147358 0)
(0.99491 0.0169258 0)
(0.996116 0.0168564 0)
(1.00004 -0.00802451 0)
(0.993157 0.015936 0)
(1.00843 -0.0206285 0)
(0.989392 0.00869633 0)
(1.00351 0.00639059 0)
(1.00412 -0.00975391 0)
(0.990609 -0.0120316 0)
(0.980814 0.000777498 0)
(0.986184 0.015061 0)
(0.998072 0.00727455 0)
(1.00009 0.0104013 0)
(0.997561 0.0034856 0)
(0.99681 0.00904887 0)
(0.994996 0.00359533 0)
(0.992982 0.0123358 0)
(0.993847 0.00950821 0)
(0.993685 0.0147999 0)
(0.995444 0.0147931 0)
(0.996293 0.0167015 0)
(0.997444 0.0167579 0)
(0.999372 -0.00789087 0)
(0.993961 0.0156254 0)
(1.00586 -0.0202906 0)
(0.989318 0.00856474 0)
(1.00527 0.00623803 0)
(1.00509 -0.0095819 0)
(0.99088 -0.0115386 0)
(0.98014 0.00066205 0)
(0.986116 0.0148632 0)
(0.997298 0.00690433 0)
(0.999369 0.0104037 0)
(0.997729 0.00359458 0)
(0.997729 0.00906029 0)
(0.995631 0.0039197 0)
(0.993835 0.0120408 0)
(0.994751 0.00980793 0)
(0.994836 0.0144808 0)
(0.996701 0.0148312 0)
(0.99748 0.0164954 0)
(0.998618 0.0166595 0)
(0.998736 -0.00775574 0)
(0.995256 0.0153194 0)
(1.0036 -0.0199275 0)
(0.989546 0.00836899 0)
(1.00702 0.00607884 0)
(1.00594 -0.00938725 0)
(0.991166 -0.0110036 0)
(0.979714 0.000548814 0)
(0.986181 0.0146508 0)
(0.996844 0.006558 0)
(0.998782 0.0103406 0)
(0.997672 0.00372087 0)
(0.998385 0.00900497 0)
(0.996092 0.00429771 0)
(0.994451 0.0117174 0)
(0.995318 0.0100908 0)
(0.995642 0.0141651 0)
(0.997568 0.0148303 0)
(0.998341 0.0162985 0)
(0.999465 0.0165638 0)
(0.99828 -0.00762219 0)
(0.996571 0.0150166 0)
(1.0018 -0.0195385 0)
(0.989999 0.00811138 0)
(1.00846 0.00591851 0)
(1.00655 -0.00917152 0)
(0.991532 -0.0104356 0)
(0.979694 0.000438753 0)
(0.986416 0.0144182 0)
(0.996652 0.0062441 0)
(0.998383 0.0102205 0)
(0.997457 0.00387453 0)
(0.998712 0.00888485 0)
(0.996414 0.00471177 0)
(0.994873 0.011384 0)
(0.995632 0.0103537 0)
(0.996155 0.0138686 0)
(0.998057 0.0147959 0)
(0.998869 0.0161043 0)
(0.99994 0.016456 0)
(0.99804 -0.00749088 0)
(0.997622 0.0147148 0)
(1.00047 -0.0191259 0)
(0.990534 0.00780042 0)
(1.00939 0.00576204 0)
(1.00687 -0.0089412 0)
(0.991996 -0.00984593 0)
(0.980113 0.000336786 0)
(0.986792 0.014164 0)
(0.996581 0.00596721 0)
(0.998121 0.0100506 0)
(0.99715 0.00406517 0)
(0.998726 0.00871106 0)
(0.996612 0.00514656 0)
(0.995155 0.0110527 0)
(0.99579 0.0105876 0)
(0.996477 0.013595 0)
(0.998268 0.0147186 0)
(0.999137 0.0159175 0)
(1.0001 0.0163498 0)
(0.997951 -0.00736109 0)
(0.998357 0.0144118 0)
(0.999545 -0.0186925 0)
(0.991026 0.00744854 0)
(1.00976 0.00561286 0)
(1.00688 -0.00870298 0)
(0.992534 -0.00924926 0)
(0.980903 0.000246595 0)
(0.987261 0.0138963 0)
(0.99651 0.00573369 0)
(0.9979 0.00983256 0)
(0.996794 0.00429539 0)
(0.998506 0.00848759 0)
(0.996691 0.00558872 0)
(0.995332 0.0107418 0)
(0.995859 0.0107933 0)
(0.996686 0.0133702 0)
(0.998326 0.014609 0)
(0.999251 0.015696 0)
(1.00008 0.0162237 0)
(0.99792 -0.00723176 0)
(0.998879 0.0141048 0)
(0.998947 -0.0182395 0)
(0.991422 0.00706682 0)
(1.00965 0.00547452 0)
(1.00663 -0.00846653 0)
(0.993088 -0.00865392 0)
(0.98195 0.000163173 0)
(0.987787 0.0136174 0)
(0.99641 0.00556211 0)
(0.997654 0.00956852 0)
(0.996415 0.00457682 0)
(0.998153 0.00822143 0)
(0.996662 0.00601127 0)
(0.995423 0.0104557 0)
(0.995877 0.0109603 0)
(0.996825 0.0131963 0)
(0.998315 0.0145213 0)
(0.999281 0.0154743 0)
(0.999976 0.0160701 0)
(0.99787 -0.00710175 0)
(0.999312 0.0137909 0)
(0.998599 -0.0177678 0)
(0.991735 0.00666483 0)
(1.0092 0.00534893 0)
(1.00617 -0.00823275 0)
(0.993593 -0.00808617 0)
(0.983138 0.000122777 0)
(0.988359 0.0132956 0)
(0.99633 0.00546486 0)
(0.99739 0.00925021 0)
(0.996041 0.0049026 0)
(0.997761 0.00794432 0)
(0.996558 0.00639796 0)
(0.995448 0.0102005 0)
(0.995864 0.011076 0)
(0.996913 0.0130337 0)
(0.998288 0.0144312 0)
(0.999264 0.0152623 0)
(0.99985 0.0159209 0)
(0.997765 -0.00697092 0)
(0.99973 0.0134687 0)
(0.998453 -0.0172764 0)
(0.992001 0.00625082 0)
(1.00851 0.00523433 0)
(1.00558 -0.007997 0)
(0.993997 -0.00755876 0)
(0.98437 0.00010282 0)
(0.988965 0.0129927 0)
(0.996337 0.00539792 0)
(0.997166 0.00892165 0)
(0.995714 0.00520913 0)
(0.997399 0.00770188 0)
(0.996429 0.00671725 0)
(0.995437 0.0100004 0)
(0.995836 0.0111424 0)
(0.996956 0.0128952 0)
(0.99825 0.0143227 0)
(0.999207 0.0150413 0)
(0.999716 0.0157454 0)
(0.997601 -0.00683872 0)
(1.00015 0.0131332 0)
(0.998481 -0.0167617 0)
(0.992248 0.00582187 0)
(1.00769 0.00514249 0)
(1.00493 -0.00779921 0)
(0.994277 -0.00701617 0)
(0.98557 4.86588e-05 0)
(0.989581 0.0126897 0)
(0.996458 0.00541166 0)
(0.997042 0.00858808 0)
(0.995476 0.00552543 0)
(0.997119 0.00746114 0)
(0.996329 0.0069968 0)
(0.995428 0.00982442 0)
(0.995819 0.0111954 0)
(0.996975 0.0127559 0)
(0.998215 0.014278 0)
(0.99913 0.0148498 0)
(0.999578 0.0155627 0)
(0.997389 -0.00670655 0)
(1.00055 0.0127892 0)
(0.998658 -0.0162353 0)
(0.992486 0.00540957 0)
(1.0068 0.0050356 0)
(1.00428 -0.00755024 0)
(0.994436 -0.00662653 0)
(0.986668 0.000162042 0)
(0.990185 0.0122466 0)
(0.996675 0.00551949 0)
(0.997052 0.00817675 0)
(0.995359 0.00593261 0)
(0.996952 0.00717262 0)
(0.996299 0.00729525 0)
(0.995455 0.00959605 0)
(0.995832 0.0112622 0)
(0.996998 0.0125602 0)
(0.998181 0.0142673 0)
(0.999027 0.0146563 0)
(0.99943 0.0153745 0)
(0.997148 -0.00656842 0)
(1.00091 0.0124206 0)
(0.998959 -0.0156789 0)
(0.992711 0.00498036 0)
(1.00591 0.00497736 0)
(1.00366 -0.00736073 0)
(0.994494 -0.00617141 0)
(0.987626 0.000135226 0)
(0.990738 0.0119382 0)
(0.996944 0.005591 0)
(0.997195 0.00780094 0)
(0.995374 0.00624642 0)
(0.996909 0.00700054 0)
(0.996356 0.00749983 0)
(0.995543 0.00950465 0)
(0.995893 0.011232 0)
(0.997047 0.0124194 0)
(0.998155 0.0141155 0)
(0.998904 0.0145038 0)
(0.999267 0.0152025 0)
(0.996899 -0.00643279 0)
(1.0012 0.0120431 0)
(0.999352 -0.0151171 0)
(0.99292 0.00457431 0)
(1.00505 0.0048877 0)
(1.00313 -0.00711067 0)
(0.994476 -0.0058242 0)
(0.988424 0.000212592 0)
(0.991232 0.0114963 0)
(0.997206 0.00577675 0)
(0.997428 0.00744517 0)
(0.995507 0.00650552 0)
(0.996981 0.00689541 0)
(0.996509 0.00757587 0)
(0.995698 0.00950389 0)
(0.996 0.0111672 0)
(0.997146 0.0123302 0)
(0.998187 0.0139698 0)
(0.998856 0.0144419 0)
(0.99915 0.015077 0)
(0.996667 -0.00629569 0)
(1.00142 0.0116549 0)
(0.999803 -0.0145391 0)
(0.993104 0.00419471 0)
(1.00428 0.00479927 0)
(1.00267 -0.00683971 0)
(0.99443 -0.00558925 0)
(0.989067 0.000383129 0)
(0.991641 0.0110143 0)
(0.997438 0.00587334 0)
(0.997703 0.00720325 0)
(0.995718 0.00665568 0)
(0.997131 0.00694931 0)
(0.996737 0.00751267 0)
(0.995928 0.00954075 0)
(0.996159 0.0110111 0)
(0.997286 0.0122325 0)
(0.998244 0.0136905 0)
(0.998811 0.0143839 0)
(0.999022 0.0149938 0)
(0.996471 -0.0061413 0)
(1.00154 0.0112126 0)
(1.00028 -0.0139106 0)
(0.993269 0.00376508 0)
(1.00361 0.00478331 0)
(1.0023 -0.00668332 0)
(0.994378 -0.00514829 0)
(0.989585 0.000238583 0)
(0.991976 0.0108039 0)
(0.99761 0.0058699 0)
(0.997976 0.00698775 0)
(0.995968 0.00681611 0)
(0.997324 0.00696383 0)
(0.99701 0.00757228 0)
(0.996209 0.00955486 0)
(0.996352 0.0109924 0)
(0.997481 0.0121725 0)
(0.998385 0.0135208 0)
(0.998901 0.0142903 0)
(0.998975 0.014852 0)
(0.996328 -0.00600377 0)
(1.00157 0.0107992 0)
(1.00074 -0.0133422 0)
(0.993419 0.00344351 0)
(1.00305 0.0046223 0)
(1.002 -0.00627315 0)
(0.994355 -0.00506644 0)
(0.990021 0.000565835 0)
(0.992253 0.0100909 0)
(0.997697 0.00628265 0)
(0.998234 0.00639196 0)
(0.996198 0.00732028 0)
(0.99753 0.00660047 0)
(0.997305 0.00788709 0)
(0.996528 0.00931211 0)
(0.996586 0.0112527 0)
(0.997706 0.0119834 0)
(0.998556 0.0136306 0)
(0.998988 0.0140909 0)
(0.998956 0.0146067 0)
(0.996239 -0.00585196 0)
(1.00152 0.0103614 0)
(1.00115 -0.0127309 0)
(0.993574 0.00311536 0)
(1.00259 0.00452762 0)
(1.00175 -0.00600439 0)
(0.994385 -0.00483657 0)
(0.990395 0.000656193 0)
(0.992495 0.00965019 0)
(0.997723 0.00630599 0)
(0.998442 0.00623028 0)
(0.996404 0.00731352 0)
(0.997706 0.00674559 0)
(0.997601 0.00780367 0)
(0.99686 0.00941957 0)
(0.996838 0.0111347 0)
(0.997938 0.0119394 0)
(0.99873 0.0133076 0)
(0.999039 0.014006 0)
(0.99894 0.0145369 0)
(0.996207 -0.0056795 0)
(1.0014 0.00985062 0)
(1.0015 -0.0120445 0)
(0.993742 0.00269384 0)
(1.00221 0.0044894 0)
(1.00156 -0.00581035 0)
(0.994447 -0.0044464 0)
(0.990782 0.000417203 0)
(0.992695 0.00962003 0)
(0.997709 0.00603821 0)
(0.998592 0.00634858 0)
(0.996578 0.0071701 0)
(0.997843 0.00704727 0)
(0.997877 0.00758241 0)
(0.997184 0.00963511 0)
(0.997083 0.0110521 0)
(0.998179 0.0120579 0)
(0.998983 0.0130535 0)
(0.999264 0.0139475 0)
(0.998998 0.0144847 0)
(0.996229 -0.00553654 0)
(1.00124 0.00941742 0)
(1.00178 -0.0115021 0)
(0.993923 0.0024797 0)
(1.00191 0.00423218 0)
(1.00138 -0.00527524 0)
(0.994567 -0.00447701 0)
(0.991176 0.000868617 0)
(0.992889 0.00876677 0)
(0.997641 0.00654644 0)
(0.998712 0.00560321 0)
(0.996701 0.00774295 0)
(0.997927 0.00673817 0)
(0.998126 0.00794243 0)
(0.997516 0.00940663 0)
(0.997333 0.0113672 0)
(0.998405 0.0118192 0)
(0.999194 0.0131578 0)
(0.999438 0.0135477 0)
(0.999065 0.0141941 0)
(0.996288 -0.0053698 0)
(1.00105 0.00894543 0)
(1.00199 -0.0108852 0)
(0.994129 0.00221485 0)
(1.00166 0.00408101 0)
(1.00122 -0.0049548 0)
(0.994733 -0.00425269 0)
(0.991573 0.000864865 0)
(0.99309 0.00843524 0)
(0.997545 0.00649047 0)
(0.998802 0.00552015 0)
(0.99682 0.00760475 0)
(0.997975 0.00699542 0)
(0.998358 0.00780379 0)
(0.997823 0.00952458 0)
(0.997567 0.0111966 0)
(0.99859 0.0118987 0)
(0.99937 0.0127633 0)
(0.999534 0.01345 0)
(0.999134 0.0141754 0)
(0.996378 -0.00518248 0)
(1.00087 0.00839605 0)
(1.00211 -0.0101897 0)
(0.994363 0.00182869 0)
(1.00143 0.00400939 0)
(1.00108 -0.00477028 0)
(0.994896 -0.00380956 0)
(0.992022 0.000478096 0)
(0.993281 0.00859271 0)
(0.997455 0.00600622 0)
(0.998855 0.00581982 0)
(0.996927 0.0072767 0)
(0.997989 0.00750698 0)
(0.998558 0.00751141 0)
(0.99812 0.00968346 0)
(0.997811 0.0110302 0)
(0.998768 0.0120685 0)
(0.999586 0.012509 0)
(0.999835 0.0133463 0)
(0.999245 0.0141395 0)
(0.996501 -0.00503658 0)
(1.00068 0.00797201 0)
(1.00218 -0.00971251 0)
(0.994602 0.0017366 0)
(1.00125 0.003644 0)
(1.00092 -0.00413085 0)
(0.995082 -0.00388071 0)
(0.99249 0.000991513 0)
(0.99348 0.00763751 0)
(0.997331 0.0066869 0)
(0.998933 0.00491435 0)
(0.997044 0.00785639 0)
(0.998001 0.0071728 0)
(0.998728 0.00803872 0)
(0.998433 0.00929553 0)
(0.998046 0.0115291 0)
(0.998932 0.0117748 0)
(0.999743 0.0129014 0)
(1.00003 0.0128808 0)
(0.999393 0.0137131 0)
(0.996636 -0.0048621 0)
(1.00051 0.00748966 0)
(1.00219 -0.00911503 0)
(0.994862 0.001524 0)
(1.00109 0.00344692 0)
(1.00076 -0.00383016 0)
(0.995289 -0.00360038 0)
(0.992927 0.000889921 0)
(0.993723 0.0073922 0)
(0.99721 0.00665269 0)
(0.998985 0.00480204 0)
(0.99718 0.00763783 0)
(0.998003 0.00746946 0)
(0.99889 0.00786001 0)
(0.998747 0.00930056 0)
(0.998301 0.0112494 0)
(0.99908 0.0118999 0)
(0.999841 0.0125943 0)
(1.00006 0.012928 0)
(0.999481 0.0137213 0)
(0.996781 -0.00466219 0)
(1.00037 0.00693384 0)
(1.00216 -0.00845876 0)
(0.995137 0.00120385 0)
(1.00094 0.00333433 0)
(1.00062 -0.00367957 0)
(0.99545 -0.00305192 0)
(0.993418 0.000386329 0)
(0.993945 0.00756682 0)
(0.997095 0.00617631 0)
(0.999047 0.00519145 0)
(0.997371 0.00709095 0)
(0.998011 0.00810097 0)
(0.999037 0.00755036 0)
(0.999058 0.0093632 0)
(0.998589 0.010895 0)
(0.999247 0.0120419 0)
(1.00002 0.0123607 0)
(1.00038 0.0129465 0)
(0.999644 0.0136841 0)
(0.996945 -0.0045369 0)
(1.00022 0.006574 0)
(1.00211 -0.00809797 0)
(0.995396 0.00125297 0)
(1.00082 0.00290059 0)
(1.00045 -0.00300442 0)
(0.995623 -0.00315905 0)
(0.993878 0.000989028 0)
(0.994213 0.00648929 0)
(0.996981 0.00703554 0)
(0.999099 0.00436469 0)
(0.997571 0.00753868 0)
(0.998049 0.00772086 0)
(0.999138 0.00826764 0)
(0.999395 0.0087601 0)
(0.998899 0.0113986 0)
(0.999448 0.0116902 0)
(1.00015 0.0129814 0)
(1.00052 0.0125221 0)
(0.999792 0.013127 0)
(0.997101 -0.0043334 0)
(1.0001 0.00605769 0)
(1.00204 -0.0074962 0)
(0.995657 0.00103217 0)
(1.00071 0.00274704 0)
(1.00028 -0.00286071 0)
(0.995804 -0.00267686 0)
(0.9943 0.000717981 0)
(0.994513 0.00632085 0)
(0.996875 0.00696404 0)
(0.999148 0.00434592 0)
(0.997822 0.00728135 0)
(0.998123 0.00794977 0)
(0.999211 0.00823908 0)
(0.999696 0.00869084 0)
(0.99923 0.0109871 0)
(0.999657 0.0116924 0)
(1.00022 0.0126757 0)
(1.00043 0.01275 0)
(0.999864 0.0132578 0)
(0.997246 -0.00416337 0)
(1.00002 0.00558561 0)
(1.00194 -0.00698154 0)
(0.99593 0.000847614 0)
(1.00059 0.00259048 0)
(1.00015 -0.00271834 0)
(0.995924 -0.00213076 0)
(0.994745 0.000309917 0)
(0.99482 0.00643216 0)
(0.996793 0.00655928 0)
(0.999187 0.00488576 0)
(0.998105 0.0065802 0)
(0.998207 0.00832247 0)
(0.999294 0.00786461 0)
(0.999997 0.00878896 0)
(0.999612 0.010367 0)
(0.999916 0.0118039 0)
(1.00047 0.0122746 0)
(1.00075 0.0131382 0)
(0.999991 0.0135689 0)
(0.997406 -0.00403796 0)
(0.999934 0.00525633 0)
(1.00186 -0.00666999 0)
(0.996178 0.000925709 0)
(1.0005 0.00223343 0)
(0.999995 -0.00224295 0)
(0.996064 -0.00206312 0)
(0.99516 0.000737343 0)
(0.995137 0.00564021 0)
(0.996732 0.00705992 0)
(0.999195 0.00463763 0)
(0.998378 0.00661019 0)
(0.998339 0.00813238 0)
(0.999357 0.00831467 0)
(1.00028 0.00853855 0)
(1.00001 0.0103624 0)
(1.00022 0.0115273 0)
(1.00072 0.0124041 0)
(1.00094 0.012858 0)
(1.00006 0.0131457 0)
(0.997558 -0.00381902 0)
(0.999856 0.00473824 0)
(1.00179 -0.00610304 0)
(0.996421 0.000717831 0)
(1.0004 0.00214386 0)
(0.999862 -0.00216582 0)
(0.996199 -0.00157756 0)
(0.99553 0.000662545 0)
(0.995506 0.00528046 0)
(0.996694 0.00715354 0)
(0.999189 0.00469532 0)
(0.998692 0.00661213 0)
(0.998525 0.0081112 0)
(0.999411 0.00857351 0)
(1.00051 0.00851044 0)
(1.0004 0.010165 0)
(1.00053 0.0114177 0)
(1.00094 0.0123252 0)
(1.00105 0.0126031 0)
(1.00011 0.0127422 0)
(0.997701 -0.00371482 0)
(0.999788 0.0044076 0)
(1.00172 -0.00576209 0)
(0.996662 0.000660965 0)
(1.00031 0.00196433 0)
(0.999744 -0.00193861 0)
(0.996319 -0.00128404 0)
(0.995892 0.000779214 0)
(0.995876 0.00497142 0)
(0.99669 0.00707768 0)
(0.999192 0.00504887 0)
(0.998984 0.00637626 0)
(0.998723 0.0079832 0)
(0.999477 0.00868297 0)
(1.00071 0.00864202 0)
(1.00082 0.00996017 0)
(1.00089 0.0113301 0)
(1.00115 0.0121139 0)
(1.00114 0.0123676 0)
(1.00015 0.012385 0)
(0.99784 -0.00353341 0)
(0.999722 0.00401358 0)
(1.00165 -0.00538195 0)
(0.996903 0.000597325 0)
(1.00021 0.00188012 0)
(0.999638 -0.00186248 0)
(0.996447 -0.000924022 0)
(0.996221 0.000889622 0)
(0.996255 0.00457438 0)
(0.996743 0.00712727 0)
(0.999156 0.0052796 0)
(0.999253 0.00610745 0)
(0.998998 0.00798748 0)
(0.999594 0.00889021 0)
(1.00087 0.00882758 0)
(1.00119 0.00971529 0)
(1.00123 0.0110524 0)
(1.00134 0.0117647 0)
(1.0012 0.0120381 0)
(1.00017 0.0120183 0)
(0.997974 -0.00339719 0)
(0.999662 0.00364837 0)
(1.00159 -0.0050006 0)
(0.997137 0.000461891 0)
(1.00011 0.0018234 0)
(0.999554 -0.00171821 0)
(0.996577 -0.000585493 0)
(0.996528 0.000998507 0)
(0.996655 0.00434466 0)
(0.996824 0.00704923 0)
(0.999107 0.00545615 0)
(0.999538 0.00604043 0)
(0.999312 0.00798698 0)
(0.999709 0.00886197 0)
(1.00097 0.00885686 0)
(1.00151 0.00944386 0)
(1.00159 0.0107853 0)
(1.00155 0.0114892 0)
(1.00129 0.0118113 0)
(1.0002 0.0118017 0)
(0.998106 -0.0032553 0)
(0.999604 0.00331059 0)
(1.00153 -0.00465473 0)
(0.99737 0.000340073 0)
(1.00003 0.00184042 0)
(0.999477 -0.00159886 0)
(0.996713 -0.000318226 0)
(0.996819 0.00118582 0)
(0.997042 0.00410883 0)
(0.996936 0.0068588 0)
(0.999065 0.0057433 0)
(0.999797 0.00602044 0)
(0.99962 0.00779838 0)
(0.999849 0.00874733 0)
(1.00108 0.00899943 0)
(1.00183 0.00937889 0)
(1.00195 0.0105319 0)
(1.00177 0.0112094 0)
(1.00138 0.0115402 0)
(1.00022 0.0115644 0)
(0.998235 -0.00311386 0)
(0.99955 0.00297802 0)
(1.00147 -0.00431827 0)
(0.997599 0.000210212 0)
(0.999936 0.00184789 0)
(0.999412 -0.00149865 0)
(0.996864 -4.57944e-05 0)
(0.99709 0.00137821 0)
(0.997425 0.00389311 0)
(0.997101 0.00668022 0)
(0.999033 0.00601062 0)
(1.00001 0.00594076 0)
(0.999944 0.0075873 0)
(1.00006 0.00872152 0)
(1.0012 0.00916637 0)
(1.00206 0.00928008 0)
(1.00227 0.0101393 0)
(1.002 0.0108562 0)
(1.0015 0.0112497 0)
(1.00026 0.0113956 0)
(0.998361 -0.00298679 0)
(0.999499 0.0026659 0)
(1.00141 -0.00400388 0)
(0.997824 7.04905e-05 0)
(0.999859 0.0018761 0)
(0.999358 -0.00133139 0)
(0.997026 0.000175149 0)
(0.997345 0.00156909 0)
(0.997794 0.00372118 0)
(0.997296 0.00648747 0)
(0.998996 0.00618761 0)
(1.0002 0.00589985 0)
(1.00029 0.00744311 0)
(1.00031 0.00864801 0)
(1.0013 0.00917041 0)
(1.00222 0.00918934 0)
(1.00259 0.00983025 0)
(1.00229 0.0106485 0)
(1.0017 0.0110632 0)
(1.00033 0.0112789 0)
(0.998483 -0.00285411 0)
(0.999453 0.00236785 0)
(1.00135 -0.00369349 0)
(0.998045 -6.5351e-05 0)
(0.999782 0.00190978 0)
(0.999306 -0.0011628 0)
(0.997195 0.000352881 0)
(0.997586 0.00172757 0)
(0.998154 0.00360425 0)
(0.997531 0.00629048 0)
(0.998982 0.00636588 0)
(1.00036 0.00597694 0)
(1.00064 0.00731619 0)
(1.00057 0.00849422 0)
(1.00142 0.00909642 0)
(1.00236 0.00919066 0)
(1.0029 0.00962727 0)
(1.00259 0.0104055 0)
(1.00188 0.0107203 0)
(1.00038 0.0110166 0)
(0.998601 -0.00274038 0)
(0.99941 0.00208777 0)
(1.00128 -0.00338898 0)
(0.99826 -0.00022255 0)
(0.999723 0.00190222 0)
(0.999264 -0.000933713 0)
(0.997372 0.000550974 0)
(0.997825 0.00192638 0)
(0.998502 0.00352523 0)
(0.997793 0.00603298 0)
(0.998987 0.00646597 0)
(1.00049 0.00605202 0)
(1.00096 0.00714337 0)
(1.00085 0.0083302 0)
(1.00158 0.00901442 0)
(1.00249 0.00924679 0)
(1.00315 0.00944284 0)
(1.00284 0.0101059 0)
(1.00209 0.0104119 0)
(1.0005 0.0108312 0)
(0.998713 -0.00260656 0)
(0.999375 0.00181096 0)
(1.00122 -0.00313088 0)
(0.998468 -0.000323026 0)
(0.999672 0.00186524 0)
(0.999226 -0.000698083 0)
(0.997552 0.000711271 0)
(0.998047 0.00208821 0)
(0.998824 0.00344896 0)
(0.998082 0.00577739 0)
(0.999033 0.00653881 0)
(1.0006 0.00613684 0)
(1.00127 0.00698224 0)
(1.00117 0.00818817 0)
(1.00178 0.00890464 0)
(1.0026 0.00924143 0)
(1.00334 0.0092504 0)
(1.00311 0.00986851 0)
(1.00234 0.0101926 0)
(1.00063 0.0106084 0)
(0.998824 -0.00252021 0)
(0.999338 0.00159769 0)
(1.00115 -0.00287329 0)
(0.998671 -0.00047108 0)
(0.99964 0.00182599 0)
(0.999192 -0.000381118 0)
(0.997729 0.000890335 0)
(0.998266 0.00226662 0)
(0.999133 0.00344158 0)
(0.998397 0.00557727 0)
(0.999106 0.00655065 0)
(1.00068 0.00621848 0)
(1.00156 0.00683305 0)
(1.00149 0.00803708 0)
(1.002 0.00870117 0)
(1.0027 0.00916113 0)
(1.00351 0.00912322 0)
(1.00337 0.00968312 0)
(1.00258 0.00991885 0)
(1.00077 0.0102885 0)
(0.998926 -0.00238624 0)
(0.99931 0.0013132 0)
(1.00109 -0.00257997 0)
(0.998864 -0.000637293 0)
(0.999625 0.00184214 0)
(0.999174 -0.00021996 0)
(0.997911 0.00106753 0)
(0.998473 0.00241688 0)
(0.99941 0.00346767 0)
(0.998705 0.00538038 0)
(0.999204 0.00652013 0)
(1.00075 0.00633466 0)
(1.00183 0.00673373 0)
(1.0018 0.0078726 0)
(1.00224 0.0085128 0)
(1.00284 0.00910307 0)
(1.00367 0.00907106 0)
(1.00359 0.00947821 0)
(1.00279 0.00962637 0)
(1.00092 0.00999115 0)
(0.999024 -0.00228295 0)
(0.999286 0.00108366 0)
(1.00102 -0.00232982 0)
(0.999056 -0.000769136 0)
(0.999622 0.00174659 0)
(0.99915 7.81538e-06 0)
(0.998099 0.00128192 0)
(0.998687 0.00257649 0)
(0.999689 0.00352412 0)
(0.999044 0.00522501 0)
(0.999358 0.00648601 0)
(1.00081 0.0064574 0)
(1.00207 0.00663963 0)
(1.00212 0.00771264 0)
(1.00252 0.00836004 0)
(1.003 0.00899408 0)
(1.00379 0.00897808 0)
(1.00375 0.00924649 0)
(1.00299 0.00939472 0)
(1.0011 0.00973715 0)
(0.999116 -0.00220041 0)
(0.999269 0.000919012 0)
(1.00094 -0.00211165 0)
(0.999233 -0.000877775 0)
(0.999652 0.00165091 0)
(0.999149 0.000372634 0)
(0.998266 0.00146735 0)
(0.998877 0.00268041 0)
(0.999935 0.00353463 0)
(0.999373 0.00506022 0)
(0.99954 0.00638435 0)
(1.00087 0.00654022 0)
(1.00229 0.00657891 0)
(1.00244 0.00756613 0)
(1.0028 0.00818233 0)
(1.00318 0.008812 0)
(1.0039 0.00887327 0)
(1.00391 0.00907666 0)
(1.00319 0.00922999 0)
(1.00128 0.00948355 0)
(0.999204 -0.00207592 0)
(0.999249 0.000697985 0)
(1.00086 -0.00188846 0)
(0.999407 -0.000954211 0)
(0.9997 0.0015874 0)
(0.99915 0.0005947 0)
(0.998424 0.00160765 0)
(0.999064 0.00277354 0)
(1.00017 0.00355942 0)
(0.999701 0.00492726 0)
(0.999753 0.00625996 0)
(1.00094 0.00658734 0)
(1.00247 0.00652276 0)
(1.00274 0.00735691 0)
(1.00308 0.00795604 0)
(1.00338 0.00858964 0)
(1.00402 0.00875801 0)
(1.00405 0.00890573 0)
(1.00336 0.00902701 0)
(1.00143 0.00918253 0)
(0.999285 -0.0019938 0)
(0.999239 0.000524679 0)
(1.00078 -0.00163123 0)
(0.999565 -0.00100519 0)
(0.999765 0.00150362 0)
(0.999166 0.000822732 0)
(0.99858 0.00178524 0)
(0.99924 0.00283832 0)
(1.00038 0.00354604 0)
(1.00002 0.00476866 0)
(0.999991 0.0060897 0)