/*--------------------------------*- C++ -*----------------------------------*\
| =========                 |                                                 |
| \\      /  F ield         | OpenFOAM: The Open Source CFD Toolbox           |
|  \\    /   O peration     | Version:  v2012                                 |
|   \\  /    A nd           | Website:  www.openfoam.com                      |
|    \\/     M anipulation  |                                                 |
\*---------------------------------------------------------------------------*/
FoamFile
{
    version     2.0;
    format      ascii;
    class       surfaceScalarField;
    location    "3.9";
    object      phi;
}
// * * * * * * * * * * * * * * * * * * * * * * * * * * * * * * * * * * * * * //

dimensions      [0 3 -1 0 0 0 0];
oriented        oriented;


internalField   nonuniform List<scalar> 
13830
(
9.30842e-07
-1.86067e-07
8.99596e-07
9.09411e-07
9.00849e-07
-9.98365e-07
9.46709e-07
-9.21513e-07
9.69086e-07
-8.22782e-07
9.5498e-07
-6.10932e-07
9.94434e-07
-2.06128e-07
1.04439e-06
8.1023e-07
1.01035e-06
7.36185e-07
1.01061e-06
7.91463e-07
9.99409e-07
4.70101e-07
9.91528e-07
3.0558e-07
9.80836e-07
3.99524e-07
9.56263e-07
-3.64115e-07
9.59588e-07
-1.396e-07
9.26417e-07
-5.45969e-07
9.36159e-07
-3.04573e-07
9.03062e-07
-4.95857e-07
9.10329e-07
-2.6244e-07
-3.74741e-07
8.69813e-07
9.66306e-07
-1.7984e-07
9.38881e-07
9.36836e-07
9.36322e-07
-9.95806e-07
9.78867e-07
-9.64057e-07
1.0042e-06
-8.48115e-07
9.91968e-07
-5.987e-07
1.03546e-06
-2.49619e-07
1.08345e-06
7.62242e-07
1.05047e-06
7.69168e-07
1.04859e-06
7.93339e-07
1.0375e-06
4.81194e-07
1.03181e-06
3.1127e-07
1.01548e-06
4.15848e-07
1.00075e-06
-3.49384e-07
9.90992e-07
-1.29841e-07
9.7382e-07
-5.28796e-07
9.67279e-07
-2.98032e-07
9.52393e-07
-4.8097e-07
9.42973e-07
-2.5302e-07
-3.53983e-07
9.22215e-07
1.00279e-06
-1.73174e-07
9.8051e-07
9.59113e-07
9.72093e-07
-9.87389e-07
1.00997e-06
-1.00193e-06
1.03778e-06
-8.75933e-07
1.03273e-06
-5.93642e-07
1.07555e-06
-2.92445e-07
1.12473e-06
7.13063e-07
1.09348e-06
8.00417e-07
1.08761e-06
7.99207e-07
1.0782e-06
4.90603e-07
1.07203e-06
3.17445e-07
1.05697e-06
4.30903e-07
1.04308e-06
-3.3549e-07
1.03163e-06
-1.18392e-07
1.01892e-06
-5.16081e-07
1.00719e-06
-2.86311e-07
9.99413e-07
-4.73189e-07
9.85001e-07
-2.38608e-07
-3.41113e-07
9.7213e-07
1.0408e-06
-1.66194e-07
1.02318e-06
9.76733e-07
1.00887e-06
-9.73086e-07
1.04062e-06
-1.03368e-06
1.07014e-06
-9.05455e-07
1.07588e-06
-5.99381e-07
1.11721e-06
-3.33777e-07
1.16428e-06
6.65993e-07
1.1394e-06
8.253e-07
1.12852e-06
8.10092e-07
1.12032e-06
4.98802e-07
1.11466e-06
3.23098e-07
1.09978e-06
4.45788e-07
1.0848e-06
-3.2051e-07
1.07242e-06
-1.06013e-07
1.05957e-06
-5.03226e-07
1.04591e-06
-2.72656e-07
1.03953e-06
-4.66811e-07
1.0244e-06
-2.2348e-07
-3.29987e-07
1.01328e-06
1.08065e-06
-1.59286e-07
1.06705e-06
9.90328e-07
1.04825e-06
-9.5428e-07
1.0721e-06
-1.05753e-06
1.10227e-06
-9.35628e-07
1.11966e-06
-6.16772e-07
1.16039e-06
-3.74507e-07
1.2029e-06
6.23482e-07
1.18582e-06
8.42384e-07
1.17246e-06
8.2345e-07
1.16383e-06
5.07431e-07
1.15969e-06
3.2724e-07
1.14461e-06
4.60869e-07
1.12737e-06
-3.03273e-07
1.11467e-06
-9.33092e-08
1.10039e-06
-4.88944e-07
1.08623e-06
-2.58495e-07
1.07932e-06
-4.59908e-07
1.06482e-06
-2.0898e-07
-3.18703e-07
1.05354e-06
1.12247e-06
-1.52916e-07
1.11269e-06
1.00011e-06
1.09161e-06
-9.33199e-07
1.10601e-06
-1.07193e-06
1.13516e-06
-9.64783e-07
1.16291e-06
-6.44516e-07
1.20471e-06
-4.16312e-07
1.24263e-06
5.85561e-07
1.23171e-06
8.53305e-07
1.21876e-06
8.36407e-07
1.20907e-06
5.1712e-07
1.20654e-06
3.29772e-07
1.19093e-06
4.76476e-07
1.17124e-06
-2.83581e-07
1.15792e-06
-7.99904e-08
1.14224e-06
-4.73271e-07
1.12795e-06
-2.44205e-07
1.11994e-06
-4.51892e-07
1.10641e-06
-1.95453e-07
-3.06858e-07
1.09457e-06
1.16615e-06
-1.47368e-07
1.16055e-06
1.00572e-06
1.13942e-06
-9.12074e-07
1.14373e-06
-1.07624e-06
1.16924e-06
-9.90292e-07
1.2052e-06
-6.80472e-07
1.24968e-06
-4.60799e-07
1.28456e-06
5.5068e-07
1.27758e-06
8.60285e-07
1.26641e-06
8.47578e-07
1.25586e-06
5.27676e-07
1.25447e-06
3.31158e-07
1.23825e-06
4.92692e-07
1.21619e-06
-2.61513e-07
1.20213e-06
-6.59348e-08
1.18549e-06
-4.56632e-07
1.17121e-06
-2.2992e-07
1.16198e-06
-4.42668e-07
1.14944e-06
-1.82911e-07
-2.94523e-07
1.13711e-06
1.21134e-06
-1.42524e-07
1.21061e-06
1.00644e-06
1.19112e-06
-8.92582e-07
1.1859e-06
-1.07101e-06
1.20455e-06
-1.00895e-06
1.24635e-06
-7.22268e-07
1.29479e-06
-5.09241e-07
1.32851e-06
5.16965e-07
1.32424e-06
8.64547e-07
1.31497e-06
8.56852e-07
1.30375e-06
5.38896e-07
1.30285e-06
3.32059e-07
1.28612e-06
5.09418e-07
1.26197e-06
-2.3736e-07
1.24727e-06
-5.12333e-08
1.23007e-06
-4.39431e-07
1.21597e-06
-2.15824e-07
1.20547e-06
-4.32168e-07
1.1939e-06
-1.71337e-07
-2.81827e-07
1.1812e-06
1.2577e-06
-1.37873e-07
1.26235e-06
1.0018e-06
1.24549e-06
-8.75728e-07
1.23227e-06
-1.05779e-06
1.24131e-06
-1.018e-06
1.28633e-06
-7.67281e-07
1.33941e-06
-5.62321e-07
1.37361e-06
4.82759e-07
1.37195e-06
8.66214e-07
1.36417e-06
8.64624e-07
1.35217e-06
5.509e-07
1.35111e-06
3.33121e-07
1.33416e-06
5.26366e-07
1.30845e-06
-2.11653e-07
1.29337e-06
-3.61543e-08
1.27593e-06
-4.21988e-07
1.26227e-06
-2.02161e-07
1.2504e-06
-4.20298e-07
1.23977e-06
-1.60714e-07
-2.68852e-07
1.2268e-06
1.30512e-06
-1.32719e-07
1.31502e-06
9.91899e-07
1.30124e-06
-8.61949e-07
1.2821e-06
-1.03864e-06
1.28026e-06
-1.01616e-06
1.32556e-06
-8.12587e-07
1.38278e-06
-6.19542e-07
1.41875e-06
4.46795e-07
1.42012e-06
8.64839e-07
1.41346e-06
8.71285e-07
1.40037e-06
5.63992e-07
1.39871e-06
3.34776e-07
1.38207e-06
5.43007e-07
1.35562e-06
-1.85195e-07
1.34056e-06
-2.10952e-08
1.32311e-06
-4.04542e-07
1.31014e-06
-1.8919e-07
1.29684e-06
-4.06997e-07
1.28712e-06
-1.51001e-07
-2.55645e-07
1.27392e-06
1.35379e-06
-1.26491e-07
1.36814e-06
9.77555e-07
1.35738e-06
-8.51193e-07
1.33453e-06
-1.01579e-06
1.32255e-06
-1.00418e-06
1.36521e-06
-8.5525e-07
1.42435e-06
-6.78688e-07
1.46262e-06
4.08531e-07
1.46753e-06
8.59929e-07
1.46185e-06
8.7696e-07
1.44752e-06
5.78323e-07
1.44526e-06
3.37041e-07
1.42973e-06
5.58534e-07
1.40355e-06
-1.59008e-07
1.38901e-06
-6.55897e-09
1.3717e-06
-3.87232e-07
1.35966e-06
-1.77153e-07
1.34494e-06
-3.92275e-07
1.33608e-06
-1.42142e-07
-2.42243e-07
1.32268e-06
1.40415e-06
-1.18989e-07
1.42166e-06
9.60047e-07
1.41343e-06
-8.42964e-07
1.38893e-06
-9.91287e-07
1.36934e-06
-9.84582e-07
1.4069e-06
-8.92816e-07
1.46411e-06
-7.359e-07
1.50411e-06
3.68539e-07
1.51275e-06
8.51289e-07
1.50836e-06
8.81345e-07
1.49307e-06
5.93613e-07
1.49067e-06
3.39447e-07
1.47727e-06
5.71933e-07
1.45242e-06
-1.34166e-07
1.43898e-06
6.88412e-09
1.42183e-06
-3.70084e-07
1.41092e-06
-1.66242e-07
1.39488e-06
-3.76228e-07
1.3868e-06
-1.34067e-07
-2.28686e-07
1.37324e-06
1.45672e-06
-1.10467e-07
1.47596e-06
9.40811e-07
1.46942e-06
-8.36419e-07
1.44501e-06
-9.66881e-07
1.42127e-06
-9.60847e-07
1.45217e-06
-9.23714e-07
1.5028e-06
-7.86532e-07
1.54284e-06
3.285e-07
1.55496e-06
8.39172e-07
1.55259e-06
8.83717e-07
1.53709e-06
6.09107e-07
1.53538e-06
3.41166e-07
1.52514e-06
5.82166e-07
1.50253e-06
-1.1155e-07
1.49075e-06
1.86641e-08
1.47366e-06
-3.52997e-07
1.46401e-06
-1.56591e-07
1.44681e-06
-3.59033e-07
1.43944e-06
-1.26695e-07
-2.15024e-07
1.42578e-06
1.51196e-06
-1.01558e-07
1.53164e-06
9.21132e-07
1.52577e-06
-8.30548e-07
1.50277e-06
-9.43884e-07
1.47827e-06
-9.36339e-07
1.50189e-06
-9.47337e-07
1.54179e-06
-8.26437e-07
1.57967e-06
2.90624e-07
1.59458e-06
8.24262e-07
1.59516e-06
8.83135e-07
1.58049e-06
6.23778e-07
1.58034e-06
3.41317e-07
1.57409e-06
5.88415e-07
1.55419e-06
-9.16452e-08
1.54456e-06
2.82942e-08
1.52734e-06
-3.35783e-07
1.51902e-06
-1.48265e-07
1.50091e-06
-3.40923e-07
1.49414e-06
-1.19927e-07
-2.01322e-07
1.48044e-06
1.57012e-06
-9.30614e-08
1.58929e-06
9.01956e-07
1.58313e-06
-8.24384e-07
1.56241e-06
-9.23167e-07
1.53959e-06
-9.1352e-07
1.5561e-06
-9.63849e-07
1.58274e-06
-8.53069e-07
1.61658e-06
2.56775e-07
1.63335e-06
8.075e-07
1.6377e-06
8.78785e-07
1.62481e-06
6.36664e-07
1.6268e-06
3.39327e-07
1.62496e-06
5.90254e-07
1.60776e-06
-7.44406e-08
1.6006e-06
3.54509e-08
1.58305e-06
-3.18237e-07
1.57603e-06
-1.4124e-07
1.55727e-06
-3.22162e-07
1.551e-06
-1.13655e-07
-1.87654e-07
1.53733e-06
1.63119e-06
-8.57109e-08
1.64935e-06
8.83803e-07
1.64213e-06
-8.17165e-07
1.62415e-06
-9.05189e-07
1.60427e-06
-8.93641e-07
1.61427e-06
-9.73854e-07
1.62715e-06
-8.65947e-07
1.65613e-06
2.27798e-07
1.67376e-06
7.89873e-07
1.68227e-06
8.70276e-07
1.6718e-06
6.47132e-07
1.67597e-06
3.35158e-07
1.67852e-06
5.87704e-07
1.66357e-06
-5.94937e-08
1.659e-06
4.00198e-08
1.64097e-06
-3.00206e-07
1.63513e-06
-1.35395e-07
1.61598e-06
-3.03017e-07
1.61009e-06
-1.07761e-07
-1.74107e-07
1.59654e-06
1.69502e-06
-7.9983e-08
1.71205e-06
8.66776e-07
1.70329e-06
-8.08406e-07
1.68814e-06
-8.90042e-07
1.67141e-06
-8.76909e-07
1.6757e-06
-9.78139e-07
1.67612e-06
-8.66374e-07
1.70054e-06
2.03383e-07
1.71818e-06
7.72228e-07
1.73071e-06
8.57748e-07
1.72288e-06
6.5496e-07
1.7287e-06
3.29343e-07
1.7353e-06
5.81103e-07
1.72192e-06
-4.61192e-08
1.71981e-06
4.21283e-08
1.70125e-06
-2.81642e-07
1.69638e-06
-1.30522e-07
1.6771e-06
-2.83739e-07
1.67147e-06
-1.02136e-07
-1.60768e-07
1.65813e-06
1.76135e-06
-7.60116e-08
1.77748e-06
8.50645e-07
1.76696e-06
-7.97894e-07
1.75443e-06
-8.77508e-07
1.74042e-06
-8.62902e-07
1.73982e-06
-9.77541e-07
1.73014e-06
-8.56685e-07
1.75107e-06
1.82445e-07
1.76813e-06
7.55171e-07
1.78412e-06
8.41763e-07
1.77886e-06
6.60215e-07
1.7854e-06
3.22805e-07
1.79556e-06
5.70944e-07
1.78305e-06
-3.36096e-08
1.78307e-06
4.21032e-08
1.76404e-06
-2.62607e-07
1.75987e-06
-1.26348e-07
1.74067e-06
-2.64548e-07
1.73522e-06
-9.6684e-08
-1.4772e-07
1.72217e-06
1.82994e-06
-7.36144e-08
1.8456e-06
8.34982e-07
1.83334e-06
-7.85636e-07
1.82298e-06
-8.67144e-07
1.81103e-06
-8.50952e-07
1.80641e-06
-9.72925e-07
1.78917e-06
-8.3944e-07
1.80789e-06
1.63721e-07
1.82403e-06
7.39031e-07
1.84271e-06
8.23089e-07
1.83987e-06
6.63048e-07
1.84609e-06
3.16584e-07
1.85927e-06
5.57765e-07
1.84713e-06
-2.14651e-08
1.84881e-06
4.04155e-08
1.82948e-06
-2.43272e-07
1.8257e-06
-1.22565e-07
1.80678e-06
-2.45634e-07
1.80142e-06
-9.1325e-08
-1.35037e-07
1.78874e-06
1.90068e-06
-7.23959e-08
1.91637e-06
8.19297e-07
1.90252e-06
-7.71795e-07
1.89376e-06
-8.5838e-07
1.88321e-06
-8.40403e-07
1.87547e-06
-9.65181e-07
1.85289e-06
-8.16857e-07
1.87035e-06
1.46257e-07
1.88549e-06
7.23891e-07
1.90606e-06
8.02515e-07
1.90559e-06
6.63522e-07
1.91059e-06
3.11585e-07
1.92634e-06
5.4201e-07
1.91427e-06
-9.38972e-09
1.91709e-06
3.75916e-08
1.8977e-06
-2.23877e-07
1.894e-06
-1.18866e-07
1.87551e-06
-2.2715e-07
1.87019e-06
-8.60002e-08
-1.22779e-07
1.85793e-06
1.97358e-06
-7.1875e-08
1.98973e-06
8.03148e-07
1.97456e-06
-7.56625e-07
1.96681e-06
-8.5063e-07
1.9571e-06
-8.30689e-07
1.94712e-06
-9.55199e-07
1.92086e-06
-7.90603e-07
1.93752e-06
1.29596e-07
1.95179e-06
7.09624e-07
1.97355e-06
7.80751e-07
1.97553e-06
6.61543e-07
1.97869e-06
3.08424e-07
1.99668e-06
5.24026e-07
1.98456e-06
2.72895e-09
1.988e-06
3.4147e-08
1.96881e-06
-2.0468e-07
1.96492e-06
-1.14977e-07
1.94698e-06
-2.09215e-07
1.94165e-06
-8.06674e-08
-1.10989e-07
1.92986e-06
2.04877e-06
-7.1592e-08
2.06571e-06
7.86205e-07
2.04951e-06
-7.40424e-07
2.04226e-06
-8.43379e-07
2.0329e-06
-8.21333e-07
2.0215e-06
-9.43794e-07
1.99275e-06
-7.61858e-07
2.00863e-06
1.13721e-07
2.02231e-06
6.9594e-07
2.04462e-06
7.58437e-07
2.04927e-06
6.56902e-07
2.05035e-06
3.07338e-07
2.07019e-06
5.04188e-07
2.05806e-06
1.48642e-08
2.06167e-06
3.05288e-08
2.04291e-06
-1.85913e-07
2.03861e-06
-1.10684e-07
2.02131e-06
-1.91913e-07
2.01594e-06
-7.52974e-08
-9.96898e-08
2.00464e-06
2.12642e-06
-7.11729e-08
2.14436e-06
7.68265e-07
2.12742e-06
-7.23487e-07
2.12029e-06
-8.36248e-07
2.11087e-06
-8.11912e-07
2.09871e-06
-9.31636e-07
2.06833e-06
-7.31477e-07
2.08318e-06
9.88683e-08
2.0967e-06
6.82427e-07
2.11896e-06
7.36174e-07
2.12644e-06
6.49421e-07
2.12561e-06
3.08164e-07
2.14683e-06
4.82967e-07
2.13482e-06
2.68811e-08
2.13823e-06
2.71181e-08
2.12006e-06
-1.67748e-07
2.11523e-06
-1.05855e-07
2.09861e-06
-1.75285e-07
2.09319e-06
-6.98818e-08
-8.88912e-08
2.08239e-06
2.20676e-06
-7.03512e-08
2.22578e-06
7.49247e-07
2.20837e-06
-7.06077e-07
2.20114e-06
-8.29018e-07
2.19127e-06
-8.0204e-07
2.17882e-06
-9.19187e-07
2.1475e-06
-7.00152e-07
2.16101e-06
8.53511e-08
2.17485e-06
6.68594e-07
2.19648e-06
7.14545e-07
2.20679e-06
6.39111e-07
2.20448e-06
3.10465e-07
2.22659e-06
4.60864e-07
2.2149e-06
3.85704e-08
2.21778e-06
2.42333e-08
2.20033e-06
-1.50298e-07
2.19492e-06
-1.00446e-07
2.17896e-06
-1.59317e-07
2.17352e-06
-6.4442e-08
-7.85978e-08
2.16322e-06
2.29001e-06
-6.89638e-08
2.31009e-06
7.29164e-07
2.29242e-06
-6.88407e-07
2.28502e-06
-8.21625e-07
2.27437e-06
-7.91382e-07
2.26187e-06
-9.06692e-07
2.23023e-06
-6.68507e-07
2.24211e-06
7.34649e-08
2.2568e-06
6.53907e-07
2.27726e-06
6.94083e-07
2.29025e-06
6.26124e-07
2.28699e-06
3.13723e-07
2.30945e-06
4.38406e-07
2.29835e-06
4.96649e-08
2.30045e-06
2.21341e-08
2.28378e-06
-1.33625e-07
2.27781e-06
-9.44743e-08
2.26242e-06
-1.43927e-07
2.25703e-06
-5.90574e-08
-6.88081e-08
2.24724e-06
2.37635e-06
-6.69338e-08
2.39742e-06
7.08103e-07
2.37963e-06
-6.7062e-07
2.37214e-06
-8.14131e-07
2.36043e-06
-7.79672e-07
2.34792e-06
-8.9419e-07
2.31654e-06
-6.37125e-07
2.32655e-06
6.34599e-08
2.34259e-06
6.37865e-07
2.36155e-06
6.75124e-07
2.37686e-06
6.10812e-07
2.37315e-06
3.17429e-07
2.39546e-06
4.16098e-07
2.38521e-06
5.9913e-08
2.38635e-06
2.0998e-08
2.37048e-06
-1.1775e-07
2.36395e-06
-8.79454e-08
2.34894e-06
-1.28923e-07
2.34386e-06
-5.39722e-08
-5.94978e-08
2.33455e-06
2.466e-06
-6.42522e-08
2.4879e-06
6.86195e-07
2.47007e-06
-6.52787e-07
2.46262e-06
-8.06682e-07
2.4497e-06
-7.66751e-07
2.43706e-06
-8.81551e-07
2.40648e-06
-6.06546e-07
2.41439e-06
5.55511e-08
2.43212e-06
6.20135e-07
2.44955e-06
6.57697e-07
2.46669e-06
5.9367e-07
2.46301e-06
3.21111e-07
2.48471e-06
3.94396e-07
2.47552e-06
6.91021e-08
2.47561e-06
2.09131e-08
2.46054e-06
-1.02687e-07
2.45292e-06
-8.03213e-08
2.43835e-06
-1.14353e-07
2.43411e-06
-4.97377e-08
-5.06147e-08
2.42523e-06
2.55911e-06
-6.09614e-08
2.58171e-06
6.63593e-07
2.56383e-06
-6.34902e-07
2.55659e-06
-7.99446e-07
2.54242e-06
-7.52585e-07
2.5294e-06
-8.68525e-07
2.50012e-06
-5.77269e-07
2.50573e-06
4.99404e-08
2.52535e-06
6.00515e-07
2.54137e-06
6.41681e-07
2.55984e-06
5.75196e-07
2.55661e-06
3.24343e-07
2.57733e-06
3.73677e-07
2.56929e-06
7.71425e-08
2.56836e-06
2.18434e-08
2.55401e-06
-8.83377e-08
2.54992e-06
-7.62301e-08
2.53807e-06
-1.02509e-07
2.52794e-06
-3.96058e-08
-4.20984e-08
2.51943e-06
2.65586e-06
-5.71427e-08
2.679e-06
6.40451e-07
2.66099e-06
-6.16892e-07
2.65412e-06
-7.9257e-07
2.63881e-06
-7.37274e-07
2.62508e-06
-8.54797e-07
2.59755e-06
-5.4974e-07
2.60074e-06
4.67498e-08
2.62224e-06
5.79017e-07
2.63712e-06
6.26796e-07
2.65639e-06
5.5593e-07
2.65408e-06
3.26656e-07
2.67343e-06
3.54329e-07
2.66663e-06
8.39405e-08
2.66507e-06
2.3396e-08
2.6498e-06
-7.30652e-08
2.64118e-06
-6.76042e-08
2.6283e-06
-8.96322e-08
2.62526e-06
-3.65684e-08
-3.40451e-08
2.61721e-06
2.75641e-06
-5.29048e-08
2.77996e-06
6.16902e-07
2.7617e-06
-5.98633e-07
2.75526e-06
-7.86129e-07
2.73902e-06
-7.2103e-07
2.72426e-06
-8.4004e-07
2.69887e-06
-5.24345e-07
2.69964e-06
4.59816e-08
2.72275e-06
5.55905e-07
2.73697e-06
6.12575e-07
2.75642e-06
5.36484e-07
2.75562e-06
3.27452e-07
2.77302e-06
3.3693e-07
2.76782e-06
8.91375e-08
2.7654e-06
2.58167e-08
2.74999e-06
-5.76506e-08
2.74004e-06
-5.76536e-08
2.72722e-06
-7.6817e-08
2.72656e-06
-3.59122e-08
-2.61933e-08
2.71871e-06
2.86093e-06
-4.83718e-08
2.88478e-06
5.93047e-07
2.86613e-06
-5.79977e-07
2.86009e-06
-7.80098e-07
2.84324e-06
-7.04171e-07
2.82711e-06
-8.23916e-07
2.80418e-06
-5.01417e-07
2.80261e-06
4.75564e-08
2.82697e-06
5.31538e-07
2.84097e-06
5.98576e-07
2.86011e-06
5.17345e-07
2.86136e-06
3.26207e-07
2.87635e-06
3.21932e-07
2.87284e-06
9.26559e-08
2.8702e-06
2.84507e-08
2.86292e-06
-5.03694e-08
2.85822e-06
-5.29537e-08
2.84769e-06
-6.62868e-08
2.83219e-06
-2.04136e-08
-1.80816e-08
2.82408e-06
2.96954e-06
-4.36664e-08
2.99365e-06
5.68935e-07
2.97445e-06
-5.60773e-07
2.9687e-06
-7.74351e-07
2.95158e-06
-6.87056e-07
2.93379e-06
-8.06127e-07
2.91355e-06
-4.8117e-07
2.90982e-06
5.12809e-08
2.93504e-06
5.06323e-07
2.94919e-06
5.8442e-07
2.96775e-06
4.98787e-07
2.97119e-06
3.2277e-07
2.98401e-06
3.09109e-07
2.98247e-06
9.41961e-08
2.97771e-06
3.3212e-08
2.96291e-06
-3.55693e-08
2.95027e-06
-4.03115e-08
2.93783e-06
-5.38478e-08
2.94094e-06
-2.35277e-08
-1.05555e-08
2.93342e-06
3.08239e-06
-3.88953e-08
3.10675e-06
5.44572e-07
3.08688e-06
-5.40906e-07
3.08119e-06
-7.68659e-07
3.0642e-06
-6.70066e-07
3.0445e-06
-7.86427e-07
3.027e-06
-4.63662e-07
3.02146e-06
5.68204e-08
3.04713e-06
4.80646e-07
3.0617e-06
5.69857e-07
3.07966e-06
4.80818e-07
3.08478e-06
3.17653e-07
3.09643e-06
2.97464e-07
3.09491e-06
9.57174e-08
3.09317e-06
3.49501e-08
3.08909e-06
-3.14959e-08
3.08389e-06
-3.5107e-08
3.0733e-06
-4.32543e-08
3.05469e-06
-4.9266e-09
-2.88694e-09
3.04703e-06
3.19961e-06
-3.41423e-08
3.22424e-06
5.19936e-07
3.20368e-06
-5.2034e-07
3.19771e-06
-7.62694e-07
3.18126e-06
-6.53615e-07
3.15944e-06
-7.64604e-07
3.14463e-06
-4.48851e-07
3.13766e-06
6.37888e-08
3.16345e-06
4.54858e-07
3.17855e-06
5.54756e-07
3.19621e-06
4.63159e-07
3.20132e-06
3.12536e-07
3.2145e-06
2.84288e-07
3.21149e-06
9.87284e-08
3.21059e-06
3.58535e-08
3.19039e-06
-1.13035e-08
3.17883e-06
-2.35465e-08
3.16889e-06
-3.3311e-08
3.17058e-06
-6.6186e-09
2.64747e-09
3.16505e-06
3.32132e-06
-2.94512e-08
3.34629e-06
4.94972e-07
3.32504e-06
-4.99091e-07
3.31848e-06
-7.56141e-07
3.30284e-06
-6.37969e-07
3.27897e-06
-7.4074e-07
3.26636e-06
-4.36241e-07
3.25881e-06
7.13461e-08
3.28389e-06
4.29772e-07
3.30054e-06
5.38113e-07
3.31675e-06
4.46951e-07
3.32333e-06
3.05949e-07
3.33535e-06
2.72267e-07
3.32661e-06
1.07473e-07
3.32084e-06
4.16236e-08
3.3099e-06
-3.60902e-10
3.2991e-06
-1.27552e-08
3.28922e-06
-2.34265e-08
3.29241e-06
-9.8135e-09
7.83952e-09
3.28722e-06
3.44767e-06
-2.4837e-08
3.47301e-06
4.69634e-07
3.4512e-06
-4.77284e-07
3.44369e-06
-7.48628e-07
3.4291e-06
-6.23384e-07
3.40334e-06
-7.14984e-07
3.39244e-06
-4.2534e-07
3.38499e-06
7.88011e-08
3.4087e-06
4.0606e-07
3.42803e-06
5.18786e-07
3.44125e-06
4.33726e-07
3.45065e-06
2.96552e-07
3.4579e-06
2.65013e-07
3.46375e-06
1.01624e-07
3.46256e-06
4.28153e-08
3.4597e-06
2.49991e-09
3.45506e-06
-8.11977e-09
3.44341e-06
-1.17731e-08
3.42119e-06
1.24031e-08
1.52509e-08
3.41378e-06
3.5788e-06
-2.02925e-08
3.60452e-06
4.43913e-07
3.58241e-06
-4.55169e-07
3.57346e-06
-7.39678e-07
3.56035e-06
-6.10274e-07
3.53255e-06
-6.87188e-07
3.52335e-06
-4.16142e-07
3.51589e-06
8.62636e-08
3.53886e-06
3.83095e-07
3.55839e-06
4.99255e-07
3.57333e-06
4.18788e-07
3.57961e-06
2.90272e-07
3.59182e-06
2.52798e-07
3.584e-06
1.09445e-07
3.57659e-06
5.0224e-08
3.56356e-06
1.55345e-08
3.55398e-06
1.45276e-09
3.54572e-06
-3.50697e-09
3.54935e-06
8.77396e-09
1.88147e-08
3.54578e-06
3.71486e-06
-1.57714e-08
3.741e-06
4.17781e-07
3.71879e-06
-4.32963e-07
3.70814e-06
-7.29026e-07
3.69638e-06
-5.98519e-07
3.66723e-06
-6.58033e-07
3.65871e-06
-4.07623e-07
3.65244e-06
9.25348e-08
3.67335e-06
3.62179e-07
3.69471e-06
4.77893e-07
3.70906e-06
4.04443e-07
3.71539e-06
2.83936e-07
3.72777e-06
2.40419e-07
3.71543e-06
1.21791e-07
3.7101e-06
5.55475e-08
3.69822e-06
2.74186e-08
3.68831e-06
1.13653e-08
3.68027e-06
4.53539e-09
3.68541e-06
3.62681e-09
2.2062e-08
3.68216e-06
3.85606e-06
-1.12383e-08
3.88256e-06
3.91281e-07
3.86057e-06
-4.10978e-07
3.84792e-06
-7.16373e-07
3.8373e-06
-5.87903e-07
3.80753e-06
-6.28264e-07
3.7987e-06
-3.98787e-07
3.79483e-06
9.63953e-08
3.81218e-06
3.44836e-07
3.83721e-06
4.5286e-07
3.84616e-06
3.95495e-07
3.85798e-06
2.7212e-07
3.85987e-06
2.38524e-07
3.87392e-06
1.07745e-07
3.87391e-06
5.55496e-08
3.87309e-06
2.82404e-08
3.86855e-06
1.59038e-08
3.85648e-06
1.66095e-08
3.8309e-06
2.92084e-08
3.00219e-08
3.82294e-06
4.00259e-06
-6.67893e-09
4.02933e-06
3.64546e-07
4.00809e-06
-3.8974e-07
3.99272e-06
-7.01001e-07
3.98379e-06
-5.78974e-07
3.95292e-06
-5.97391e-07
3.94477e-06
-3.90635e-07
3.94107e-06
1.00097e-07
3.95938e-06
3.26523e-07
3.97978e-06
4.32458e-07
3.99775e-06
3.77528e-07
4.00417e-06
2.65699e-07
4.01648e-06
2.26212e-07
3.99971e-06
1.24516e-07
3.99333e-06
6.1925e-08
3.982e-06
3.95712e-08
3.97426e-06
2.36435e-08
3.96769e-06
2.31867e-08
3.97271e-06
2.41831e-08
3.21614e-08
3.97057e-06
4.15465e-06
-2.04234e-09
4.18157e-06
3.37627e-07
4.16136e-06
-3.69539e-07
4.14319e-06
-6.8283e-07
4.13526e-06
-5.7104e-07
4.10464e-06
-5.66773e-07
4.09535e-06
-3.81346e-07
4.09424e-06
1.01212e-07
4.11024e-06
3.10515e-07
4.1306e-06
4.12103e-07
4.14977e-06
3.58362e-07
4.14468e-06
2.70782e-07
4.15095e-06
2.19942e-07
4.14788e-06
1.27588e-07
4.14354e-06
6.62668e-08
4.13274e-06
5.03709e-08
4.12468e-06
3.17007e-08
4.11847e-06
2.9397e-08
4.12463e-06
1.80204e-08
3.41379e-08
4.12266e-06
4.31248e-06
2.65968e-09
4.33942e-06
3.1069e-07
4.32063e-06
-3.50746e-07
4.29967e-06
-6.61867e-07
4.29201e-06
-5.63383e-07
4.26299e-06
-5.37753e-07
4.24994e-06
-3.68295e-07
4.25539e-06
9.57629e-08
4.26355e-06
3.02355e-07
4.29123e-06
3.8442e-07
4.2974e-06
3.52188e-07
4.31881e-06
2.49371e-07
4.32614e-06
2.12617e-07
4.33363e-06
1.20098e-07
4.33311e-06
6.6783e-08
4.33568e-06
4.78006e-08
4.33095e-06
3.64317e-08
4.31848e-06
4.1865e-08
4.28868e-06
4.78232e-08
4.37272e-08
4.27909e-06
4.47636e-06
7.38588e-09
4.50307e-06
2.83978e-07
4.48619e-06
-3.33862e-07
4.46184e-06
-6.3752e-07
4.45534e-06
-5.56886e-07
4.42632e-06
-5.0873e-07
4.4136e-06
-3.55571e-07
4.4179e-06
9.14553e-08
4.42851e-06
2.91749e-07
4.4508e-06
3.62128e-07
4.46061e-06
3.42385e-07
4.46298e-06
2.47001e-07
4.46819e-06
2.07399e-07
4.465e-06
1.2329e-07
4.46075e-06
7.10326e-08
4.45319e-06
5.53635e-08
4.44385e-06
4.57733e-08
4.44067e-06
4.50414e-08
4.44572e-06
4.27781e-08
4.50659e-08
4.44438e-06
4.64643e-06
1.21617e-08
4.67287e-06
2.57539e-07
4.65774e-06
-3.18728e-07
4.63094e-06
-6.10727e-07
4.62436e-06
-5.50298e-07
4.59647e-06
-4.80841e-07
4.58329e-06
-3.42397e-07
4.58641e-06
8.83371e-08
4.60011e-06
2.78049e-07
4.61457e-06
3.47664e-07
4.63198e-06
3.2498e-07
4.63087e-06
2.48114e-07
4.637e-06
2.01267e-07
4.6318e-06
1.28487e-07
4.62959e-06
7.32455e-08
4.62208e-06
6.28779e-08
4.61835e-06
4.94978e-08
4.61298e-06
5.04155e-08
4.61402e-06
4.17402e-08
4.4717e-08
4.61436e-06
4.82303e-06
1.69166e-08
4.849e-06
2.31572e-07
4.83561e-06
-3.05343e-07
4.80701e-06
-5.82122e-07
4.79932e-06
-5.42607e-07
4.77386e-06
-4.55383e-07
4.75829e-06
-3.26824e-07
4.76311e-06
8.35172e-08
4.77489e-06
2.66265e-07
4.79016e-06
3.32398e-07
4.80194e-06
3.13199e-07
4.80614e-06
2.43913e-07
4.81058e-06
1.96827e-07
4.80696e-06
1.32105e-07
4.80357e-06
7.66375e-08
4.80022e-06
6.6226e-08
4.79919e-06
5.05226e-08
4.79886e-06
5.07517e-08
4.79114e-06
4.94572e-08
4.55723e-08
4.79029e-06
5.0064e-06
2.15843e-08
5.03169e-06
2.06283e-07
5.02008e-06
-2.93727e-07
4.98999e-06
-5.52031e-07
4.98099e-06
-5.3361e-07
4.95778e-06
-4.32168e-07
4.9407e-06
-3.0975e-07
4.94602e-06
7.81987e-08
4.95651e-06
2.55772e-07
4.97164e-06
3.17272e-07
4.98273e-06
3.02105e-07
4.98742e-06
2.39228e-07
4.99148e-06
1.92767e-07
4.98895e-06
1.34631e-07
4.98527e-06
8.03227e-08
4.98251e-06
6.89816e-08
4.97556e-06
5.74724e-08
4.97079e-06
5.55203e-08
4.97329e-06
4.69627e-08
4.5141e-08
4.97372e-06
5.19674e-06
2.61534e-08
5.22131e-06
1.81713e-07
5.21111e-06
-2.8352e-07
5.18059e-06
-5.21519e-07
5.16904e-06
-5.22058e-07
5.14883e-06
-4.11951e-07
5.13008e-06
-2.91007e-07
5.13607e-06
7.22087e-08
5.1449e-06
2.46948e-07
5.15971e-06
3.02464e-07
5.17031e-06
2.91498e-07
5.17591e-06
2.33629e-07
5.17952e-06
1.89162e-07
5.17782e-06
1.36327e-07
5.17346e-06
8.46879e-08
5.17252e-06
6.99167e-08
5.17079e-06
5.92075e-08
5.17092e-06
5.53841e-08
5.16415e-06
5.37334e-08
4.63043e-08
5.16299e-06
5.3944e-06
3.05351e-08
5.41805e-06
1.58061e-07
5.40913e-06
-2.74603e-07
5.37878e-06
-4.91165e-07
5.36436e-06
-5.07641e-07
5.34641e-06
-3.94002e-07
5.32744e-06
-2.72037e-07
5.33252e-06
6.71297e-08
5.34111e-06
2.38354e-07
5.35448e-06
2.89093e-07
5.3656e-06
2.80383e-07
5.37119e-06
2.28037e-07
5.37508e-06
1.85273e-07
5.37384e-06
1.37565e-07
5.36979e-06
8.87394e-08
5.36802e-06
7.16871e-08
5.36277e-06
6.44529e-08
5.35917e-06
5.89916e-08
5.3609e-06
5.20039e-08
4.66652e-08
5.36053e-06
5.59957e-06
3.47054e-08
5.62224e-06
1.35394e-07
5.61435e-06
-2.66714e-07
5.58507e-06
-4.61894e-07
5.56736e-06
-4.89928e-07
5.55103e-06
-3.77666e-07
5.53223e-06
-2.53243e-07
5.53658e-06
6.27847e-08
5.5451e-06
2.29828e-07
5.55714e-06
2.77055e-07
5.56819e-06
2.6933e-07
5.57418e-06
2.22054e-07
5.57807e-06
1.81376e-07
5.5775e-06
1.38143e-07
5.57343e-06
9.28019e-08
5.57155e-06
7.35696e-08
5.56844e-06
6.75671e-08
5.56669e-06
6.07334e-08
5.56562e-06
5.30784e-08
4.73899e-08
5.56489e-06
5.81258e-06
3.86085e-08
5.83414e-06
1.13828e-07
5.82713e-06
-2.59703e-07
5.79976e-06
-4.34516e-07
5.77856e-06
-4.68729e-07
5.76311e-06
-3.62218e-07
5.74472e-06
-2.34851e-07
5.74862e-06
5.88774e-08
5.75666e-06
2.21795e-07
5.76821e-06
2.65506e-07
5.77852e-06
2.59016e-07
5.78519e-06
2.15388e-07
5.7887e-06
1.7786e-07
5.78908e-06
1.37765e-07
5.78472e-06
9.71626e-08
5.7836e-06
7.46854e-08
5.78357e-06
6.75983e-08
5.78367e-06
6.06391e-08
5.77871e-06
5.80358e-08
4.89155e-08
5.77718e-06
6.03374e-06
4.21712e-08
6.05399e-06
9.35727e-08
6.04789e-06
-2.53599e-07
6.02223e-06
-4.08861e-07
5.99876e-06
-4.45261e-07
5.98249e-06
-3.4594e-07
5.96559e-06
-2.17953e-07
5.96825e-06
5.62151e-08
5.9768e-06
2.13243e-07
5.98738e-06
2.54929e-07
5.99731e-06
2.49083e-07
6.00388e-06
2.08816e-07
6.00771e-06
1.74038e-07
6.00854e-06
1.36928e-07
6.00483e-06
1.00871e-07
6.00295e-06
7.6568e-08
6.00019e-06
7.03596e-08
5.99702e-06
6.3804e-08
5.99891e-06
5.6149e-08
4.95823e-08
5.99824e-06
6.26331e-06
4.53641e-08
6.28214e-06
7.47419e-08
6.27684e-06
-2.48302e-07
6.25286e-06
-3.84883e-07
6.22771e-06
-4.2011e-07
6.21054e-06
-3.28767e-07
6.19446e-06
-2.01875e-07
6.19663e-06
5.40466e-08
6.20539e-06
2.04485e-07
6.21513e-06
2.45189e-07
6.22446e-06
2.39749e-07
6.23123e-06
2.02046e-07
6.23516e-06
1.70108e-07
6.23625e-06
1.35839e-07
6.23308e-06
1.04039e-07
6.23132e-06
7.83301e-08
6.23205e-06
6.96315e-08
6.23192e-06
6.39367e-08
6.22829e-06
5.97758e-08
5.10159e-08
6.22686e-06
6.50166e-06
4.81087e-08
6.51879e-06
5.76105e-08
6.51444e-06
-2.43954e-07
6.49183e-06
-3.62268e-07
6.46581e-06
-3.94095e-07
6.44754e-06
-3.1049e-07
6.4322e-06
-1.86544e-07
6.43366e-06
5.2586e-08
6.44238e-06
1.95766e-07
6.45199e-06
2.35579e-07
6.46076e-06
2.30981e-07
6.46733e-06
1.95473e-07
6.47131e-06
1.6613e-07
6.47261e-06
1.34543e-07
6.47048e-06
1.06169e-07
6.46817e-06
8.06356e-08
6.46601e-06
7.17927e-08
6.46394e-06
6.60099e-08
6.46578e-06
5.79301e-08
5.17072e-08
6.46509e-06
6.74908e-06
5.03669e-08
6.76428e-06
4.24098e-08
6.76093e-06
-2.40605e-07
6.73957e-06
-3.40905e-07
6.71349e-06
-3.68012e-07
6.69396e-06
-2.90967e-07
6.67879e-06
-1.71373e-07
6.67989e-06
5.14903e-08
6.68872e-06
1.86935e-07
6.69804e-06
2.26258e-07
6.70605e-06
2.22968e-07
6.71237e-06
1.89153e-07
6.71656e-06
1.61941e-07
6.71811e-06
1.32993e-07
6.7167e-06
1.0758e-07
6.71436e-06
8.29811e-08
6.71514e-06
7.10085e-08
6.71562e-06
6.55305e-08
6.71291e-06
6.06397e-08
5.30807e-08
6.71154e-06
7.00594e-06
5.20759e-08
7.01886e-06
2.94883e-08
7.01673e-06
-2.38475e-07
6.99658e-06
-3.20752e-07
6.97082e-06
-3.42256e-07
6.9503e-06
-2.70442e-07
6.93516e-06
-1.56234e-07
6.93559e-06
5.10624e-08
6.94409e-06
1.78438e-07
6.95346e-06
2.16887e-07
6.96121e-06
2.15213e-07
6.96706e-06
1.83302e-07
6.97142e-06
1.57586e-07
6.97309e-06
1.31318e-07
6.9724e-06
1.08277e-07
6.96997e-06
8.54058e-08
6.96837e-06
7.26125e-08
6.96698e-06
6.69203e-08
6.9686e-06
5.90225e-08
5.34819e-08
6.96819e-06
7.27257e-06
5.31981e-08
7.28301e-06
1.90474e-08
7.28213e-06
-2.37597e-07
7.26316e-06
-3.0178e-07
7.23876e-06
-3.17861e-07
7.21694e-06
-2.48623e-07
7.20137e-06
-1.40656e-07
7.20112e-06
5.13045e-08
7.20949e-06
1.70074e-07
7.21879e-06
2.07581e-07
7.22622e-06
2.07785e-07
7.23147e-06
1.78053e-07
7.23593e-06
1.53125e-07
7.23775e-06
1.29502e-07
7.23751e-06
1.08514e-07
7.23561e-06
8.73071e-08
7.23609e-06
7.21342e-08
7.23664e-06
6.63674e-08
7.23493e-06
6.07355e-08
5.42497e-08
7.23416e-06
7.54933e-06
5.36944e-08
7.55718e-06
1.11977e-08
7.5575e-06
-2.37908e-07
7.53985e-06
-2.84137e-07
7.51664e-06
-2.9465e-07
7.49406e-06
-2.26042e-07
7.4782e-06
-1.24797e-07
7.47707e-06
5.24316e-08
7.48488e-06
1.62271e-07
7.49408e-06
1.98379e-07
7.50162e-06
2.00243e-07
7.50627e-06
1.73409e-07
7.51071e-06
1.48681e-07
7.51274e-06
1.27476e-07
7.51309e-06
1.08159e-07
7.5114e-06
8.90001e-08
7.50999e-06
7.35434e-08
7.50897e-06
6.73897e-08
7.51055e-06
5.91537e-08
5.4255e-08
7.51054e-06
7.83659e-06
5.35581e-08
7.84189e-06
5.89755e-09
7.84311e-06
-2.39131e-07
7.82695e-06
-2.67977e-07
7.80504e-06
-2.72733e-07
7.78215e-06
-2.03153e-07
7.76571e-06
-1.08356e-07
7.76374e-06
5.44038e-08
7.77104e-06
1.54967e-07
7.77997e-06
1.89447e-07
7.7876e-06
1.92618e-07
7.7918e-06
1.69208e-07
7.79602e-06
1.44459e-07
7.79817e-06
1.25326e-07
7.79891e-06
1.07414e-07
7.79761e-06
9.0299e-08
7.79744e-06
7.37165e-08
7.79799e-06
6.68445e-08
7.79734e-06
5.98047e-08
5.42885e-08
7.7973e-06
8.13473e-06
5.27908e-08
8.13754e-06
3.08895e-09
8.13938e-06
-2.40978e-07
8.12487e-06
-2.53459e-07
8.1051e-06
-2.52971e-07
8.0837e-06
-1.81747e-07
8.0643e-06
-8.896e-08
8.06163e-06
5.70772e-08
8.06822e-06
1.48371e-07
8.07671e-06
1.80962e-07
8.08452e-06
1.84804e-07
8.08852e-06
1.65209e-07
8.0923e-06
1.40682e-07
8.09467e-06
1.22959e-07
8.09581e-06
1.06266e-07
8.09503e-06
9.10805e-08
8.09419e-06
7.45618e-08
8.09375e-06
6.72794e-08
8.09463e-06
5.89297e-08
5.39208e-08
8.095e-06
8.44412e-06
5.14298e-08
8.44473e-06
2.47824e-09
8.44659e-06
-2.42838e-07
8.4339e-06
-2.40766e-07
8.4167e-06
-2.35768e-07
8.39053e-06
-1.55578e-07
8.37383e-06
-7.22609e-08
8.37109e-06
5.98193e-08
8.37713e-06
1.42328e-07
8.38489e-06
1.73202e-07
8.39282e-06
1.76869e-07
8.39672e-06
1.61308e-07
8.40011e-06
1.37298e-07
8.40254e-06
1.20524e-07
8.40389e-06
1.04922e-07
8.40356e-06
9.14067e-08
8.403e-06
7.51191e-08
8.40316e-06
6.7122e-08
8.4034e-06
5.8694e-08
5.33398e-08
8.40398e-06
8.76513e-06
4.95847e-08