/*--------------------------------*- C++ -*----------------------------------*\
| =========                 |                                                 |
| \\      /  F ield         | OpenFOAM: The Open Source CFD Toolbox           |
|  \\    /   O peration     | Version:  v2012                                 |
|   \\  /    A nd           | Website:  www.openfoam.com                      |
|    \\/     M anipulation  |                                                 |
\*---------------------------------------------------------------------------*/
FoamFile
{
    version     2.0;
    format      ascii;
    class       volVectorField;
    location    "3.9";
    object      U;
}
// * * * * * * * * * * * * * * * * * * * * * * * * * * * * * * * * * * * * * //

dimensions      [0 1 -1 0 0 0 0];


internalField   nonuniform List<vector> 
7000
(
(0.943599 -0.00151786 0)
(1.03852 0.00802603 0)
(0.889393 -0.0101612 0)
(1.02622 -0.0102132 0)
(0.995627 -0.0104431 0)
(1.07023 -0.00907403 0)
(0.970053 -0.00287982 0)
(1.14941 0.0157598 0)
(1.08033 0.0151957 0)
(1.07941 0.0187679 0)
(1.07443 0.0124533 0)
(1.06162 0.00912368 0)
(1.0543 0.0134162 0)
(1.0401 -0.0146969 0)
(1.00271 -0.00592559 0)
(1.04389 -0.0279232 0)
(0.93691 -0.0165648 0)
(1.05686 -0.032224 0)
(0.874765 -0.0184992 0)
(1.06264 -0.0308886 0)
(0.949086 -0.00146616 0)
(1.03352 0.00828491 0)
(0.904288 -0.0101466 0)
(1.01521 -0.0108028 0)
(0.998382 -0.0108259 0)
(1.0641 -0.00883816 0)
(0.97747 -0.00371287 0)
(1.14423 0.0148168 0)
(1.08722 0.015696 0)
(1.07463 0.0188167 0)
(1.07996 0.0127016 0)
(1.05594 0.00931665 0)
(1.06485 0.0137978 0)
(1.02595 -0.0136863 0)
(1.03096 -0.00605008 0)
(1.00921 -0.0263073 0)
(0.991106 -0.0167921 0)
(1.00039 -0.0307683 0)
(0.953942 -0.0177076 0)
(0.989102 -0.0302631 0)
(0.959067 -0.00141082 0)
(1.02432 0.00855738 0)
(0.923538 -0.0101011 0)
(0.998662 -0.0113175 0)
(1.00167 -0.0111829 0)
(1.05272 -0.00868182 0)
(0.993199 -0.00449301 0)
(1.13193 0.0137109 0)
(1.09828 0.0164896 0)
(1.07082 0.0189088 0)
(1.08167 0.0130343 0)
(1.05707 0.00952005 0)
(1.06562 0.0144886 0)
(1.03088 -0.0132244 0)
(1.03457 -0.00546117 0)
(1.01163 -0.0256648 0)
(1.00415 -0.016437 0)
(0.99454 -0.0297832 0)
(0.980363 -0.0175723 0)
(0.976509 -0.0281678 0)
(0.971555 -0.00135457 0)
(1.01319 0.00874324 0)
(0.943118 -0.00998918 0)
(0.981185 -0.011721 0)
(1.00326 -0.0115465 0)
(1.03866 -0.00869251 0)
(1.01264 -0.00520182 0)
(1.11638 0.0128027 0)
(1.10626 0.0171693 0)
(1.07184 0.0191127 0)
(1.07986 0.0132796 0)
(1.06099 0.0097112 0)
(1.06544 0.0150136 0)
(1.03599 -0.0126916 0)
(1.03377 -0.00485953 0)
(1.01522 -0.0251287 0)
(1.00459 -0.0155123 0)
(0.994732 -0.0294613 0)
(0.985126 -0.016535 0)
(0.974996 -0.0268354 0)
(0.984207 -0.00129746 0)
(1.0026 0.00887718 0)
(0.96113 -0.00981687 0)
(0.967183 -0.0120413 0)
(1.00168 -0.0119353 0)
(1.02533 -0.00887551 0)
(1.02942 -0.00585324 0)
(1.10303 0.0120014 0)
(1.10828 0.0176102 0)
(1.07571 0.0194112 0)
(1.07811 0.0134957 0)
(1.06446 0.00986248 0)
(1.06687 0.0155124 0)
(1.04017 -0.0120511 0)
(1.0324 -0.00433483 0)
(1.01897 -0.0244289 0)
(1.00248 -0.014687 0)
(0.99727 -0.0291137 0)
(0.984493 -0.0153678 0)
(0.977379 -0.0258333 0)
(0.995064 -0.00124366 0)
(0.994356 0.00898043 0)
(0.976895 -0.00960795 0)
(0.959283 -0.0122626 0)
(0.997267 -0.0123295 0)
(1.01428 -0.00920988 0)
(1.04033 -0.0065208 0)
(1.09399 0.0112525 0)
(1.10621 0.0178768 0)
(1.0792 0.019735 0)
(1.07775 0.0137439 0)
(1.06676 0.00996484 0)
(1.06935 0.0160396 0)
(1.04285 -0.0113393 0)
(1.03177 -0.00376953 0)
(1.02091 -0.0236759 0)
(1.0012 -0.0139104 0)
(0.998717 -0.0286505 0)
(0.983731 -0.0143111 0)
(0.979269 -0.0249154 0)
(1.00305 -0.00119632 0)
(0.989036 0.00905098 0)
(0.990542 -0.00938735 0)
(0.95757 -0.0123685 0)
(0.991848 -0.0126963 0)
(1.00457 -0.00968027 0)
(1.04584 -0.00723686 0)
(1.08806 0.0105721 0)
(1.10285 0.0180528 0)
(1.08096 0.0200308 0)
(1.07817 0.0140207 0)
(1.06805 0.0100223 0)
(1.07146 0.0165823 0)
(1.04445 -0.0105314 0)
(1.03113 -0.00316677 0)
(1.02162 -0.022884 0)
(1.00079 -0.0131223 0)
(0.999149 -0.0280904 0)
(0.983781 -0.0133844 0)
(0.980228 -0.0239684 0)
(1.00806 -0.00115606 0)
(0.986058 0.00908192 0)
(1.00238 -0.00917512 0)
(0.960297 -0.0123587 0)
(0.9874 -0.0129948 0)
(0.994443 -0.010259 0)
(1.04759 -0.00801097 0)
(1.08308 0.00994306 0)
(1.0996 0.018173 0)
(1.08121 0.0202765 0)
(1.07842 0.0143138 0)
(1.06839 0.0100496 0)
(1.07216 0.0171452 0)
(1.04519 -0.00963605 0)
(1.02994 -0.00253494 0)
(1.02155 -0.0220576 0)
(1.00072 -0.0123294 0)
(0.998972 -0.0274579 0)
(0.984212 -0.0125517 0)
(0.980557 -0.0229783 0)
(1.01073 -0.00111983 0)
(0.984311 0.00906685 0)
(1.01243 -0.00898556 0)
(0.965197 -0.0122464 0)
(0.98499 -0.0131816 0)
(0.983184 -0.0109082 0)
(1.04652 -0.00885427 0)
(1.07743 0.00931952 0)
(1.09645 0.0182389 0)
(1.0804 0.0204772 0)
(1.07779 0.014624 0)
(1.06755 0.0100709 0)
(1.07096 0.0177234 0)
(1.04505 -0.00867115 0)
(1.02806 -0.0018792 0)
(1.0209 -0.0212081 0)
(1.00068 -0.0115574 0)
(0.998429 -0.0267468 0)
(0.984658 -0.011785 0)
(0.98052 -0.0219556 0)
(1.01189 -0.00108206 0)
(0.982868 0.00900269 0)
(1.02041 -0.00882697 0)
(0.970443 -0.0120529 0)
(0.984628 -0.013227 0)
(0.971734 -0.0115839 0)
(1.04278 -0.00977389 0)
(1.07018 0.00866614 0)
(1.09258 0.0182427 0)
(1.07845 0.0206465 0)
(1.07565 0.0149594 0)
(1.06513 0.0101057 0)
(1.0677 0.0183023 0)
(1.04392 -0.00766287 0)
(1.02566 -0.00121368 0)
(1.01972 -0.0203503 0)
(1.00067 -0.0108248 0)
(0.997604 -0.0259456 0)
(0.985021 -0.0110768 0)
(0.98025 -0.020912 0)
(1.01223 -0.00103712 0)
(0.981413 0.00889252 0)
(1.02599 -0.00870171 0)
(0.974985 -0.0118043 0)
(0.98571 -0.0131279 0)
(0.962028 -0.0122385 0)
(1.03651 -0.010749 0)
(1.06078 0.00796835 0)
(1.08685 0.0181748 0)
(1.07475 0.0207914 0)
(1.07137 0.0153269 0)
(1.06075 0.0101623 0)
(1.06244 0.0188591 0)
(1.04174 -0.00664635 0)
(1.023 -0.000560277 0)
(1.01806 -0.0194927 0)
(1.00069 -0.0101438 0)
(0.996562 -0.0250523 0)
(0.985333 -0.0104266 0)
(0.979848 -0.0198533 0)
(1.01207 -0.00098178 0)
(0.980232 0.00874585 0)
(1.02901 -0.00860695 0)
(0.978488 -0.0115262 0)
(0.987492 -0.0129088 0)
(0.955897 -0.0128289 0)
(1.02834 -0.011726 0)
(1.04906 0.00723007 0)
(1.07825 0.0180278 0)
(1.06858 0.0209092 0)
(1.0646 0.0157256 0)
(1.05429 0.0102341 0)
(1.05553 0.0193627 0)
(1.0386 -0.00566091 0)
(1.02031 5.50362e-05 0)
(1.01605 -0.018638 0)
(1.00073 -0.0095232 0)
(0.995409 -0.0240721 0)
(0.985628 -0.00983164 0)
(0.979423 -0.0187817 0)
(1.01146 -0.000916545 0)
(0.979897 0.0085759 0)
(1.02958 -0.00853512 0)
(0.981116 -0.0112408 0)
(0.989358 -0.0126136 0)
(0.954206 -0.0133261 0)
(1.01931 -0.0126269 0)
(1.03549 0.00647631 0)
(1.06644 0.0178031 0)
(1.05969 0.020987 0)
(1.05551 0.0161426 0)
(1.04611 0.0102992 0)
(1.04758 0.0197762 0)
(1.03471 -0.00474357 0)
(1.01779 0.000602601 0)
(1.01385 -0.0177839 0)
(1.00075 -0.00896909 0)
(0.994278 -0.023015 0)
(0.985908 -0.00928503 0)
(0.979089 -0.0176998 0)
(1.01035 -0.000845429 0)
(0.980884 0.00839604 0)
(1.02812 -0.00847565 0)
(0.983261 -0.0109653 0)
(0.990935 -0.0122903 0)
(0.956603 -0.0137175 0)
(1.01043 -0.0133756 0)
(1.02111 0.00574672 0)
(1.05201 0.0175136 0)
(1.04859 0.021006 0)
(1.0449 0.0165516 0)
(1.03695 0.0103325 0)
(1.03934 0.0200606 0)
(1.03042 -0.00392468 0)
(1.01553 0.00106417 0)
(1.01163 -0.0169236 0)
(1.00067 -0.00848565 0)
(0.993293 -0.0218985 0)
(0.986147 -0.00877905 0)
(0.978928 -0.01661 0)
(1.00871 -0.00077452 0)
(0.983311 0.00821693 0)
(1.02522 -0.00841784 0)
(0.985292 -0.0107123 0)
(0.992091 -0.0119775 0)
(0.961837 -0.0140029 0)
(1.0024 -0.0139192 0)
(1.00734 0.00508057 0)
(1.03648 0.0171774 0)
(1.0365 0.0209466 0)
(1.03399 0.0169256 0)
(1.02779 0.0103035 0)
(1.03157 0.0202017 0)
(1.02609 -0.00320542 0)
(1.01358 0.00142354 0)
(1.00954 -0.0160486 0)
(1.00045 -0.00807062 0)
(0.992527 -0.020741 0)
(0.986318 -0.00831014 0)
(0.978977 -0.0155175 0)
(1.00668 -0.000710293 0)
(0.986885 0.00804571 0)
(1.02157 -0.00835253 0)
(0.987393 -0.0104896 0)
(0.992879 -0.0116988 0)
(0.968358 -0.0141897 0)
(0.995556 -0.014236 0)
(0.995498 0.00450129 0)
(1.02169 0.0168148 0)
(1.02486 0.0207927 0)
(1.02402 0.0172443 0)
(1.01952 0.0102028 0)
(1.02478 0.0201947 0)
(1.02202 -0.00257537 0)
(1.01191 0.00167181 0)
(1.00767 -0.0151562 0)
(1.00009 -0.0077169 0)
(0.991992 -0.019553 0)
(0.986405 -0.00787215 0)
(0.979218 -0.014432 0)
(1.00449 -0.000657833 0)
(0.991027 0.00788566 0)
(1.01784 -0.00827315 0)
(0.989527 -0.0102999 0)
(0.99343 -0.0114624 0)
(0.974845 -0.0142898 0)
(0.98994 -0.0143353 0)
(0.986377 0.00401062 0)
(1.00917 0.0164448 0)
(1.01482 0.0205382 0)
(1.01588 0.0174958 0)
(1.01271 0.0100459 0)
(1.01921 0.0200346 0)
(1.01843 -0.00201722 0)
(1.01049 0.00180189 0)
(1.00606 -0.0142482 0)
(0.999603 -0.00742221 0)
(0.991651 -0.0183468 0)
(0.986414 -0.00744913 0)
(0.9796 -0.0133596 0)
(1.0024 -0.000619495 0)
(0.995083 0.00773607 0)
(1.01455 -0.00817615 0)
(0.991522 -0.010142 0)
(0.993862 -0.0112661 0)
(0.980467 -0.0143147 0)
(0.985497 -0.0142499 0)
(0.980113 0.00359382 0)
(0.999647 0.016081 0)
(1.00693 0.0201924 0)
(1.00988 0.0176753 0)
(1.00755 0.00985144 0)
(1.01483 0.0197374 0)
(1.01544 -0.00150378 0)
(1.00924 0.00183071 0)
(1.00469 -0.0133174 0)
(0.999051 -0.00717881 0)
(0.991438 -0.01715 0)
(0.986379 -0.00703402 0)
(0.980057 -0.0123015 0)
(1.00063 -0.000594841 0)
(0.998531 0.00759358 0)
(1.01199 -0.00806044 0)
(0.993193 -0.0100122 0)
(0.99423 -0.0111014 0)
(0.98488 -0.0142751 0)
(0.982146 -0.0140213 0)
(0.976282 0.00322649 0)
(0.993055 0.0157324 0)
(1.00113 0.0197757 0)
(1.00585 0.0177833 0)
(1.00389 0.00965242 0)
(1.01147 0.019319 0)
(1.01304 -0.0010216 0)
(1.00813 0.00178731 0)
(1.00355 -0.0123615 0)
(0.998493 -0.00695747 0)
(0.991298 -0.0159804 0)
(0.986349 -0.00664148 0)
(0.980533 -0.0112685 0)
(0.999289 -0.000581406 0)
(1.00108 0.00745361 0)
(1.01026 -0.00792713 0)
(0.994441 -0.00990439 0)
(0.994532 -0.0109583 0)
(0.988085 -0.0141843 0)
(0.979798 -0.0136876 0)
(0.974197 0.00288691 0)
(0.988793 0.0154051 0)
(0.997016 0.0193042 0)
(1.00331 0.017828 0)
(1.00139 0.00948401 0)
(1.0089 0.0188042 0)
(1.01119 -0.000551082 0)
(1.00712 0.00169276 0)
(1.00261 -0.0114047 0)
(0.997982 -0.00672795 0)
(0.991192 -0.0148231 0)
(0.986373 -0.00627281 0)
(0.981 -0.0102759 0)
(0.99839 -0.000575521 0)
(1.0027 0.00731156 0)
(1.00924 -0.00777866 0)
(0.995281 -0.00981166 0)
(0.99474 -0.0108293 0)
(0.990256 -0.0140541 0)
(0.978343 -0.013281 0)
(0.973189 0.0025635 0)
(0.986112 0.0151014 0)
(0.994077 0.0187917 0)
(1.00173 0.0178099 0)
(0.999739 0.00937009 0)
(1.00695 0.0182143 0)
(1.00977 -7.40746e-05 0)
(1.00621 0.00154923 0)
(1.00185 -0.0104814 0)
(0.997555 -0.00649674 0)
(0.991116 -0.0136732 0)
(0.986478 -0.00590101 0)
(0.981454 -0.00932149 0)
(0.99787 -0.000573171 0)
(1.00351 0.0071637 0)
(1.00876 -0.00761829 0)
(0.995812 -0.00972704 0)
(0.994839 -0.0107079 0)
(0.991615 -0.0138975 0)
(0.977631 -0.0128236 0)
(0.972777 0.00225361 0)
(0.984385 0.0148127 0)
(0.99193 0.0182606 0)
(1.00066 0.0177211 0)
(0.998648 0.00931738 0)
(1.00547 0.0175528 0)
(1.00869 0.000400008 0)
(1.00541 0.00137865 0)
(1.00124 -0.00958374 0)
(0.99723 -0.00627834 0)
(0.99108 -0.0125655 0)
(0.986669 -0.00551645 0)
(0.981905 -0.00839735 0)
(0.997631 -0.000570957 0)
(1.00373 0.00700746 0)
(1.00859 -0.00744904 0)
(0.996159 -0.00964564 0)
(0.994838 -0.0105874 0)
(0.992367 -0.0137261 0)
(0.977482 -0.012332 0)
(0.972693 0.0019602 0)
(0.983211 0.0145302 0)
(0.990344 0.0177289 0)
(0.99983 0.0175527 0)
(0.997936 0.00932083 0)
(1.00437 0.0168356 0)
(1.00783 0.000856738 0)
(1.00474 0.00122259 0)
(1.00075 -0.00868817 0)
(0.997003 -0.00603876 0)
(0.991102 -0.0115185 0)
(0.986941 -0.00513551 0)
(0.982372 -0.00751004 0)
(0.997575 -0.000566373 0)
(1.00357 0.00684141 0)
(1.00858 -0.00727309 0)
(0.996431 -0.00956493 0)
(0.994771 -0.010462 0)
(0.99268 -0.0135477 0)
(0.977715 -0.0118171 0)
(0.97282 0.00168979 0)
(0.982384 0.0142461 0)
(0.989209 0.0172116 0)
(0.999111 0.0173037 0)
(0.997485 0.00936598 0)
(1.00356 0.0160936 0)
(1.00712 0.0013038 0)
(1.0042 0.00108075 0)
(1.00037 -0.0078203 0)
(0.99686 -0.00575057 0)
(0.991185 -0.0105137 0)
(0.987279 -0.00476056 0)
(0.98287 -0.00666411 0)
(0.997622 -0.00055767 0)
(1.00321 0.00666496 0)
(1.00857 -0.00709323 0)
(0.996699 -0.00948174 0)
(0.994685 -0.0103302 0)
(0.992688 -0.0133647 0)
(0.978169 -0.0112923 0)
(0.973121 0.00145127 0)
(0.981811 0.0139449 0)
(0.988468 0.0167192 0)
(0.998451 0.0169804 0)
(0.997217 0.00945894 0)
(1.00297 0.0153286 0)
(1.00651 0.00175296 0)
(1.00376 0.000979033 0)
(1.00006 -0.00699398 0)
(0.996785 -0.0054245 0)
(0.991329 -0.00954703 0)
(0.987664 -0.00440092 0)
(0.983406 -0.00586182 0)
(0.997719 -0.000543958 0)
(1.00278 0.00647939 0)
(1.00849 -0.00691354 0)
(0.996988 -0.00939439 0)
(0.994622 -0.0101874 0)
(0.992495 -0.0131817 0)
(0.97872 -0.0107714 0)
(0.973573 0.00125167 0)
(0.981447 0.0136172 0)
(0.988072 0.0162593 0)
(0.997839 0.0165775 0)
(0.997077 0.00959458 0)
(1.00253 0.0145493 0)
(1.00597 0.00215668 0)
(1.00341 0.000925774 0)
(0.999814 -0.00620604 0)
(0.996758 -0.00506099 0)
(0.991526 -0.00857807 0)
(0.988082 -0.00404582 0)
(0.983982 -0.00512113 0)
(0.997834 -0.000525337 0)
(1.00236 0.0062865 0)
(1.0083 -0.00673296 0)
(0.997293 -0.00930826 0)
(0.994609 -0.0100266 0)
(0.992192 -0.0130005 0)
(0.979284 -0.0102571 0)
(0.974151 0.00107965 0)
(0.98125 0.0132596 0)
(0.987953 0.0158449 0)
(0.997278 0.0161283 0)
(0.997027 0.00970708 0)
(1.00217 0.0138018 0)
(1.00548 0.00250984 0)
(1.0031 0.000919818 0)
(0.999626 -0.00547198 0)
(0.99677 -0.00472191 0)
(0.991769 -0.00762231 0)
(0.988511 -0.00360979 0)
(0.984586 -0.00439896 0)
(0.997956 -0.000501044 0)
(1.002 0.00608398 0)
(1.008 -0.00654727 0)
(0.997588 -0.00922858 0)
(0.994655 -0.00984482 0)
(0.991849 -0.0128244 0)
(0.97981 -0.00974593 0)
(0.97482 0.000940609 0)
(0.981178 0.0128654 0)
(0.988035 0.015436 0)
(0.996769 0.0156821 0)
(0.997041 0.00979609 0)
(1.00185 0.013091 0)
(1.00504 0.00281499 0)
(1.00282 0.000983767 0)
(0.999483 -0.0047097 0)
(0.996807 -0.00436568 0)
(0.992078 -0.00683743 0)
(0.988966 -0.00315437 0)
(0.985211 -0.00365363 0)
(0.998078 -0.000472263 0)
(1.00171 0.00587723 0)
(1.0076 -0.00636714 0)
(0.997844 -0.00914422 0)
(0.994746 -0.00965465 0)
(0.991524 -0.01263 0)
(0.98028 -0.00928119 0)
(0.975543 0.000876024 0)
(0.981196 0.0124254 0)
(0.988241 0.0150745 0)
(0.996318 0.0151384 0)
(0.997098 0.00992075 0)
(1.00155 0.0124159 0)
(1.00466 0.0030713 0)
(1.00256 0.000983115 0)
(0.999383 -0.00393734 0)
(0.996831 -0.00390465 0)
(0.992401 -0.00601226 0)
(0.98942 -0.00281388 0)
(0.985819 -0.00300573 0)
(0.998198 -0.000441199 0)
(1.00153 0.00566915 0)
(1.00713 -0.0061848 0)
(0.998042 -0.00906505 0)
(0.994855 -0.00945529 0)
(0.991259 -0.0124091 0)
(0.980693 -0.00886362 0)
(0.976293 0.000865975 0)
(0.981279 0.0119123 0)
(0.988503 0.0147931 0)
(0.995926 0.0145757 0)
(0.997191 0.00995945 0)
(1.00126 0.011766 0)
(1.00432 0.00338562 0)
(1.00232 0.000998493 0)
(0.999334 -0.00325533 0)
(0.996875 -0.00353585 0)
(0.992732 -0.00504062 0)
(0.989863 -0.00249824 0)
(0.986453 -0.00245412 0)
(0.998311 -0.000401347 0)
(1.00144 0.005445 0)
(1.00663 -0.00598374 0)
(0.998172 -0.00901418 0)
(0.994948 -0.00921264 0)
(0.991082 -0.0122224 0)
(0.981056 -0.00842701 0)
(0.977054 0.000859501 0)
(0.981419 0.0114292 0)
(0.988783 0.0143939 0)
(0.995587 0.0141361 0)
(0.997296 0.00992431 0)
(1.001 0.0111965 0)
(1.00402 0.00350524 0)
(1.00208 0.00122509 0)
(0.999291 -0.00265739 0)
(0.996943 -0.00309302 0)
(0.993119 -0.00443187 0)
(0.990333 -0.00194394 0)
(0.987119 -0.00173691 0)
(0.998413 -0.000371157 0)
(1.00145 0.00524683 0)
(1.00612 -0.00581602 0)
(0.998238 -0.00891148 0)
(0.995 -0.00903054 0)
(0.990995 -0.0119199 0)
(0.981393 -0.00813661 0)
(0.977808 0.000967208 0)
(0.981623 0.0108768 0)
(0.989051 0.0140986 0)
(0.995309 0.0135478 0)
(0.9974 0.00988937 0)
(1.00074 0.0108073 0)
(1.00375 0.00355782 0)
(1.00185 0.00130849 0)
(0.999272 -0.00203098 0)
(0.99696 -0.00261203 0)
(0.993468 -0.00372082 0)
(0.990778 -0.00157759 0)
(0.987673 -0.00116215 0)
(0.9985 -0.000331294 0)
(1.00152 0.00501722 0)
(1.00566 -0.00559769 0)
(0.998252 -0.00886706 0)
(0.994997 -0.00878203 0)
(0.990983 -0.0116716 0)
(0.981729 -0.00779453 0)
(0.978537 0.000986616 0)
(0.981907 0.0104029 0)
(0.989292 0.0137018 0)
(0.995084 0.0131581 0)
(0.99751 0.00962383 0)
(1.00048 0.0104687 0)
(1.00347 0.00366439 0)
(1.00164 0.00148568 0)
(0.999261 -0.00165669 0)
(0.997027 -0.00205926 0)
(0.993842 -0.00316695 0)
(0.991241 -0.000901455 0)
(0.988327 -0.000500487 0)
(0.998568 -0.000282123 0)
(1.00165 0.00477478 0)
(1.00524 -0.0053742 0)
(0.998237 -0.00883364 0)
(0.994933 -0.00852557 0)
(0.991028 -0.0114212 0)
(0.98208 -0.00745923 0)
(0.97923 0.00107023 0)
(0.982274 0.00987756 0)
(0.989514 0.0132991 0)
(0.994909 0.0127685 0)
(0.997583 0.00949188 0)
(1.00025 0.00994418 0)
(1.0032 0.00372499 0)
(1.0014 0.00161024 0)
(0.999257 -0.00114071 0)
(0.997032 -0.00153286 0)
(0.994207 -0.00261982 0)
(0.99171 -0.000300677 0)
(0.988777 0.000195462 0)
(0.998615 -0.000264305 0)
(1.00181 0.00460432 0)
(1.00487 -0.00522731 0)
(0.998216 -0.00867135 0)
(0.994818 -0.00843989 0)
(0.991106 -0.010922 0)
(0.98246 -0.00739705 0)
(0.979872 0.00139384 0)
(0.982729 0.00914609 0)
(0.989714 0.0131818 0)
(0.994788 0.0119942 0)
(0.997625 0.00956222 0)
(1.00001 0.00938614 0)
(1.00291 0.00404472 0)
(1.00121 0.0015671 0)
(0.999234 -0.000176218 0)
(0.997044 -0.0012242 0)
(0.994519 -0.00137302 0)
(0.99213 -0.000823248 0)
(0.9893 0.0001975 0)
(0.99864 -0.000216553 0)
(1.00198 0.00433654 0)
(1.00457 -0.0049432 0)
(0.998212 -0.00867186 0)
(0.994659 -0.00814219 0)
(0.991204 -0.0106888 0)
(0.982864 -0.00708766 0)
(0.980482 0.00138206 0)
(0.983241 0.00882551 0)
(0.989892 0.0125119 0)
(0.994713 0.0118649 0)
(0.997642 0.00905753 0)
(0.999784 0.00921111 0)
(1.00261 0.0040361 0)
(1.00105 0.00185686 0)
(0.999213 2.82118e-05 0)
(0.997135 -0.000542447 0)
(0.994748 -0.0011003 0)
(0.99247 0.000204528 0)
(0.989979 0.000958991 0)
(0.998654 -0.00017125 0)
(1.00212 0.00409195 0)
(1.00431 -0.00470981 0)
(0.998223 -0.00860893 0)
(0.99449 -0.00792397 0)
(0.991292 -0.0103435 0)
(0.983304 -0.00685572 0)
(0.981045 0.00144398 0)
(0.983793 0.00838178 0)
(0.99008 0.0119625 0)
(0.994642 0.0116289 0)
(0.997628 0.00871933 0)
(0.999578 0.00897575 0)
(1.00228 0.00398523 0)
(1.00082 0.0020596 0)
(0.999196 0.000245609 0)
(0.997085 -1.64261e-05 0)
(0.99508 -0.000867732 0)
(0.992936 0.00115064 0)
(0.990262 0.00171669 0)
(0.998662 -0.000155904 0)
(1.00223 0.00392333 0)
(1.0041 -0.0045755 0)
(0.998247 -0.00835177 0)
(0.994334 -0.00794369 0)
(0.991361 -0.00969424 0)
(0.983787 -0.00695165 0)
(0.981557 0.0018705 0)
(0.984377 0.00763674 0)
(0.990255 0.0118659 0)
(0.994602 0.010745 0)
(0.997604 0.00898453 0)
(0.999353 0.00821367 0)
(1.00195 0.00460856 0)
(1.00065 0.00223578 0)
(0.999151 0.00132923 0)
(0.997103 0.000304757 0)
(0.995308 0.000286208 0)
(0.993295 -0.000137251 0)
(0.990719 0.00118367 0)
(0.998664 -0.000110028 0)
(1.00231 0.00363637 0)
(1.00391 -0.00425307 0)
(0.998295 -0.00834367 0)
(0.994193 -0.0076516 0)
(0.99143 -0.0094528 0)
(0.984284 -0.00661709 0)
(0.982054 0.00174646 0)
(0.984943 0.00744504 0)
(0.990431 0.0109985 0)
(0.994591 0.0108092 0)
(0.99754 0.00835627 0)
(0.99917 0.0082618 0)
(1.00167 0.00439967 0)
(1.0005 0.00243369 0)
(0.999114 0.00133391 0)
(0.997145 0.000807452 0)
(0.995321 0.000606948 0)
(0.993538 0.000987602 0)
(0.991405 0.00211706 0)
(0.998674 -5.44942e-05 0)
(1.00235 0.00336634 0)
(1.00374 -0.00402214 0)
(0.998347 -0.00821293 0)
(0.994093 -0.00748553 0)
(0.991485 -0.0090594 0)
(0.984791 -0.00642403 0)
(0.982551 0.00168362 0)
(0.985484 0.00725823 0)
(0.990642 0.0102592 0)
(0.994548 0.0106279 0)
(0.997494 0.00794515 0)
(0.998971 0.00811237 0)
(1.0013 0.00425076 0)
(1.00031 0.00259549 0)
(0.999086 0.00143579 0)
(0.997164 0.00116388 0)
(0.995646 0.000958785 0)
(0.99399 0.0023116 0)
(0.991618 0.00304446 0)
(0.998693 -6.05505e-05 0)
(1.00234 0.00322457 0)
(1.00357 -0.00394923 0)
(0.998385 -0.00782471 0)
(0.99405 -0.00761158 0)
(0.991528 -0.00832026 0)
(0.98532 -0.00657864 0)
(0.983048 0.00213004 0)
(0.986008 0.00646388 0)
(0.990827 0.0103607 0)
(0.994538 0.0095095 0)
(0.997424 0.00835287 0)
(0.998811 0.00740059 0)
(1.00102 0.00506021 0)
(1.00018 0.00267548 0)
(0.999036 0.00251345 0)
(0.997191 0.00147024 0)
(0.995807 0.00207512 0)
(0.994269 0.000937089 0)
(0.992006 0.00197396 0)
(0.998706 2.03296e-05 0)
(1.00233 0.00288497 0)
(1.00339 -0.00359647 0)
(0.998442 -0.0077978 0)
(0.994025 -0.0072866 0)
(0.991607 -0.00814643 0)
(0.985845 -0.00613611 0)
(0.983545 0.00183556 0)
(0.986494 0.00642987 0)
(0.991024 0.00943185 0)
(0.99454 0.00959764 0)
(0.997393 0.0077865 0)
(0.998661 0.0074169 0)
(1.00073 0.00481495 0)
(1.00008 0.00296295 0)
(0.999059 0.00239572 0)
(0.997359 0.00193217 0)
(0.995802 0.00213214 0)
(0.99434 0.00213644 0)
(0.992609 0.00316186 0)
(0.998731 4.40782e-05 0)
(1.0023 0.00266398 0)
(1.00321 -0.00345068 0)
(0.998485 -0.00749778 0)
(0.994041 -0.00722627 0)
(0.991704 -0.00770654 0)
(0.986334 -0.0059183 0)
(0.984097 0.00159193 0)
(0.986944 0.00645984 0)
(0.991245 0.00863905 0)
(0.994531 0.00948895 0)
(0.997311 0.00738777 0)
(0.998534 0.00727107 0)
(1.00048 0.00450224 0)
(0.999932 0.00303715 0)
(0.99904 0.002339 0)
(0.997368 0.00230497 0)
(0.996135 0.00248066 0)
(0.994894 0.00357467 0)
(0.992796 0.00410614 0)
(0.998774 5.46341e-05 0)
(1.00223 0.00248784 0)
(1.00304 -0.00339439 0)
(0.998492 -0.00705822 0)
(0.994108 -0.007315 0)
(0.991805 -0.00708914 0)
(0.986833 -0.00589106 0)
(0.984647 0.00176263 0)
(0.9874 0.00590574 0)
(0.99144 0.00859422 0)
(0.994547 0.00874153 0)
(0.99728 0.00762863 0)
(0.99841 0.00691042 0)
(1.00021 0.00493729 0)
(0.999866 0.00302788 0)
(0.999109 0.00303274 0)
(0.997578 0.00254651 0)
(0.996353 0.00341694 0)
(0.995014 0.00302414 0)
(0.993023 0.00330846 0)
(0.998812 0.000147903 0)
(1.00218 0.00214107 0)
(1.00286 -0.00308634 0)
(0.998505 -0.00693734 0)
(0.99418 -0.0069966 0)
(0.99194 -0.00695176 0)
(0.987328 -0.00545892 0)
(0.985205 0.00159922 0)
(0.98782 0.00573129 0)
(0.991658 0.00796625 0)
(0.994601 0.00863606 0)
(0.99723 0.00744922 0)
(0.9983 0.00675597 0)
(0.999989 0.00507919 0)
(0.999812 0.00331181 0)
(0.999171 0.00312433 0)
(0.997764 0.00284334 0)
(0.996543 0.00306278 0)
(0.995187 0.00313417 0)
(0.993345 0.00364139 0)
(0.99885 0.000137078 0)
(1.00213 0.00199788 0)
(1.00268 -0.00307865 0)
(0.998512 -0.00646605 0)
(0.99427 -0.00704509 0)
(0.992096 -0.00642281 0)
(0.987804 -0.00528205 0)
(0.985782 0.00147087 0)
(0.988233 0.00549903 0)
(0.991891 0.00775822 0)
(0.994661 0.00821088 0)
(0.997187 0.007247 0)
(0.998231 0.00673505 0)
(0.999789 0.00517407 0)
(0.999732 0.00335494 0)
(0.999264 0.00334416 0)
(0.997862 0.00299268 0)
(0.996748 0.00331531 0)
(0.995558 0.00344777 0)
(0.993671 0.00364032 0)
(0.998889 0.000191619 0)
(1.00207 0.00174791 0)
(1.00251 -0.00294703 0)
(0.998506 -0.00613111 0)
(0.994378 -0.00687321 0)
(0.992273 -0.00615346 0)
(0.988255 -0.00499044 0)
(0.986371 0.0014455 0)
(0.988675 0.00528548 0)
(0.992105 0.00734428 0)
(0.994715 0.00789688 0)
(0.997201 0.00722197 0)
(0.998168 0.00654548 0)
(0.999566 0.00518305 0)
(0.999714 0.0035725 0)
(0.999361 0.00350049 0)
(0.998086 0.00321006 0)
(0.99701 0.00352808 0)
(0.995647 0.00356184 0)
(0.993882 0.00362171 0)
(0.998926 0.000242347 0)
(1.00203 0.00149875 0)
(1.00235 -0.00279927 0)
(0.998509 -0.00584928 0)
(0.994481 -0.00662302 0)
(0.992462 -0.00597313 0)
(0.988728 -0.00458652 0)
(0.986957 0.00127384 0)
(0.989068 0.00511337 0)
(0.992354 0.00693271 0)
(0.994846 0.00776612 0)
(0.997178 0.00697449 0)
(0.998107 0.00634456 0)
(0.99944 0.00530008 0)
(0.999665 0.00386394 0)
(0.999465 0.0034336 0)
(0.99821 0.00350017 0)
(0.997195 0.0034841 0)
(0.995963 0.00370452 0)
(0.994185 0.00376547 0)
(0.998967 0.000241949 0)
(1.00198 0.001357 0)
(1.0022 -0.00281973 0)
(0.998495 -0.00538152 0)
(0.994606 -0.00656827 0)
(0.992671 -0.00554958 0)
(0.989166 -0.00438035 0)
(0.987541 0.00118429 0)
(0.98952 0.00491533 0)
(0.992604 0.00683873 0)
(0.994926 0.00729477 0)
(0.997186 0.00675535 0)
(0.998116 0.0062957 0)
(0.999307 0.00539877 0)
(0.999596 0.00389159 0)
(0.999586 0.00356606 0)
(0.998451 0.00359272 0)
(0.997438 0.00389294 0)
(0.996128 0.00385139 0)
(0.994385 0.00370784 0)
(0.999003 0.000311636 0)
(1.00193 0.00108535 0)
(1.00207 -0.00264912 0)
(0.998494 -0.00517789 0)
(0.994725 -0.00613445 0)
(0.992882 -0.00550173 0)
(0.989621 -0.00403107 0)
(0.988135 0.00119253 0)
(0.989943 0.00478328 0)
(0.992839 0.00635023 0)
(0.995054 0.00705578 0)
(0.997241 0.00667183 0)
(0.998117 0.00616611 0)
(0.999189 0.00529583 0)
(0.999558 0.00413933 0)
(0.999714 0.00365027 0)
(0.998679 0.00382045 0)
(0.997644 0.00377512 0)
(0.996284 0.00384483 0)
(0.994612 0.00384649 0)
(0.99904 0.000315733 0)
(1.00189 0.000946569 0)
(1.00194 -0.00263601 0)
(0.998494 -0.00479841 0)
(0.994845 -0.00596721 0)
(0.993108 -0.00516421 0)
(0.990079 -0.0036977 0)
(0.988714 0.001014 0)
(0.990364 0.00454239 0)
(0.99311 0.00621659 0)
(0.995207 0.00687668 0)
(0.997272 0.00638587 0)
(0.998125 0.00596708 0)
(0.999139 0.00528636 0)
(0.999523 0.00434272 0)
(0.999842 0.00373031 0)
(0.998859 0.00383454 0)
(0.997827 0.00387727 0)
(0.996564 0.0040838 0)
(0.994861 0.00398308 0)
(0.999079 0.000352829 0)
(1.00184 0.000752464 0)
(1.00183 -0.00256571 0)
(0.998489 -0.00455555 0)
(0.994977 -0.00557916 0)
(0.99335 -0.00493049 0)
(0.990512 -0.00351304 0)
(0.989292 0.00103357 0)
(0.990834 0.00443514 0)
(0.993379 0.00595138 0)
(0.995319 0.00649148 0)
(0.997332 0.00619337 0)
(0.998187 0.0058976 0)
(0.999107 0.00531002 0)
(0.999499 0.00451054 0)
(0.999923 0.00381049 0)
(0.999112 0.00386491 0)
(0.998134 0.00402931 0)
(0.996736 0.0040998 0)
(0.994998 0.00399035 0)
(0.999115 0.000379916 0)
(1.0018 0.000583428 0)
(1.00173 -0.00250759 0)
(0.998507 -0.00428417 0)
(0.995101 -0.0052508 0)
(0.993572 -0.00471403 0)
(0.990986 -0.0031873 0)
(0.989886 0.000995261 0)
(0.99125 0.00418087 0)
(0.993634 0.00568191 0)
(0.995503 0.00633058 0)
(0.997428 0.00605327 0)
(0.998242 0.00574676 0)
(0.999112 0.0052108 0)
(0.999471 0.00457719 0)
(1.00002 0.00388013 0)
(0.999329 0.00392447 0)
(0.998312 0.00406189 0)
(0.996967 0.00415879 0)
(0.995247 0.00413105 0)
(0.999153 0.00039097 0)
(1.00176 0.000452525 0)
(1.00165 -0.00248881 0)
(0.998515 -0.00401565 0)
(0.995233 -0.00494995 0)
(0.993837 -0.0043726 0)
(0.991421 -0.00295636 0)
(0.99044 0.000924888 0)
(0.99173 0.00401923 0)
(0.993947 0.00554113 0)
(0.995646 0.0060949 0)
(0.997492 0.00579372 0)
(0.998317 0.00558602 0)
(0.999133 0.00514313 0)
(0.999487 0.00465976 0)
(1.0001 0.00405472 0)
(0.999585 0.00397462 0)
(0.998639 0.00416315 0)
(0.9972 0.00422859 0)
(0.995386 0.00418471 0)
(0.999188 0.000419166 0)
(1.00172 0.000304337 0)
(1.00157 -0.00244008 0)
(0.998552 -0.00381478 0)
(0.995367 -0.00455536 0)
(0.994067 -0.00411628 0)
(0.991884 -0.00273016 0)
(0.991034 0.000966863 0)
(0.99217 0.00385683 0)
(0.994211 0.00523554 0)
(0.995824 0.00585122 0)
(0.997615 0.00564006 0)
(0.99842 0.00548958 0)
(0.999203 0.00510617 0)
(0.999525 0.00473759 0)
(1.00018 0.00416295 0)
(0.999786 0.00399863 0)
(0.99883 0.00413305 0)
(0.997417 0.00418875 0)
(0.995612 0.00424949 0)
(0.999226 0.000418798 0)
(1.00167 0.000219418 0)
(1.00151 -0.00244378 0)
(0.998584 -0.00355458 0)
(0.995503 -0.00429164 0)
(0.994335 -0.00377552 0)
(0.992326 -0.00244113 0)
(0.991578 0.000921706 0)
(0.992637 0.00361899 0)
(0.994541 0.00505169 0)
(0.996007 0.00570873 0)
(0.997712 0.00547732 0)
(0.998525 0.00530793 0)
(0.999271 0.00501902 0)
(0.999578 0.00471199 0)
(1.00024 0.00425328 0)
(1 0.00399864 0)
(0.99915 0.00417098 0)
(0.997712 0.00426587 0)
(0.995799 0.00433592 0)
(0.999261 0.000435252 0)
(1.00163 0.000119571 0)
(1.00145 -0.00241886 0)
(0.998642 -0.00338844 0)
(0.995649 -0.00392628 0)
(0.994579 -0.00347321 0)
(0.992775 -0.0022056 0)
(0.992147 0.000956112 0)
(0.993092 0.00349841 0)
(0.994841 0.00481397 0)
(0.996201 0.00546841 0)
(0.997834 0.00529935 0)
(0.998653 0.00515385 0)
(0.999386 0.0049677 0)
(0.999672 0.00474481 0)
(1.00032 0.0043553 0)
(1.00019 0.00406018 0)
(0.999383 0.00419051 0)
(0.997961 0.00422019 0)
(0.996005 0.00432174 0)
(0.999298 0.000427389 0)
(1.00159 7.84299e-05 0)
(1.0014 -0.00245613 0)
(0.998703 -0.00315063 0)
(0.995799 -0.00369136 0)
(0.994848 -0.00311452 0)
(0.993212 -0.00191471 0)
(0.992678 0.000975299 0)
(0.99355 0.00330537 0)
(0.995178 0.00459821 0)
(0.99641 0.00528394 0)
(0.997955 0.00519031 0)
(0.998795 0.00501412 0)
(0.99951 0.00489745 0)
(0.999773 0.00469198 0)
(1.00039 0.00441247 0)
(1.00038 0.00407119 0)
(0.999667 0.0042068 0)
(0.998253 0.00421712 0)
(0.996228 0.00435174 0)
(0.999332 0.000433804 0)
(1.00154 2.3264e-05 0)
(1.00135 -0.00244005 0)
(0.998783 -0.00302404 0)
(0.99596 -0.00337628 0)
(0.99511 -0.00281165 0)
(0.993645 -0.00163584 0)
(0.993215 0.0010267 0)
(0.993998 0.00318532 0)
(0.995501 0.00436862 0)
(0.996638 0.00506828 0)
(0.998091 0.00506578 0)
(0.99894 0.00486425 0)
(0.999654 0.00478667 0)
(0.999912 0.00466386 0)
(1.0005 0.00447684 0)
(1.00056 0.0041391 0)
(0.9999 0.00420774 0)
(0.998521 0.00417871 0)
(0.996455 0.0043166 0)
(0.999366 0.00041551 0)
(1.00149 2.85004e-05 0)
(1.00131 -0.00248895 0)
(0.998872 -0.00281562 0)
(0.996131 -0.00317608 0)
(0.995385 -0.00247144 0)
(0.994071 -0.00131992 0)
(0.99372 0.00110063 0)
(0.994439 0.00304701 0)
(0.995847 0.00419101 0)
(0.996887 0.00485868 0)
(0.998233 0.00494855 0)
(0.99909 0.00473969 0)
(0.999818 0.00470325 0)
(1.00007 0.00461833 0)
(1.00059 0.00450618 0)
(1.00072 0.00414984 0)
(1.00013 0.00419999 0)
(0.998798 0.00416032 0)
(0.996696 0.00428411 0)
(0.999399 0.000402884 0)
(1.00144 2.45413e-05 0)
(1.00127 -0.00248952 0)
(0.998973 -0.00268146 0)
(0.996307 -0.00291677 0)
(0.995663 -0.00213118 0)
(0.994487 -0.00106462 0)
(0.994224 0.00116531 0)
(0.994879 0.00295309 0)
(0.996184 0.00401502 0)
(0.997148 0.00462435 0)
(0.998396 0.00482961 0)
(0.999248 0.00463823 0)
(0.999987 0.00460556 0)
(1.00025 0.00454546 0)
(1.00071 0.00450757 0)
(1.00087 0.00419453 0)
(1.00035 0.00420079 0)
(0.999048 0.00414886 0)
(0.996928 0.00423108 0)
(0.999429 0.000389318 0)
(1.00138 3.59156e-05 0)
(1.00123 -0.00246227 0)
(0.999081 -0.00259789 0)
(0.996498 -0.00260189 0)
(0.995944 -0.00183599 0)
(0.994895 -0.000844443 0)
(0.994705 0.00120342 0)
(0.995303 0.00282349 0)
(0.996522 0.00386066 0)