/*--------------------------------*- C++ -*----------------------------------*\
| =========                 |                                                 |
| \\      /  F ield         | OpenFOAM: The Open Source CFD Toolbox           |
|  \\    /   O peration     | Version:  v2012                                 |
|   \\  /    A nd           | Website:  www.openfoam.com                      |
|    \\/     M anipulation  |                                                 |
\*---------------------------------------------------------------------------*/
FoamFile
{
    version     2.0;
    format      ascii;
    class       volScalarField;
    location    "3.2";
    object      p;
}
// * * * * * * * * * * * * * * * * * * * * * * * * * * * * * * * * * * * * * //

dimensions      [0 2 -2 0 0 0 0];


internalField   nonuniform List<scalar> 
7000
(
-2.7706e-10
0.00146115
-0.00133758
0.0020299
-0.00190554
0.000422447
0.00156853
0.00127141
0.00120831
0.00222208
0.00215333
0.00297676
0.0041698
0.00536085
0.00667212
0.00908553
0.0107503
0.0147947
0.0181447
0.0243055
1.28699e-06
0.00145165
-0.00132238
0.00195982
-0.00190346
0.00044929
0.00151679
0.00128003
0.00120434
0.00221783
0.00215192
0.00296963
0.00417077
0.00534815
0.00668323
0.00906333
0.0107989
0.0147486
0.0181733
0.0240345
2.40376e-06
0.00143891
-0.00130312
0.00190651
-0.00189669
0.000473297
0.00148112
0.00129642
0.00119546
0.00221069
0.00214838
0.00295943
0.00416988
0.0053324
0.00668834
0.00903403
0.0108281
0.0146844
0.018184
0.0235864
3.00729e-06
0.00142443
-0.00128812
0.00185876
-0.00188541
0.000487264
0.0014446
0.00130825
0.00118403
0.0022022
0.00214395
0.00294913
0.00416758
0.0053146
0.00669003
0.00900015
0.0108484
0.0146151
0.0181561
0.0231222
3.25936e-06
0.00140754
-0.0012764
0.00181792
-0.00186896
0.000491095
0.00140669
0.00131294
0.00117113
0.00219169
0.00213926
0.00293734
0.00416705
0.0052935
0.00669513
0.00895923
0.0108722
0.0145348
0.0180956
0.0226766
3.20889e-06
0.0013881
-0.00126599
0.00178484
-0.00184736
0.000485871
0.00136817
0.00131236
0.00115696
0.00217927
0.00213457
0.00292311
0.00416945
0.0052686
0.00670356
0.00891144
0.0108993
0.0144408
0.0180108
0.0222501
2.88687e-06
0.0013664
-0.00125598
0.00175852
-0.0018218
0.000473459
0.00132998
0.00130895
0.00114187
0.00216601
0.00213037
0.00290605
0.00417482
0.00523956
0.00671443
0.00885803
0.0109258
0.0143352
0.017903
0.0218356
2.3508e-06
0.00134273
-0.00124594
0.00173678
-0.00179393
0.000456554
0.00129295
0.00130455
0.00112646
0.00215254
0.00212699
0.0028859
0.0041832
0.0052065
0.00672749
0.00879958
0.01095
0.0142209
0.0177709
0.0214278
1.6539e-06
0.00131737
-0.00123562
0.00171737
-0.00176498
0.000437364
0.00125734
0.0013004
0.00111111
0.00213861
0.00212464
0.00286261
0.00419453
0.00516979
0.00674214
0.00873638
0.0109641
0.0141002
0.0176131
0.0210229
8.29326e-07
0.00129052
-0.00122485
0.00169859
-0.00173552
0.000417076
0.00122285
0.00129702
0.00109584
0.0021236
0.00212364
0.00283621
0.00420848
0.00512965
0.00675722
0.00866918
0.0109686
0.013974
0.0174291
0.0206185
-1.08177e-07
0.00126233
-0.00121353
0.00167941
-0.00170565
0.000396138
0.0011891
0.00129437
0.00108061
0.00210703
0.00212433
0.00280661
0.00422451
0.00508611
0.00677123
0.0085991
0.0109615
0.0138428
0.0172194
0.0202122
-1.15564e-06
0.00123288
-0.00120162
0.00165928
-0.00167531
0.000374578
0.00115574
0.00129205
0.00106549
0.00208851
0.00212687
0.00277366
0.00424192
0.00503936
0.00678263
0.00852721
0.0109404
0.0137064
0.0169849
0.0198022
-2.31406e-06
0.00120221
-0.00118904
0.00163793
-0.00164428
0.000352313
0.00112245
0.0012896
0.0010507
0.00206764
0.00213127
0.00273719
0.00425992
0.00498994
0.00678971
0.00845486
0.0109034
0.0135642
0.0167164
0.0193868
-3.58215e-06
0.00117036
-0.00117577
0.00161516
-0.0016123
0.000329282
0.00108889
0.00128658
0.00103648
0.00204392
0.00213754
0.00269714
0.00427763
0.00493867
0.00679055
0.00838331
0.0108492
0.0134157
0.0164417
0.0189638
-4.95413e-06
0.00113736
-0.00116174
0.0015908
-0.00157902
0.000305489
0.00105483
0.00128263
0.00102307
0.00201682
0.00214565
0.00265369
0.0042942
0.00488653
0.00678323
0.00831321
0.0107771
0.01326
0.0161513
0.0185323
-6.42218e-06
0.00110325
-0.00114692
0.00156462
-0.00154413
0.000281023
0.0010201
0.00127739
0.00101073
0.00198587
0.0021555
0.00260723
0.00430862
0.00483487
0.00676603
0.00824468
0.0106868
0.0130952
0.0158454
0.0180916
-7.98207e-06
0.00106807
-0.00113122
0.00153636
-0.00150736
0.000256014
0.000984621
0.00127055
0.000999672
0.00195073
0.00216687
0.0025582
0.00431962
0.00478511
0.00673759
0.00817746
0.0105788
0.0129198
0.0155253
0.0176414
-9.63907e-06
0.00103183
-0.0011146
0.00150578
-0.00146858
0.000230578
0.000948406
0.00126181
0.000990145
0.00191116
0.00217938
0.00250741
0.00432599
0.0047383
0.00669673
0.00811092
0.0104536
0.0127314
0.0151925
0.0171821
-1.14107e-05
0.000994513
-0.00109697
0.00147267
-0.00142781
0.000204768
0.000911501
0.00125085
0.000982352
0.00186708
0.00219253
0.00245614
0.00432633
0.00469496
0.00664257
0.00804401
0.0103124
0.0125277
0.0148479
0.0167143
-1.33253e-05
0.000956056
-0.00107828
0.00143692
-0.00138518
0.000178566
0.000873962
0.00123734
0.000976438
0.00181856
0.00220555
0.00240573
0.00431928
0.0046553
0.00657446
0.00797479
0.0101571
0.0123078
0.0144918
0.016239
-1.54164e-05
0.000916389
-0.00105847
0.00139847
-0.00134091
0.000151891
0.000835828
0.00122101
0.000972416
0.00176586
0.00221738
0.00235741
0.00430367
0.00461932
0.00649263
0.00790049
0.00998898
0.0120713
0.0141256
0.015757
-1.77173e-05
0.000875439
-0.00103752
0.00135733
-0.00129521
0.000124651
0.000797109
0.00120157
0.000970189
0.00170953
0.0022268
0.00231242
0.00427833
0.00458652
0.00639862
0.00781881
0.00980733
0.0118171
0.013751
0.0152702
-2.02554e-05
0.00083315
-0.00101538
0.00131356
-0.0012483
9.68023e-05
0.000757789
0.00117878
0.000969557
0.00165049
0.00223239
0.00227168
0.00424261
0.00455553
0.00629327
0.00772833
0.00961149
0.0115441
0.0133675
0.0147803
-2.30499e-05
0.000789492
-0.000992046
0.00126723
-0.00120036
6.83278e-05
0.000717851
0.00115256
0.000970018
0.00158972
0.00223284
0.00223552
0.00419658
0.00452515
0.00617636
0.00762602
0.0094053
0.0112535
0.012974
0.014288
-2.61127e-05
0.00074446
-0.000967515
0.00121844
-0.0011516
3.92693e-05
0.000677221
0.00112307
0.00097083
0.00152822
0.00222721
0.00220372
0.0041399
0.0044944
0.00604967
0.0075092
0.00919232
0.0109466
0.0125708
0.0137948
-2.94493e-05
0.000698064
-0.0009418
0.0011673
-0.00110224
9.82352e-06
0.000635677
0.00109052
0.000971359
0.00146694
0.00221432
0.00217652
0.00407304
0.00446017
0.00591398
0.00737825
0.00897232
0.0106243
0.0121556
0.0133007
-3.30553e-05
0.000650321
-0.000914946
0.00111396
-0.00105263
-1.97383e-05
0.000592994
0.00105526
0.000970744
0.00140701
0.00219317
0.00215274
0.00399862
0.00441807
0.00576716
0.00722939
0.0087464
0.0102928
0.0117317
0.0128033
-3.69248e-05
0.000601265
-0.000887029
0.00105854
-0.00100313
-4.91218e-05
0.000548805
0.00101799
0.000968055
0.00134891
0.00216436
0.00213008
0.00391559
0.00437059
0.00561217
0.00706236
0.00850719
0.00994894
0.0113014
0.0123085
-4.10525e-05
0.000550899
-0.000858112
0.00100118
-0.000954297
-7.77976e-05
0.000502733
0.00097888
0.000963007
0.00129289
0.00212711
0.00210927
0.00382386
0.00431324
0.00544966
0.00688329
0.00827138
0.00957454
0.0108516
0.0118122
-4.54205e-05
0.000499221
-0.000828351
0.000942181
-0.000906745
-0.000105195
0.00045416
0.00093877
0.000953866
0.00124039
0.00208149
0.00208652
0.00372641
0.00424803
0.00527053
0.00669719
0.00802581
0.00923361
0.0104121
0.0113068
-4.99939e-05
0.00044627
-0.000797929
0.000881672
-0.000860972
-0.000130721
0.000402405
0.000898116
0.000940773
0.00118898
0.00203167
0.002059
0.00361952
0.00417708
0.00508394
0.00646508
0.00776375
0.00888439
0.0099833
0.0107949
-5.48413e-05
0.000392082
-0.000767018
0.000819927
-0.000817947
-0.000153477
0.000347184
0.000856326
0.000924831
0.001137
0.00197742
0.00202828
0.00350646
0.00409318
0.00489728
0.0062407
0.0075117
0.00851621
0.00946994
0.010285
-5.99583e-05
0.000336607
-0.000735904
0.00075744
-0.000778248
-0.000173642
0.000288834
0.000813829
0.000904504
0.00108646
0.00191881
0.00198737
0.00339342
0.00400088
0.00470451
0.00596421
0.00718564
0.00813579
0.00906239
0.00980484
-6.51563e-05
0.000279748
-0.000704675
0.000694139
-0.0007422
-0.000191199
0.000227464
0.000769533
0.000882832
0.00103133
0.00186178
0.00193696
0.00327097
0.00390525
0.00451313
0.00568539
0.00686554
0.0077395
0.00852957
0.00932447
-7.07523e-05
0.000221835
-0.000673824
0.000630773
-0.000711107
-0.000204027
0.000160735
0.000724519
0.000858211
0.000973186
0.00180295
0.0018856
0.00313353
0.00380134
0.00430538
0.00535744
0.0065319
0.00737136
0.0080774
0.00883834
-7.67787e-05
0.00016285
-0.000643888
0.000568473
-0.000685612
-0.000212602
8.96906e-05
0.000678015
0.000829526
0.000915879
0.00173708
0.00183227
0.00298404
0.00367086
0.00408033
0.00502852
0.00616999
0.00702464
0.00774429
0.00836155
-8.2727e-05
0.000102288
-0.000614528
0.000506172
-0.000664968
-0.000220067
1.87067e-05
0.000626447
0.000805392
0.000847152
0.00167414
0.00176913
0.00282006
0.00353675
0.00387649
0.00469643
0.0058006
0.00660559
0.00718516
0.00788839
-8.93211e-05
4.11993e-05
-0.000586893
0.000445536
-0.000650773
-0.000222212
-5.78358e-05
0.000571371
0.000781163
0.000774967
0.00160338
0.0017111
0.00264206
0.00336619
0.00364927
0.00436225
0.00541247
0.00620705
0.00676317
0.00743297
-9.66327e-05
-2.0305e-05
-0.00056189
0.000388145
-0.00064373
-0.000218984
-0.000139428
0.000511419
0.00075575
0.000703635
0.00151907
0.00165748
0.00245098
0.00314065
0.00341027
0.00403582
0.00500113
0.00583911
0.00650556
0.00699233
-0.000103645
-8.34499e-05
-0.000538608
0.000331495
-0.000641464
-0.000219802
-0.000211094
0.000440785
0.000739517
0.000618699
0.00143509
0.00158777
0.00224525
0.00294991
0.0031852
0.00370106
0.00458849
0.00537125
0.00591358
0.00654055
-0.00011184
-0.000145986
-0.000519268
0.000278745
-0.000646128
-0.000215584
-0.000288631
0.000363535
0.000719486
0.000542087
0.00133006
0.00151972
0.00204191
0.00268886
0.00293895
0.00337065
0.00416505
0.00492127
0.00547648
0.0061152
-0.000120872
-0.000208173
-0.000504509
0.000230377
-0.000658024
-0.000206797
-0.000372282
0.000281348
0.000692075
0.000474375
0.00120409
0.0014472
0.00183139
0.00239446
0.00266947
0.0030453
0.00371608
0.00451093
0.00524812
0.0057068
-0.000129559
-0.000271554
-0.000493033
0.000183332
-0.000673337
-0.000210259
-0.000431999
0.000180182
0.000670848
0.000395471
0.00107048
0.00136106
0.00163286
0.00214241
0.00239818
0.00268975
0.00325707
0.00397468
0.00460635
0.00528909
-0.000140159
-0.000332894
-0.00048808
0.0001416
-0.000693258
-0.000214287
-0.000487925
6.64033e-05
0.000642951
0.000320001
0.000915165
0.00126635
0.00145652
0.00186563
0.00209911
0.00230642
0.00279448
0.00341229
0.00404944
0.00494693
-0.000151176
-0.000393516
-0.000489227
0.000103971
-0.000718163
-0.000218449
-0.000543424
-5.34043e-05
0.000602761
0.000245186
0.0007481
0.00116169
0.00127199
0.00157319
0.0017731
0.00192912
0.00233084
0.00288318
0.00360218
0.00459812
-0.000162727
-0.000453811
-0.000495929
6.86586e-05
-0.00074485
-0.000235803
-0.000592239
-0.000178645
0.000547213
0.000173162
0.000572727
0.0010328
0.00109023
0.00128149
0.0014268
0.00155731
0.00188786
0.00240645
0.00315051
0.00418753
-0.000176395
-0.0005116
-0.000509915
3.61277e-05
-0.000771774
-0.000258185
-0.0006348
-0.000307759
0.000472574
0.000106806
0.00038324
0.000883103
0.000919142
0.000982479
0.00107175
0.0011828
0.00146412
0.00194078
0.00267701
0.00376641
-0.000190439
-0.000568202
-0.000530618
5.50922e-06
-0.000798712
-0.000288708
-0.000673397
-0.000443923
0.000383665
3.73027e-05
0.000192551
0.000717137
0.000737037
0.000689144
0.000716
0.000796381
0.00103849
0.00148559
0.00221499
0.0033591
-0.000206316
-0.000622766
-0.00055772
-2.58173e-05
-0.000823485
-0.000327426
-0.000711689
-0.000583163
0.000276712
-3.04397e-05
9.06393e-07
0.000524701
0.000554
0.000406655
0.000348826
0.000393843
0.000621446
0.00105091
0.00177122
0.00295186
-0.000223718
-0.00067502
-0.000591665
-5.82188e-05
-0.000845676
-0.000374079
-0.000750164
-0.000723805
0.000151877
-0.000100055
-0.000190714
0.000313682
0.000361753
0.000126237
-1.98312e-05
-1.12484e-05
0.000204952
0.000616646
0.00134052
0.00255959
-0.000242237
-0.000725524
-0.00063118
-9.31671e-05
-0.000866437
-0.000426675
-0.000789092
-0.000866536
1.07748e-05
-0.000176931
-0.000377262
8.48959e-05
0.000153495
-0.000147001
-0.000380727
-0.000421557
-0.00022608
0.000191308
0.000934457
0.00217902
-0.000262883
-0.000773479
-0.000676154
-0.000132885
-0.000885774
-0.00048518
-0.000830537
-0.00100763
-0.00014767
-0.00025991
-0.000560383
-0.000160734
-6.52676e-05
-0.000417319
-0.000739245
-0.000839836
-0.00065611
-0.000222515
0.00053778
0.00179994
-0.000284937
-0.000819152
-0.000725957
-0.000177283
-0.000906157
-0.000548679
-0.000874253
-0.00114665
-0.000319644
-0.000355452
-0.00073799
-0.000416033
-0.00030562
-0.00068967
-0.0010887
-0.00125235
-0.00108687
-0.000645564
0.000139335
0.00143634
-0.000309044
-0.000862542
-0.000779554
-0.000228175
-0.000928367
-0.000616404
-0.000921784
-0.00128159
-0.000505425
-0.000464831
-0.000911274
-0.000683695
-0.000561756
-0.000960848
-0.00142723
-0.00165847
-0.00152377
-0.00107566
-0.000250408
0.0010828
-0.000335101
-0.000903278
-0.00083692
-0.000286142
-0.000953263
-0.000689147
-0.00097375
-0.00141197
-0.000702877
-0.000590401
-0.00108084
-0.000954593
-0.000833927
-0.00123907
-0.00175868
-0.00206054
-0.00196212
-0.00150811
-0.000648146
0.000731771
-0.000363306
-0.000941436
-0.000897133
-0.000351644
-0.000982699
-0.000766117
-0.00103044
-0.00153759
-0.000909559
-0.000732487
-0.00124817
-0.00122978
-0.00112328
-0.00152795
-0.00208424
-0.00244967
-0.00239497
-0.00194401
-0.00104978
0.000384774
-0.000393991
-0.00097689
-0.000959535
-0.000425077
-0.00101783
-0.000848383
-0.00109311
-0.00165838
-0.00112292
-0.000892186
-0.00141607
-0.00150637
-0.00142458
-0.00182475
-0.00240486
-0.00282745
-0.00282359
-0.00238004
-0.00145936
2.91386e-05
-0.000427299
-0.00100956
-0.00102332
-0.000506516
-0.00105984
-0.000937405
-0.00116283
-0.00177455
-0.00133939
-0.0010694
-0.0015857
-0.00178074
-0.0017365
-0.0021332
-0.00272863
-0.00319526
-0.00324206
-0.00281524
-0.00187913
-0.000329979
-0.000463325
-0.00103953
-0.00108761
-0.000596638
-0.00110961
-0.00103351
-0.00124238
-0.00188595
-0.00155657
-0.00126209
-0.00175927
-0.00205419
-0.00205723
-0.00245246
-0.00305581
-0.00355203
-0.0036485
-0.00324511
-0.00229892
-0.000693442
-0.00050191
-0.00106715
-0.00115144
-0.000694704
-0.00116806
-0.00113669
-0.00133427
-0.00199429
-0.00177133
-0.00146936
-0.00193857
-0.0023243
-0.0023843
-0.00277897
-0.00338943
-0.00390331
-0.00404196
-0.00366535
-0.00271673
-0.00106285
-0.000543759
-0.00109219
-0.00121411
-0.000800638
-0.00123451
-0.00125279
-0.00143664
-0.00210046
-0.00198316
-0.00168949
-0.00212579
-0.00259169
-0.00271557
-0.00311264
-0.00372947
-0.00425103
-0.00442469
-0.0040761
-0.00312626
-0.00142996
-0.000588327
-0.00111643
-0.00127416
-0.000914408
-0.00131928
-0.0013718
-0.00154526
-0.00220604
-0.0021925
-0.00192256
-0.00232259
-0.00285553
-0.00305041
-0.00345062
-0.0040731
-0.00460162
-0.00480099
-0.00447254
-0.00352044
-0.0017934
-0.000635506
-0.00114195
-0.00133481
-0.00103478
-0.00141122
-0.00149277
-0.0016598
-0.00231447
-0.00240112
-0.00216774
-0.00253044
-0.00311737
-0.00338722
-0.00379181
-0.00441981
-0.00495626
-0.00516976
-0.00485476
-0.00390177
-0.0021517
-0.000685606
-0.00116916
-0.00139973
-0.00115913
-0.00151069
-0.00161702
-0.00178225
-0.00242879
-0.00260967
-0.00242342
-0.00275048
-0.00337757
-0.00372438
-0.00413648
-0.00476637
-0.00531185
-0.00553462
-0.00522967
-0.00427247
-0.00250062
-0.000738657
-0.00119932
-0.00146134
-0.00128601
-0.00161801
-0.00174643
-0.00191334
-0.00254942
-0.00281743
-0.00268832
-0.00298345
-0.00363644
-0.00406051
-0.00448577
-0.00511167
-0.00566573
-0.00589792
-0.00559994
-0.0046326
-0.00283913
-0.000794746
-0.00123287
-0.00152321
-0.00141457
-0.00173317
-0.00188185
-0.00205306
-0.00267658
-0.00302432
-0.00296094
-0.00322949
-0.00389513
-0.00439406
-0.00483956
-0.00545549
-0.00601547
-0.00625947
-0.00596706
-0.0049866
-0.00317103
-0.000853916
-0.00127018
-0.0015855
-0.0015441
-0.00185588
-0.00202394
-0.00220188
-0.00281084
-0.00322971
-0.00323944
-0.00348885
-0.00415483
-0.00472313
-0.00519679
-0.00580014
-0.00636115
-0.00661691
-0.00633176
-0.00533999
-0.00349956
-0.000916119
-0.00131167
-0.00164867
-0.00167394
-0.00198589
-0.00217344
-0.00235988
-0.00295206
-0.00343316
-0.00352252
-0.00376165
-0.00441712
-0.00504704
-0.00555631
-0.00614816
-0.00670314
-0.00696704
-0.00669211
-0.00569326
-0.00382714
-0.000981318
-0.00135771
-0.00171322
-0.00180367
-0.00212263
-0.00233037
-0.0025269
-0.00310114
-0.00363509
-0.0038081
-0.0040478
-0.00468455
-0.00536506
-0.00591561
-0.0065002
-0.00704257
-0.00730894
-0.0070454
-0.00604528
-0.00415633
-0.00104942
-0.00140862
-0.00177982
-0.00193298
-0.00226529
-0.00249436
-0.00270308
-0.00325964
-0.0038358
-0.00409371
-0.00434687
-0.00495902
-0.00567684
-0.0062722
-0.00685544
-0.00738145
-0.00764458
-0.00739096
-0.00639392
-0.00448635
-0.00112034
-0.00146458
-0.00184923
-0.00206173
-0.00241287
-0.00266536
-0.00288863
-0.00342843
-0.00403607
-0.00437705
-0.00465665
-0.00524243
-0.00598388
-0.00662387
-0.00721249
-0.00772264
-0.00797695
-0.00772837
-0.00673554
-0.00481441
-0.00119405
-0.00152569
-0.00192206
-0.00219005
-0.00256461
-0.00284285
-0.00308327
-0.00360815
-0.00423742
-0.0046562
-0.00497425
-0.00553689
-0.00628836
-0.00696897
-0.00756959
-0.00806689
-0.00830778
-0.00805849
-0.00706869
-0.00513865
-0.00127047
-0.00159202
-0.00199889
-0.00231821
-0.00271986
-0.00302618
-0.00328637
-0.00379932
-0.00444156
-0.00492991
-0.00529656
-0.00584335
-0.00659304
-0.00730692
-0.00792412
-0.00841326
-0.00863943
-0.00838419
-0.0073941
-0.00545795
-0.00134956
-0.00166347
-0.0020803
-0.00244668
-0.00287783
-0.0032148
-0.0034975
-0.00400194
-0.00465018
-0.00519784
-0.00562018
-0.00616109
-0.00690047
-0.00763833
-0.00827438
-0.00876097
-0.00897347
-0.00870795
-0.00771356
-0.00577219
-0.00143131
-0.00173992
-0.00216669
-0.00257595
-0.00303817
-0.00340787
-0.00371549
-0.0042159
-0.00486531
-0.00546087
-0.00594177
-0.00648756
-0.00721301
-0.00796533
-0.00861979
-0.00910818
-0.0093098
-0.00903213
-0.00803021
-0.00608298
-0.00151569
-0.00182121
-0.00225834
-0.00270657
-0.00320062
-0.00360477
-0.0039392
-0.00444042
-0.00508872
-0.00572031
-0.0062589
-0.00682004
-0.00753256
-0.00829038
-0.00895976
-0.00945289
-0.0096475
-0.0093584
-0.00834708
-0.00639219
-0.00160272
-0.00190714
-0.00235531
-0.00283922
-0.00336495
-0.00380477
-0.0041679
-0.00467427
-0.00532145
-0.00597826
-0.00657043
-0.00715569
-0.00785894
-0.00861554
-0.00929483
-0.00979403
-0.00998544
-0.00968742
-0.0086662
-0.00670177
-0.00169244
-0.00199739
-0.00245768
-0.00297432
-0.00353079
-0.0040076
-0.00440078
-0.00491572
-0.00556413
-0.00623711
-0.00687589
-0.00749149
-0.00819092
-0.00894269
-0.00962688
-0.0101316
-0.0103225
-0.0100185
-0.00898822
-0.00701324
-0.0017849
-0.00209172
-0.00256516
-0.00311237
-0.00369819
-0.00421263
-0.0046373
-0.005163
-0.00581655
-0.00649916
-0.00717543
-0.0078257
-0.00852718
-0.00927303
-0.00995763
-0.0104662
-0.0106575
-0.0103503
-0.00931285
-0.00732726
-0.00188008
-0.00219001
-0.00267738
-0.00325359
-0.00386738
-0.00441923
-0.00487684
-0.00541459
-0.00607725
-0.00676679
-0.0074704
-0.00815639
-0.00886573
-0.0096071
-0.0102888
-0.0107987
-0.0109907
-0.0106819
-0.00963944
-0.00764438
-0.00197795
-0.00229184
-0.00279399
-0.00339821
-0.00403839
-0.00462676
-0.00511922
-0.00566948
-0.00634395
-0.00704134
-0.00776231
-0.00848182
-0.00920452
-0.00994532
-0.010623
-0.0111318
-0.0113231
-0.0110128
-0.00996659
-0.00796376
-0.00207843
-0.00239708
-0.00291457
-0.00354595
-0.0042115
-0.00483443
-0.00536373
-0.0059277
-0.00661426
-0.00732314
-0.00805333
-0.0088017
-0.00954186
-0.0102858
-0.0109611
-0.0114675
-0.0116573
-0.0113443
-0.0102946
-0.00828494
-0.0021813
-0.00250546
-0.00303871
-0.00369642
-0.00438692
-0.00504208
-0.00560893
-0.00618873
-0.00688631
-0.00761184
-0.00834743
-0.00911715
-0.00987619
-0.0106255
-0.0113007
-0.0118055
-0.0119945
-0.0116792
-0.0106261
-0.00861021
-0.00228643
-0.00261663
-0.00316576
-0.00384916
-0.00456486
-0.00524983
-0.00585326
-0.0064519
-0.00715809
-0.00790475
-0.00864764
-0.00943072
-0.0102079
-0.0109642
-0.0116412
-0.0121446
-0.0123336
-0.0120171
-0.0109618
-0.00894107
-0.0023936
-0.00273022
-0.00329529
-0.0040033
-0.00474457
-0.00545837
-0.00609633
-0.00671704
-0.00742882
-0.00819619
-0.00895258
-0.00974506
-0.0105387
-0.0113037
-0.0119847
-0.012487
-0.0126754
-0.0123573
-0.0113001
-0.00927535
-0.00250257
-0.00284579
-0.00342673
-0.00415811
-0.00492489
-0.0056674
-0.00633776
-0.00698354
-0.00770087
-0.00848401
-0.00925743
-0.0100586
-0.0108676
-0.0116429
-0.012331
-0.012835
-0.013024
-0.0127053
-0.0116454
-0.00961584
-0.00261297
-0.00296283
-0.00355936
-0.00431315
-0.0051054
-0.00587634
-0.00657611
-0.00724871
-0.00797589
-0.008771
-0.00956156
-0.0103694
-0.0111915
-0.0119782
-0.0126751
-0.0131856
-0.0133791
-0.0130632
-0.0120025
-0.00996849
-0.00272425
-0.0030806
-0.0036925
-0.00446751
-0.00528516
-0.00608489
-0.00681193
-0.00750978
-0.00825043
-0.00905651
-0.00986555
-0.0106807
-0.0115126
-0.0123109
-0.013017
-0.0135359
-0.013737
-0.0134277
-0.0123695
-0.010333
-0.00283615
-0.00319807
-0.00382494
-0.0046197
-0.00546265
-0.0062925
-0.00704625
-0.00776734
-0.00852236
-0.00933734
-0.0101646
-0.0109906
-0.0118313
-0.0126412
-0.0133571
-0.0138857
-0.014096
-0.0137955
-0.0127443
-0.0107126
-0.00294889
-0.00331492
-0.00395611
-0.00477015
-0.00563652
-0.00649658
-0.00727827
-0.00802097
-0.00879253
-0.00961586
-0.0104578
-0.0112978
-0.0121481
-0.0129695
-0.0136965
-0.0142366
-0.0144556
-0.0141641
-0.0131222
-0.0111004
-0.00306099
-0.00342744
-0.00408215
-0.00491894
-0.00580909
-0.00669617
-0.00750817
-0.00827066
-0.00905771
-0.00989066
-0.0107444
-0.0116007
-0.0124633
-0.013298
-0.0140397
-0.014594
-0.0148242
-0.0145422
-0.0135089
-0.0114941
-0.00317684
-0.00353386
-0.00419386
-0.00505696
-0.00597915
-0.00689084
-0.0077322
-0.00851534
-0.00931474
-0.0101553
-0.0110192
-0.0118913
-0.0127676
-0.013621
-0.0143881
-0.0149691
-0.0152216
-0.0149521
-0.0139228
-0.0119057
-0.00330137
-0.00364651
-0.0043023
-0.0051885
-0.00614347
-0.00708253
-0.00794818
-0.0087509
-0.00955135
-0.010391
-0.0112649
-0.0121532
-0.0130463
-0.0139233
-0.0147203
-0.0153404
-0.0156431
-0.0154189
-0.0144277
-0.0124439
-0.00337273
-0.00373477
-0.00442471
-0.00532686
-0.0062992
-0.00728599
-0.00819654
-0.00900243
-0.00977473
-0.0105919
-0.0114582
-0.0123416
-0.0132358
-0.0141095
-0.0149052
-0.0155492
-0.0159027
-0.0157756
-0.0149125
-0.0130694
-0.00351919
-0.003841
-0.00454247
-0.00538961
-0.00635655
-0.00743721
-0.00846006
-0.00930574
-0.0101008
-0.0109052
-0.0117848
-0.0126772
-0.0135781
-0.0144336
-0.0151765
-0.0157022
-0.0159245
-0.0156911
-0.0147758
-0.0129187
-0.00350192
-0.00396547
-0.00465756
-0.00557729
-0.00660066
-0.00761586
-0.00850123
-0.00925993
-0.0100297
-0.0108604
-0.0117612
-0.0127086
-0.0136726
-0.0146714
-0.0157044
-0.0166579
-0.0173404
-0.0175087
-0.0169204
-0.0152969
-0.00335077
-0.00413916
-0.00491484
-0.00585486
-0.00681375
-0.00788896
-0.00892141
-0.0097423
-0.0104697
-0.0113313
-0.0122556
-0.0131363
-0.0137701
-0.0140171
-0.0138298
-0.0133091
-0.0126423
-0.012133
-0.0121271
-0.0130037
-0.0034397
-0.0041694
-0.00501365
-0.00588762
-0.00674465
-0.0076099
-0.00839279
-0.00921278
-0.0101081
-0.0110887
-0.0121777
-0.013359
-0.0146026
-0.0159134
-0.0172199
-0.0184188
-0.019346
-0.0197731
-0.0194194
-0.0180418
-0.00332814
-0.00426732
-0.00512705
-0.00602829
-0.00690301
-0.00789841
-0.00892833
-0.0100096
-0.0110034
-0.0117661
-0.0125176
-0.013415
-0.0142803
-0.0148899
-0.015109
-0.0149493
-0.0145496
-0.0142136
-0.0143293
-0.0152537
-0.00337988
-0.00432883
-0.00519593
-0.00602251
-0.00674055
-0.007514
-0.00812153
-0.00890267
-0.00985117
-0.0110223
-0.0124701
-0.0142412
-0.016221
-0.0182433
-0.020111
-0.0216648
-0.022735
-0.0231317
-0.0226252
-0.021017
0.0337054
0.00690379
-0.0039482
-0.00566117
-0.0063044
-0.00760133
-0.00926238
-0.0107573
-0.0117983
-0.0125524
-0.0134009
-0.0144286
-0.0154446
-0.0164006
-0.0174048
-0.0184272
-0.0194026
-0.0204447
-0.0216084
-0.0227502
-0.0238528
-0.0249898
-0.0261494
-0.027353
-0.0285916
-0.0298533
-0.0311363
-0.0324747
-0.0338608
-0.0353095
-0.0367955
-0.0383091
-0.0398737
-0.0415029
-0.0432416
-0.0450098
-0.0468799
-0.0488029
-0.0508351
-0.0529171
-0.0550812
-0.0573647
-0.0596975
-0.0621744
-0.0646553
-0.0672719
-0.0699933
-0.0727545
-0.0754963
-0.078324
0.0327637
0.00694909
-0.0039085
-0.00564297
-0.00629366
-0.00759442
-0.00925761
-0.0107538
-0.0117957
-0.0125503
-0.013399
-0.0144269
-0.0154431
-0.0163992
-0.0174036
-0.0184262
-0.0194016
-0.0204438
-0.0216077
-0.0227495
-0.0238522
-0.0249893
-0.026149
-0.0273526
-0.0285912
-0.029853
-0.031136
-0.0324744
-0.0338606
-0.0353092
-0.0367952
-0.0383089
-0.0398735
-0.0415027
-0.0432414
-0.0450096
-0.0468797
-0.0488027
-0.050835
-0.052917
-0.0550811
-0.0573645
-0.0596974
-0.0621743
-0.0646552
-0.0672718
-0.0699932
-0.0727545
-0.0754963
-0.0783239
0.0319774
0.00705267
-0.00384362
-0.00562243
-0.00628228
-0.00758701
-0.00925279
-0.0107506
-0.0117933
-0.0125483
-0.0133972
-0.0144254
-0.0154417
-0.016398
-0.0174025
-0.0184252
-0.0194008
-0.020443
-0.021607
-0.022749
-0.0238517
-0.0249888
-0.0261485
-0.0273522
-0.0285909
-0.0298527
-0.0311357
-0.0324741
-0.0338603
-0.035309
-0.036795
-0.0383087
-0.0398734
-0.0415025
-0.0432412
-0.0450095
-0.0468796
-0.0488026
-0.0508349
-0.0529169
-0.055081
-0.0573644
-0.0596973
-0.0621742
-0.0646551
-0.0672717
-0.0699931
-0.0727544
-0.0754962
-0.0783239
0.031262
0.0071871
-0.00375104
-0.00559553
-0.00626793
-0.00757735
-0.0092465
-0.0107463
-0.0117903
-0.012546
-0.0133954
-0.0144238
-0.0154404
-0.0163968
-0.0174014
-0.0184243
-0.0193999
-0.0204422
-0.0216063
-0.0227484
-0.0238512
-0.0249884
-0.0261481
-0.0273518
-0.0285906
-0.0298524
-0.0311354
-0.0324739
-0.0338601
-0.0353088
-0.0367948
-0.0383085
-0.0398732
-0.0415023
-0.0432411
-0.0450093
-0.0468794
-0.0488025
-0.0508348
-0.0529168
-0.0550808
-0.0573643
-0.0596972
-0.0621741
-0.0646551
-0.0672717
-0.0699931
-0.0727544
-0.0754962
-0.0783239
0.0305389
0.00732926
-0.00363901
-0.00556273
-0.00624992
-0.00756437
-0.00923761
-0.0107402
-0.0117861
-0.0125432
-0.0133933
-0.0144221
-0.0154389
-0.0163955
-0.0174003
-0.0184232
-0.0193989
-0.0204413
-0.0216056
-0.0227478
-0.0238506
-0.0249879
-0.0261477
-0.0273514
-0.0285902
-0.029852
-0.0311351
-0.0324736
-0.0338599
-0.0353086
-0.0367946
-0.0383083
-0.039873
-0.0415022
-0.0432409
-0.0450092
-0.0468793
-0.0488023
-0.0508346
-0.0529167
-0.0550807
-0.0573642
-0.0596971
-0.062174
-0.064655
-0.0672716
-0.069993
-0.0727543
-0.0754962
-0.0783239
0.0297962
0.00747243
-0.00351604
-0.00552729
-0.00622957
-0.00754844
-0.00922591
-0.0107315
-0.0117802
-0.0125396
-0.0133908
-0.01442
-0.0154371
-0.0163941
-0.017399
-0.0184221
-0.0193978
-0.0204402
-0.0216047
-0.0227471
-0.02385
-0.0249873
-0.0261471
-0.027351
-0.0285898
-0.0298517
-0.0311348
-0.0324733
-0.0338596
-0.0353083
-0.0367944
-0.0383081
-0.0398728
-0.041502
-0.0432407
-0.045009
-0.0468791
-0.0488022
-0.0508345
-0.0529165
-0.0550806
-0.0573641
-0.059697
-0.0621739
-0.0646549
-0.0672715
-0.0699929
-0.0727542
-0.0754963
-0.0783239
0.0290383
0.0076147
-0.0033865
-0.00549147
-0.00620844
-0.00753064
-0.00921197
-0.0107205
-0.0117725
-0.012535
-0.0133879
-0.0144174
-0.0154349
-0.0163923
-0.0173976
-0.0184209
-0.0193965
-0.020439
-0.0216037
-0.0227462
-0.0238492
-0.0249866
-0.0261466
-0.0273504
-0.0285893
-0.0298512
-0.0311344
-0.0324729
-0.0338593
-0.0353081
-0.0367942
-0.0383079
-0.0398726
-0.0415018
-0.0432405
-0.0450088
-0.046879
-0.048802
-0.0508344
-0.0529164
-0.0550805
-0.057364
-0.0596969
-0.0621738
-0.0646548
-0.0672714
-0.0699928
-0.0727542
-0.0754963
-0.0783239
0.0282702
0.00775447
-0.00325172
-0.00545609
-0.00618747
-0.00751192
-0.00919665
-0.0107077
-0.0117632
-0.0125296
-0.0133845
-0.0144145
-0.0154321
-0.0163902
-0.017396
-0.0184195
-0.0193951
-0.0204376
-0.0216025
-0.0227452
-0.0238483
-0.0249858
-0.0261459
-0.0273498
-0.0285887
-0.0298507
-0.0311339
-0.0324725
-0.033859
-0.0353078
-0.0367939
-0.0383077
-0.0398724
-0.0415016
-0.0432404
-0.0450087
-0.0468788
-0.0488019
-0.0508342
-0.0529163
-0.0550804
-0.0573639
-0.0596968
-0.0621737
-0.0646547
-0.0672713
-0.0699928
-0.0727541
-0.0754964
-0.0783239
0.027495
0.00789035
-0.00311149
-0.00542108
-0.00616704
-0.00749275
-0.00918055
-0.0106939
-0.0117528
-0.0125235
-0.0133809
-0.0144111
-0.0154288
-0.0163875
-0.0173941
-0.018418
-0.0193937
-0.020436
-0.0216012
-0.022744
-0.0238472
-0.0249849
-0.026145
-0.027349
-0.0285881
-0.0298501
-0.0311334
-0.0324721
-0.0338586
-0.0353075
-0.0367937
-0.0383075
-0.0398721
-0.0415013
-0.0432402
-0.0450085
-0.0468786
-0.0488017
-0.0508341
-0.0529161
-0.0550802
-0.0573638
-0.0596967
-0.0621736
-0.0646546
-0.0672712
-0.0699927
-0.0727541
-0.0754965
-0.0783239
0.0267147
0.00802139
-0.00296506
-0.00538615
-0.00614735
-0.00747335
-0.00916396
-0.0106794
-0.0117416
-0.0125168
-0.0133771
-0.0144076
-0.0154251
-0.0163843
-0.0173917
-0.0184163
-0.0193922
-0.0204345
-0.0215997
-0.0227426
-0.0238459
-0.0249838
-0.0261441
-0.0273481
-0.0285873
-0.0298494
-0.0311327
-0.0324715
-0.0338581
-0.0353071
-0.0367934
-0.0383072
-0.0398719
-0.0415011
-0.0432399
-0.0450083
-0.0468784
-0.0488015
-0.0508339
-0.052916
-0.0550801
-0.0573636
-0.0596966
-0.0621735
-0.0646545
-0.0672711
-0.0699926
-0.072754
-0.0754966
-0.078324
0.0259315
0.0081468
-0.00281185
-0.00535094
-0.00612856
-0.00745385
-0.00914699
-0.0106646
-0.0117299
-0.0125099
-0.0133731
-0.0144039
-0.0154211
-0.0163807
-0.0173888
-0.0184144
-0.0193907
-0.020433
-0.0215982
-0.0227411
-0.0238445
-0.0249826
-0.0261429
-0.027347
-0.0285863
-0.0298485
-0.031132
-0.0324708
-0.0338575
-0.0353066
-0.036793
-0.0383069
-0.0398716
-0.0415008
-0.0432397
-0.0450081
-0.0468782
-0.0488013
-0.0508337
-0.0529158
-0.0550799
-0.0573635
-0.0596965
-0.0621734
-0.0646544
-0.0672709
-0.0699925
-0.0727539
-0.0754966
-0.078324