/*--------------------------------*- C++ -*----------------------------------*\
| =========                 |                                                 |
| \\      /  F ield         | OpenFOAM: The Open Source CFD Toolbox           |
|  \\    /   O peration     | Version:  v2012                                 |
|   \\  /    A nd           | Website:  www.openfoam.com                      |
|    \\/     M anipulation  |                                                 |
\*---------------------------------------------------------------------------*/
FoamFile
{
    version     2.0;
    format      ascii;
    class       volScalarField;
    location    "8.5";
    object      p;
}
// * * * * * * * * * * * * * * * * * * * * * * * * * * * * * * * * * * * * * //

dimensions      [0 2 -2 0 0 0 0];


internalField   nonuniform List<scalar> 
7000
(
-2.78687e-11
0.00929168
0.0097344
0.0180168
0.020354
0.0183109
0.014184
0.0176308
0.0149947
0.0168307
0.0152812
0.0165308
0.0152376
0.0159236
0.0156636
0.0171023
0.0172933
0.0187577
0.0192289
0.021077
1.20744e-05
0.00924949
0.00973426
0.0180509
0.0203394
0.0182984
0.0142053
0.0176224
0.0149915
0.0167977
0.0152845
0.0165229
0.0152528
0.0159313
0.0156727
0.0171062
0.0173021
0.0187513
0.0192343
0.0209898
2.03757e-05
0.0091976
0.00974096
0.0180933
0.0203071
0.0182955
0.0142254
0.0176026
0.0149859
0.016751
0.0152962
0.0165127
0.0152811
0.0159335
0.0156962
0.0171009
0.0173257
0.0187274
0.0192386
0.0208524
2.36222e-05
0.00916521
0.00976021
0.0181074
0.02027
0.0183079
0.0142459
0.0175716
0.0149821
0.0167064
0.0153101
0.0165062
0.0153123
0.0159305
0.0157257
0.0170864
0.0173526
0.0186881
0.0192339
0.0206968
2.53779e-05
0.00915745
0.00979352
0.0180869
0.0202294
0.0183363
0.0142725
0.0175282
0.0149837
0.0166649
0.0153238
0.0165042
0.0153453
0.0159234
0.0157565
0.0170654
0.0173766
0.0186392
0.019219
0.0205422
2.85595e-05
0.00917336
0.00984057
0.018035
0.0201845
0.0183782
0.0143093
0.0174738
0.0149946
0.0166254
0.0153383
0.0165058
0.0153807
0.0159123
0.0157881
0.0170403
0.0173965
0.0185852
0.0191931
0.0203948
3.5814e-05
0.00921095
0.00989829
0.0179564
0.0201364
0.0184283
0.014357
0.0174127
0.0150179
0.0165872
0.0153549
0.0165095
0.015419
0.0158973
0.0158212
0.0170126
0.0174129
0.0185282
0.0191556
0.0202529
4.97308e-05
0.00926657
0.00996146
0.0178574
0.0200867
0.0184785
0.014413
0.0173497
0.015055
0.016549
0.0153738
0.0165135
0.0154601
0.0158799
0.0158568
0.0169839
0.0174269
0.0184694
0.0191075
0.0201128
7.2366e-05
0.0093353
0.0100249
0.017746
0.0200363
0.0185232
0.0144733
0.0172884
0.0151044
0.0165097
0.0153941
0.0165154
0.0155035
0.0158623
0.0158949
0.0169555
0.017439
0.0184109
0.019051
0.0199736
0.000104861
0.00941258
0.0100849
0.0176294
0.0199851
0.0185588
0.0145339
0.0172307
0.015163
0.0164687
0.0154149
0.0165134
0.0155488
0.015843
0.0159353
0.0169287
0.017449
0.0183556
0.0189885
0.0198366
0.000147348
0.00949511
0.0101403
0.0175129
0.0199329
0.0185837
0.0145921
0.0171769
0.015228
0.0164265
0.0154355
0.0165061
0.0155955
0.0158215
0.0159774
0.0169041
0.0174566
0.0183053
0.0189219
0.0197041
0.000199108
0.00958078
0.0101911
0.0173992
0.0198794
0.0185982
0.0146472
0.0171265
0.0152973
0.0163837
0.0154563
0.0164931
0.0156436
0.0157978
0.0160199
0.016883
0.0174608
0.0182604
0.0188528
0.0195777
0.00025893
0.00966828
0.0102385
0.0172892
0.0198243
0.0186036
0.0146996
0.0170784
0.0153695
0.0163408
0.015478
0.0164745
0.0156933
0.0157724
0.0160613
0.0168661
0.0174603
0.01822
0.0187823
0.0194578
0.000325522
0.00975678
0.0102839
0.0171825
0.0197675
0.0186018
0.0147504
0.0170313
0.0154433
0.0162977
0.0155015
0.0164509
0.0157446
0.0157462
0.0160999
0.0168541
0.0174538
0.0181825
0.018711
0.0193434
0.000397806
0.00984565
0.0103286
0.0170783
0.0197088
0.0185945
0.014801
0.0169841
0.015518
0.0162542
0.0155274
0.0164232
0.015797
0.0157204
0.0161341
0.0168474
0.0174409
0.0181458
0.0186392
0.0192332
0.000475034
0.00993443
0.0103733
0.0169757
0.0196483
0.0185832
0.0148523
0.0169358
0.015593
0.0162101
0.0155559
0.0163924
0.0158497
0.0156965
0.0161622
0.0168463
0.0174216
0.018108
0.0185672
0.0191258
0.000556745
0.0100228
0.0104188
0.0168743
0.0195862
0.0185691
0.0149054
0.0168859
0.0156683
0.016165
0.015587
0.0163594
0.0159018
0.0156764
0.0161831
0.0168504
0.0173965
0.0180669
0.0184951
0.0190201
0.000642645
0.0101105
0.0104657
0.0167737
0.0195226
0.0185527
0.0149609
0.016834
0.0157439
0.0161192
0.0156202
0.0163254
0.0159517
0.0156613
0.0161959
0.0168592
0.0173668
0.0180206
0.0184228
0.018916
0.000732515
0.0101976
0.0105147
0.0166737
0.0194577
0.0185345
0.0150189
0.0167802
0.0158197
0.0160727
0.0156547
0.0162918
0.015998
0.0156524
0.0162002
0.0168714
0.0173344
0.0179675
0.0183495
0.0188135
0.000826174
0.010284
0.0105664
0.0165741
0.0193917
0.0185147
0.0150799
0.0167245
0.0158957
0.0160262
0.0156897
0.0162601
0.0160393
0.0156503
0.0161962
0.0168854
0.0173012
0.0179074
0.0182744
0.0187129
0.000923497
0.0103698
0.0106213
0.0164747
0.0193248
0.0184933
0.0151437
0.0166672
0.0159717
0.0159802
0.0157238
0.016232
0.0160745
0.015655
0.0161847
0.0168988
0.0172686
0.0178408
0.0181974
0.0186143
0.00102447
0.0104551
0.0106795
0.0163753
0.0192568
0.0184701
0.0152102
0.0166084
0.0160473
0.0159357
0.0157558
0.0162088
0.0161029
0.0156662
0.0161669
0.0169095
0.0172372
0.0177683
0.0181182
0.0185184
0.00112918
0.0105397
0.0107412
0.0162755
0.0191877
0.018445
0.0152791
0.0165482
0.0161217
0.0158937
0.0157843
0.0161915
0.0161238
0.0156831
0.0161445
0.0169157
0.0172075
0.0176905
0.0180363
0.0184258
0.00123786
0.0106236
0.0108062
0.0161753
0.0191174
0.0184174
0.01535
0.016487
0.0161943
0.0158553
0.015808
0.016181
0.016137
0.015704
0.0161191
0.0169156
0.0171803
0.0176086
0.0179505
0.0183367
0.00135075
0.0107067
0.0108743
0.0160745
0.0190458
0.0183872
0.0154225
0.0164249
0.0162644
0.0158219
0.0158258
0.0161776
0.0161428
0.0157275
0.0160927
0.0169075
0.0171557
0.0175254
0.0178604
0.0182501
0.00146813
0.0107887
0.0109455
0.0159732
0.0189729
0.0183541
0.015496
0.0163624
0.0163308
0.0157948
0.0158368
0.0161813
0.0161419
0.0157512
0.0160672
0.0168901
0.017132
0.0174441
0.0177679
0.0181649
0.00159024
0.0108694
0.0110197
0.0158714
0.0188987
0.0183178
0.0155698
0.0163006
0.0163922
0.015775
0.01584
0.0161918
0.0161361
0.0157728
0.0160439
0.016863
0.017106
0.0173668
0.0176762
0.0180807
0.00171732
0.0109487
0.0110967
0.0157691
0.0188231
0.0182788
0.0156435
0.0162397
0.016448
0.0157635
0.0158354
0.016207
0.0161271
0.0157905
0.0160237
0.016828
0.0170752
0.0172922
0.0175875
0.0179985
0.00184959
0.0110262
0.0111765
0.0156664
0.0187462
0.0182368
0.0157167
0.0161809
0.0164968
0.0157605
0.0158238
0.0162258
0.0161165
0.0158034
0.0160051
0.0167869
0.0170407
0.0172198
0.0174985
0.0179204
0.00198726
0.0111017
0.0112592
0.0155633
0.018668
0.0181927
0.0157877
0.0161254
0.0165383
0.0157663
0.015805
0.0162473
0.0161058
0.0158112
0.0159874
0.0167393
0.0169968
0.0171491
0.0174231
0.0178458
0.00213056
0.011175
0.0113446
0.01546
0.0185882
0.0181473
0.0158563
0.0160732
0.0165716
0.0157818
0.0157788
0.0162702
0.0160958
0.0158125
0.0159708
0.0166853
0.0169439
0.017078
0.0173634
0.0177742
0.00227968
0.0112458
0.0114327
0.0153566
0.0185069
0.0181006
0.015922
0.0160257
0.0165952
0.0158066
0.0157487
0.01629
0.01609
0.0158056
0.0159538
0.016633
0.0168869
0.0170036
0.0172862
0.0177105
0.00243477
0.0113138
0.0115235
0.0152537
0.0184235
0.0180544
0.0159836
0.0159825
0.0166112
0.0158364
0.0157199
0.0163019
0.0160915
0.0157927
0.0159331
0.0165798
0.0168241
0.0169204
0.0172156
0.0176574
0.00259617
0.0113787
0.0116172
0.0151508
0.0183383
0.0180084
0.0160421
0.0159418
0.0166217
0.0158699
0.0156924
0.0163066
0.0160991
0.015775
0.0159099
0.0165293
0.0167625
0.016832
0.0170971
0.0176117
0.00276391
0.0114401
0.011713
0.015049
0.0182509
0.0179637
0.0160962
0.0159064
0.016622
0.0159126
0.0156622
0.0163087
0.0161083
0.0157514
0.0158796
0.0164649
0.0166969
0.0167461
0.0170177
0.0175702
0.00293799
0.0114982
0.0118111
0.0149503
0.0181601
0.0179227
0.0161436
0.0158775
0.016611
0.0159619
0.015631
0.0163066
0.0161192
0.0157199
0.0158352
0.0163962
0.0166285
0.0166624
0.0169847
0.0175313
0.00311907
0.0115522
0.0119116
0.0148518
0.0180666
0.0178825
0.0161904
0.0158454
0.0166035
0.0160072
0.0156101
0.0162951
0.0161309
0.0156926
0.0157834
0.0163271
0.0165717
0.0165813
0.0168441
0.0174962
0.0033068
0.0116019
0.0120133
0.0147555
0.0179697
0.0178453
0.0162341
0.0158155
0.0165891
0.0160584
0.015589
0.0162752
0.0161436
0.0156549
0.0157187
0.0162576
0.0165127
0.0165109
0.0167697
0.0174595
0.00350088
0.0116481
0.0121161
0.0146703
0.0178681
0.0178131
0.0162706
0.0157933
0.0165577
0.0161169
0.0155652
0.0162475
0.016159
0.0155981
0.0156399
0.0161846
0.0164517
0.016453
0.0167725
0.0174158
0.00370244
0.0116898
0.01222
0.0145798
0.0177629
0.0177799
0.0163134
0.0157603
0.0165426
0.0161682
0.0155519
0.0162071
0.0161708
0.0155742
0.0155627
0.0161019
0.0164072
0.0163994
0.0165925
0.0173687
0.00391065
0.0117272
0.0123238
0.0144834
0.0176531
0.0177488
0.0163558
0.015728
0.0165205
0.016225
0.0155417
0.0161528
0.0161771
0.0155353
0.0154694
0.0160114
0.0163545
0.0163676
0.0165375
0.0173214
0.00412493
0.0117617
0.0124268
0.0144753
0.0175378
0.0177224
0.016392
0.0157065
0.0164684
0.0162957
0.0155297
0.0160801
0.0161706
0.0155044
0.0153639
0.0159104
0.0162888
0.0163503
0.0166195
0.0172791
0.00434697
0.0117918
0.0125288
0.0143753
0.0174203
0.0176905
0.0164422
0.0156722
0.0164372
0.0163613
0.0155327
0.016
0.0161669
0.0154871
0.0152715
0.0157928
0.016228
0.0163084
0.0164441
0.0172502
0.00457496
0.0118191
0.0126281
0.0143112
0.0172995
0.0176585
0.0164915
0.0156441
0.0163884
0.0164288
0.015555
0.015893
0.0161406
0.0154854
0.0151757
0.0156541
0.0161309
0.0162773
0.0164445
0.0172421
0.00480877
0.0118449
0.0127242
0.0142978
0.0171755
0.0176272
0.0165347
0.0156318
0.0162949
0.016502
0.0155763
0.015782
0.016096
0.0154953
0.0150757
0.0154978
0.0159965
0.0162604
0.0166371
0.0172529
0.00505012
0.0118677
0.0128173
0.0142304
0.0170537
0.0175845
0.0165982
0.0156065
0.0162255
0.0165639
0.0156172
0.0156783
0.016043
0.0155352
0.0150103
0.0153239
0.0158449
0.0161403
0.016444
0.0172837
0.00529616
0.01189
0.0129058
0.014201
0.016933
0.0175372
0.0166605
0.015586
0.0161537
0.016605
0.015681
0.0155754
0.0159729
0.0155697
0.0149657
0.0151417
0.015658
0.0159758
0.0163602
0.0173555
0.00554798
0.0119127
0.0129893
0.0142328
0.0168142
0.0174871
0.016715
0.0155865
0.0160482
0.0166312
0.0157548
0.0154805
0.0158762
0.015594
0.0149455
0.0149705
0.0154484
0.0158305
0.0163385
0.0174321
0.0058059
0.0119349
0.0130682
0.0141845
0.0166997
0.0174305
0.0167705
0.0155957
0.0159382
0.0166408
0.0158355
0.0154025
0.0157629
0.0155998
0.0149468
0.014815
0.0152373
0.0157008
0.0163256
0.0175113
0.00606788
0.0119587
0.0131424
0.0142079
0.0165906
0.01737
0.0168192
0.0156118
0.0158286
0.0166259
0.0159258
0.0153496
0.0156318
0.0155754
0.0149623
0.0146894
0.0150401
0.0155748
0.0163218
0.0175921
0.00633468
0.0119849
0.0132119
0.0142368
0.0164881
0.017306
0.0168607
0.0156384
0.0157134
0.0165883
0.0160266
0.0153119
0.0154843
0.0155236
0.0149904
0.0146056
0.0148672
0.0154535
0.0163049
0.0176628
0.0066057
0.0120133
0.0132776
0.0142475
0.0163917
0.0172394
0.0168954
0.0156709
0.0156011
0.0165339
0.0161262
0.0152893
0.0153381
0.0154523
0.01502
0.014561
0.0147167
0.0153231
0.0162727
0.0177195
0.00688037
0.0120447
0.0133398
0.0142431
0.0163018
0.0171733
0.0169208
0.0157075
0.0154984
0.0164602
0.0162131
0.0152923
0.0152056
0.0153543
0.0150336
0.0145535
0.0146022
0.0151961
0.0162142
0.0177551
0.00715833
0.0120797
0.0133992
0.0142383
0.016218
0.0171076
0.0169361
0.0157496
0.0154058
0.0163669
0.0162884
0.0153237
0.0150845
0.0152301
0.0150298
0.0145788
0.0145283
0.0150705
0.0161278
0.0177688
0.00743922
0.0121187
0.0134564
0.0142336
0.0161382
0.017044
0.0169435
0.0157928
0.015322
0.0162574
0.0163502
0.0153744
0.0149767
0.0150964
0.0150079
0.0146185
0.0144843
0.0149513
0.0160287
0.0177743
0.00772266
0.0121619
0.0135123
0.0142284
0.0160609
0.016983
0.0169439
0.0158356
0.0152499
0.0161366
0.0163908
0.0154388
0.014892
0.0149641
0.0149608
0.0146525
0.0144664
0.0148602
0.0159432
0.0177743
0.00800828
0.0122099
0.0135668
0.014225
0.0159851
0.0169236
0.0169377
0.015878
0.015194
0.0160097
0.0164066
0.0155151
0.0148331
0.0148328
0.0148845
0.0146718
0.0144787
0.0148099
0.015873
0.0177631
0.00829517
0.0122634
0.0136207
0.0142239
0.0159085
0.0168643
0.0169286
0.0159197
0.0151533
0.0158787
0.0163973
0.0155992
0.014798
0.0147057
0.0147895
0.0146787
0.0145146
0.0147918
0.0158176
0.0177509
0.00858327
0.0123217
0.0136759
0.0142235
0.015829
0.0168046
0.0169197
0.0159601
0.0151269
0.0157492
0.016366
0.0156843
0.0147853
0.0145912
0.0146875
0.0146668
0.014553
0.014798
0.0157931
0.0177519
0.00887269
0.0123847
0.0137323
0.0142248
0.0157509
0.0167444
0.0168946
0.0159978
0.0151139
0.0156259
0.0163126
0.0157623
0.0147981
0.0144957
0.0145793
0.0146299
0.014585
0.0148332
0.0158071
0.0177683
0.00916182
0.0124536
0.0137908
0.0142299
0.0156692
0.0166762
0.0168717
0.0160361
0.0151142
0.0155109
0.0162378
0.0158297
0.0148356
0.0144177
0.0144673
0.0145756
0.014614
0.0148943
0.0158513
0.0177976
0.00945046
0.0125286
0.0138513
0.0142384
0.0155822
0.016604
0.0168499
0.0160742
0.0151258
0.0154065
0.0161464
0.0158812
0.0148911
0.014362
0.0143632
0.0145103
0.0146302
0.0149573
0.0159106
0.0178437
0.00973839
0.012609
0.0139132
0.0142505
0.0154933
0.0165281
0.0168274
0.0161123
0.015148
0.0153154
0.0160417
0.0159105
0.0149604
0.014334
0.0142694
0.0144314
0.0146259
0.0150141
0.0159872
0.0179133
0.0100248
0.0126939
0.0139765
0.0142681
0.0154046
0.0164474
0.0168049
0.0161525
0.0151791
0.015235
0.0159257
0.0159153
0.0150353
0.014329
0.0141872
0.0143494
0.014609
0.0150661
0.016077
0.0179986
0.0103093
0.0127837
0.0140408
0.0142919
0.0153183
0.0163616
0.0167792
0.016192
0.0152147
0.0151652
0.0158047
0.0158977
0.0151086
0.0143477
0.0141301
0.0142759
0.0145793
0.0151027
0.0161623
0.0180891
0.0105918
0.0128775
0.0141054
0.0143235
0.0152368
0.0162693
0.0167463
0.0162291
0.0152578
0.0151111
0.0156856
0.0158591
0.0151758
0.014389
0.014096
0.0142048
0.0145351
0.0151238
0.0162384
0.0181808
0.0108717
0.0129752
0.0141702
0.0143634
0.0151619
0.0161706
0.0167047
0.0162645
0.0153095
0.0150729
0.01557
0.0158006
0.015231
0.0144423
0.014076
0.0141417
0.0144928
0.0151361
0.0162988
0.0182658
0.0111487
0.0130765
0.0142343
0.0144107
0.0150965
0.0160675
0.0166536
0.0162967
0.0153678
0.0150492
0.015461
0.0157255
0.0152689
0.0145012
0.0140751
0.0140987
0.0144542
0.0151326
0.016339
0.0183429
0.0114225
0.0131816
0.0142975
0.0144642
0.0150428
0.0159624
0.0165913
0.016323
0.0154309
0.0150399
0.0153625
0.0156381
0.0152873
0.0145648
0.0140948
0.0140698
0.0144124
0.0151175
0.0163689
0.0184148
0.0116927
0.0132901
0.0143598
0.0145229
0.0150019
0.0158582
0.0165181
0.0163409
0.0154971
0.0150444
0.0152774
0.0155435
0.0152858
0.0146278
0.0141284
0.0140513
0.0143737
0.0151007
0.0163918
0.0184764
0.0119588
0.0134021
0.014421
0.0145858
0.0149745
0.0157583
0.0164349
0.0163479
0.0155646
0.0150619
0.0152071
0.0154467
0.0152643
0.0146837
0.0141724
0.0140466
0.0143431
0.0150818
0.0164042
0.0185273
0.0122204
0.0135175
0.0144815
0.0146541
0.0149604
0.0156658
0.0163437
0.016342
0.0156311
0.0150903
0.0151513
0.0153538
0.0152258
0.014727
0.0142232
0.0140563
0.0143212
0.0150603
0.0164084
0.0185712
0.0124771
0.0136361
0.0145311
0.0147203
0.0149585
0.0155834
0.0162473
0.0163219
0.0156935
0.0151277
0.0151101
0.0152701
0.0151747
0.0147531
0.0142752
0.0140789
0.0143083
0.0150385
0.0164081
0.0186088
0.0127285
0.0137581
0.0145888
0.0147856
0.0149677
0.0155127
0.0161485
0.0162875
0.0157488
0.0151728
0.0150823
0.0151977
0.0151161
0.0147603
0.0143223
0.0141094
0.0143046
0.0150216
0.0164065
0.0186405
0.0129742
0.0138832
0.014647
0.0148495
0.0149866
0.0154546
0.0160509
0.0162402
0.0157939
0.0152239
0.0150658
0.0151361
0.0150559
0.0147512
0.0143584
0.0141429
0.0143123
0.0150129
0.0164047
0.0186673
0.0132137
0.014011
0.0147062
0.0149115
0.0150132
0.0154095
0.0159581
0.0161822
0.0158255
0.015278
0.0150592
0.0150837
0.0149991
0.0147299
0.0143816
0.0141769
0.0143298
0.0150117
0.0164045
0.0186901
0.0134469
0.0141412
0.0147666
0.0149716
0.0150461
0.0153769
0.0158727
0.0161163
0.015842
0.0153317
0.0150612
0.0150392
0.0149479
0.0147019
0.0143931
0.0142068
0.0143512
0.0150176
0.0164075
0.0187093
0.0136733
0.0142735
0.0148283
0.0150293
0.0150836
0.0153559
0.0157962
0.0160461
0.0158436
0.0153806
0.0150714
0.0150014
0.0149017
0.0146711
0.0143938
0.0142284
0.0143731
0.0150292
0.0164139
0.018726
0.0138926
0.0144073
0.0148924
0.0150852
0.0151241
0.0153452
0.0157299
0.0159749
0.0158312
0.0154208
0.0150888
0.0149702
0.0148585
0.0146389
0.0143854
0.0142409
0.0143921
0.0150436
0.0164237
0.0187417
0.0141046
0.0145422
0.0149587
0.0151392
0.0151665
0.0153438
0.0156742
0.015905
0.0158077
0.0154494
0.0151101
0.0149463
0.0148177
0.0146056
0.0143696
0.014244
0.0144048
0.0150571
0.0164351
0.0187561
0.0143089
0.0146774
0.0150275
0.015192
0.0152098
0.01535
0.015629
0.0158388
0.0157764
0.015465
0.0151303
0.0149296
0.0147796
0.0145713
0.0143476
0.0142377
0.0144088
0.0150655
0.0164439
0.0187672
0.0145054
0.0148124
0.015099
0.015244
0.0152534
0.0153621
0.015594
0.0157774
0.01574
0.015469
0.0151443
0.0149173
0.0147452
0.0145376
0.014322
0.0142232
0.0144034
0.0150656
0.0164463
0.0187717
0.014694
0.0149464
0.0151732
0.0152956
0.0152969
0.0153789
0.0155689
0.0157208
0.015699
0.0154643
0.0151494
0.0149045
0.0147121
0.014504
0.0142942
0.0142024
0.0143893
0.0150571
0.0164415
0.018769
0.0148745
0.0150788
0.0152488
0.0153474
0.015341
0.0153992
0.015553
0.0156705
0.0156539
0.015453
0.0151473
0.0148877
0.0146759
0.0144653
0.0142608
0.0141738
0.0143653
0.0150374
0.0164269
0.0187591
0.0150465
0.0152092
0.0153269
0.0153995
0.015385
0.0154212
0.0155441
0.0156293
0.0156062
0.0154357
0.0151411
0.014868
0.0146375
0.014421
0.014221
0.014137
0.01433
0.0150034
0.0163964
0.018734
0.0152099
0.0153366
0.0154063
0.0154525
0.0154302
0.0154438
0.0155385
0.0155957
0.0155553
0.0154086
0.0151298
0.0148457
0.0145985
0.014374
0.0141777
0.0140957
0.0142872
0.0149578
0.0163509
0.0186921
0.0153643
0.0154607
0.0154873
0.0155063
0.0154774
0.0154701
0.0155343
0.0155685
0.0155041
0.0153693
0.0151115
0.0148197
0.014555
0.0143195
0.0141248
0.0140448
0.0142334
0.014899
0.0162901
0.0186348
0.0155089
0.0155807
0.0155697
0.0155611
0.0155253
0.0154995
0.0155304
0.0155459
0.0154573
0.0153205
0.0150856
0.0147921
0.0145096
0.0142579
0.0140608
0.0139827
0.0141687
0.0148271
0.016212
0.0185558
0.0156449
0.0156937
0.0156519
0.0156192
0.0155772
0.0155339
0.0155268
0.0155217
0.0154135
0.0152639
0.0150482
0.0147592
0.0144617
0.014191
0.0139852
0.0139063
0.0140908
0.0147447
0.016121
0.0184542
0.0157703
0.0158045
0.0157423
0.0156885
0.0156393
0.0155828
0.0155294
0.0154955
0.0153768
0.0152132
0.0150073
0.014725
0.014415
0.0141232
0.0138992
0.013811
0.0139908
0.0146396
0.0160074
0.0183307
0.0158732
0.0159011
0.0157985
0.0157333
0.0156853
0.0156203
0.0155275
0.0154619
0.0153401
0.0151677
0.0149652
0.0146888
0.0143687
0.0140558
0.0138073
0.0137015
0.0138706
0.0145121
0.0158718
0.0181887
0.0159983
0.0160083
0.0159283
0.0158275
0.0157319
0.0156154
0.0154716
0.0153782
0.0152698
0.015112
0.0149144
0.0146429
0.0143145
0.0139809
0.0137042
0.013571
0.0137151
0.0143351
0.0156794
0.0179863
0.0160063
0.0160533
0.0160096
0.0159941
0.0159405
0.0157775
0.0154914
0.0153224
0.0152251
0.0150842
0.0148837
0.0146068
0.0142669
0.0139098
0.0135969
0.0134215
0.0135204
0.014095
0.0153951
0.01766
0.0162223
0.016217
0.0160826
0.0158891
0.0157635
0.0156269
0.0154398
0.0153126
0.0152326
0.0151083
0.0149049
0.0146292
0.0143003
0.0139558
0.0136447
0.0134435
0.0134884
0.0139797
0.0151737
0.0173173
0.0161759
0.0162725
0.0160921
0.0160396
0.0159394
0.0157185
0.0154538
0.0152943
0.0151569
0.0150077
0.0147497
0.0144461
0.0140998
0.01378
0.0135414
0.0134668
0.0136349
0.0142162
0.0154519
0.017608
0.0164532
0.0163367
0.0161367
0.015943
0.0158097
0.0157309
0.0156096
0.0155274
0.0154396
0.015287
0.0150135
0.0146725
0.0142543
0.0137494
0.013182
0.0126599
0.012369
0.0125529
0.0134869
0.0154065
0.0166857
0.0162953
0.0160162
0.0158339
0.0157583
0.0155077
0.0152636
0.0152059
0.0151071
0.0148973
0.0146058
0.0143273
0.0142871
0.0145966
0.0152795
0.0162448
0.0173102
0.0181753
0.0184756
0.0178834
0.0167366
0.0163662
0.0160977
0.0159929
0.016049
0.0161657
0.0160458
0.0158534
0.0157054
0.0153848
0.0148952
0.0142822
0.0135663
0.0127798
0.0119525
0.011184
0.0106494
0.0105845
0.011267
0.0129413
0.016917
0.0163585
0.0160359
0.0159146
0.0159334
0.0157824
0.0155432
0.0151889
0.0149282
0.0148131
0.0146387
0.0143337
0.0140826
0.0140141
0.0142565
0.0148118
0.0155786
0.0162677
0.0164841
0.0158616
0.0169335
0.016355
0.0160269
0.0160462
0.0163269
0.0165664
0.0165402
0.016445
0.0162084
0.0156533
0.01479
0.0136314
0.0122221
0.0106969
0.00926805
0.00813614
0.00746786
0.00744358
0.00828456
0.0101863
0.0228188
0.0136923
0.0109629
0.0130977
0.0156654
0.0176824
0.0193087
0.0207368
0.0220118
0.0233096
0.0249091
0.0265576
0.0279187
0.0292928
0.0308367
0.0323531
0.0338608
0.0354132
0.0370469
0.0387949
0.0405533
0.0421618
0.0437598
0.0455968
0.0476608
0.0497651
0.051849
0.0540065
0.0562428
0.0585401
0.0608834
0.0633822
0.0659747
0.0686837
0.071449
0.0743075
0.0772737
0.0803636
0.0836034
0.0869095
0.0903658
0.0938478
0.0975429
0.101292
0.105185
0.109253
0.113294
0.117657
0.121701
0.12587
0.0226814
0.0137549
0.0110043
0.0131134
0.015674
0.0176884
0.0193133
0.0207406
0.0220148
0.0233119
0.0249108
0.0265591
0.0279201
0.029294
0.0308377
0.0323541
0.0338618
0.0354141
0.0370477
0.0387957
0.040554
0.0421624
0.0437604
0.0455972
0.0476612
0.0497655
0.0518493
0.0540068
0.0562431
0.0585404
0.0608836
0.0633824
0.0659749
0.0686839
0.0714492
0.0743077
0.0772739
0.0803637
0.0836035
0.0869096
0.0903659
0.0938479
0.097543
0.101292
0.105185
0.109253
0.113294
0.117657
0.121701
0.12587
0.022475
0.0138471
0.0110721
0.013135
0.0156839
0.0176946
0.0193178
0.0207441
0.0220177
0.0233141
0.0249125
0.0265605
0.0279213
0.029295
0.0308387
0.032355
0.0338626
0.0354149
0.0370484
0.0387963
0.0405546
0.042163
0.0437608
0.0455976
0.0476616
0.0497659
0.0518496
0.0540071
0.0562433
0.0585406
0.0608838
0.0633826
0.0659751
0.0686841
0.0714494
0.0743078
0.077274
0.0803639
0.0836036
0.0869097
0.090366
0.093848
0.0975431
0.101292
0.105185
0.109253
0.113294
0.117657
0.121701
0.12587
0.0222783
0.0139725
0.0111757
0.0131691
0.0156978
0.0177027
0.019323
0.0207481
0.022021
0.0233168
0.0249146
0.0265622
0.0279226
0.029296
0.0308396
0.0323559
0.0338634
0.0354157
0.0370491
0.038797
0.0405553
0.0421636
0.0437612
0.045598
0.047662
0.0497662
0.0518499
0.0540074
0.0562436
0.0585409
0.060884
0.0633828
0.0659753
0.0686842
0.0714495
0.074308
0.0772742
0.080364
0.0836038
0.0869099
0.0903661
0.0938481
0.0975432
0.101292
0.105185
0.109253
0.113294
0.117657
0.121701
0.12587
0.0220991
0.0141242
0.0113093
0.0132159
0.0157169
0.0177136
0.0193298
0.020753
0.0220254
0.0233206
0.0249175
0.0265643
0.0279241
0.0292972
0.0308407
0.0323568
0.0338643
0.0354165
0.0370499
0.0387977
0.040556
0.0421642
0.0437617
0.0455984
0.0476624
0.0497666
0.0518503
0.0540077
0.0562439
0.0585411
0.0608842
0.063383
0.0659755
0.0686844
0.0714497
0.0743081
0.0772743
0.0803641
0.0836039
0.08691
0.0903662
0.0938482
0.0975433
0.101293
0.105185
0.109253
0.113294
0.117657
0.121701
0.12587
0.0219248
0.0142892
0.0114597
0.013271
0.01574
0.0177273
0.0193384
0.0207591
0.0220308
0.0233257
0.0249215
0.026567
0.0279259
0.0292987
0.0308419
0.0323577
0.0338651
0.0354173
0.0370506
0.0387985
0.0405569
0.042165
0.0437623
0.0455988
0.0476628
0.0497671
0.0518507
0.054008
0.0562442
0.0585414
0.0608845
0.0633832
0.0659757
0.0686846
0.0714499
0.0743083
0.0772745
0.0803643
0.083604
0.0869101
0.0903663
0.0938483
0.0975434
0.101293
0.105185
0.109253
0.113294
0.117657
0.121701
0.12587
0.0217466
0.01446
0.01162
0.0133307
0.0157652
0.0177429
0.0193487
0.0207663
0.0220374
0.0233322
0.0249266
0.0265703
0.0279282
0.0293005
0.0308433
0.0323588
0.033866
0.0354181
0.0370514
0.0387992
0.0405579
0.0421659
0.0437629
0.0455993
0.0476634
0.0497676
0.0518511
0.0540084
0.0562445
0.0585417
0.0608847
0.0633835
0.0659759
0.0686848
0.0714501
0.0743085
0.0772746
0.0803644
0.0836042
0.0869102
0.0903665
0.0938484
0.0975435
0.101293
0.105185
0.109253
0.113294
0.117657
0.121701
0.125871
0.0215634
0.014635
0.0117887
0.0133937
0.0157916
0.0177598
0.0193602
0.0207746
0.022045
0.0233398
0.0249327
0.0265742
0.0279308
0.0293026
0.030845
0.0323601
0.0338671
0.035419
0.037052
0.0387999
0.0405589
0.0421669
0.0437636
0.0455999
0.047664
0.0497681
0.0518516
0.0540089
0.0562449
0.0585421
0.060885
0.0633837
0.0659762
0.068685
0.0714503
0.0743086
0.0772748
0.0803646
0.0836043
0.0869104
0.0903666
0.0938486
0.0975436
0.101293
0.105185
0.109253
0.113294
0.117657
0.121702
0.125871
0.021378
0.0148141
0.0119655
0.0134595
0.0158188
0.0177775
0.0193728
0.0207837
0.0220533
0.0233482
0.0249394
0.0265785
0.0279337
0.029305
0.0308469
0.0323616
0.0338685
0.0354202
0.0370527
0.0388005
0.0405599
0.0421681
0.0437645
0.0456007
0.0476647
0.0497687
0.0518521
0.0540094
0.0562454
0.0585425
0.0608854
0.063384
0.0659764
0.0686853
0.0714505
0.0743088
0.077275
0.0803648
0.0836045
0.0869106
0.0903668
0.0938487
0.0975437
0.101293
0.105186
0.109253
0.113295
0.117658
0.121702
0.125871
0.0211939
0.0149962
0.0121494
0.013528
0.0158464
0.0177959
0.0193861
0.0207936
0.022062
0.0233569
0.0249466
0.0265831
0.0279368
0.0293076
0.030849
0.0323633
0.0338703
0.0354218
0.0370535
0.0388009
0.0405607
0.0421693
0.0437656
0.0456016
0.0476655
0.0497695
0.0518527
0.0540099
0.0562459
0.058543
0.0608858
0.0633843
0.0659767
0.0686855
0.0714508
0.0743091
0.0772752
0.0803649
0.0836047
0.0869107
0.0903669
0.0938488
0.0975439
0.101293
0.105186
0.109253
0.113295
0.117658
0.121703
0.125872
0.0210134
0.0151791
0.0123392
0.013599
0.0158745
0.0178149
0.0194001
0.020804
0.0220711
0.023366
0.0249541
0.0265879
0.0279402
0.0293104
0.0308511
0.032365
0.0338725
0.0354239
0.0370545
0.0388011
0.0405613
0.0421704
0.0437667
0.0456027
0.0476665
0.0497703
0.0518534
0.0540106
0.0562466
0.0585436
0.0608863
0.0633848
0.0659771
0.0686858
0.071451
0.0743093
0.0772754
0.0803651
0.0836049
0.0869109
0.0903671
0.093849
0.097544
0.101293
0.105186
0.109254
0.113295
0.117658
0.121703
0.125872
0.0208376
0.0153605
0.0125335
0.0136726
0.015903
0.0178346
0.0194149
0.0208149
0.0220805
0.0233752
0.0249617
0.0265929
0.0279436
0.0293133
0.0308532
0.0323668
0.0338748
0.0354264
0.0370559
0.0388012
0.0405616
0.0421712
0.0437678
0.045604
0.0476677
0.0497712
0.0518541
0.0540113
0.0562473
0.0585443
0.0608869
0.0633853
0.0659775
0.0686862
0.0714514
0.0743096
0.0772756
0.0803653
0.0836051
0.0869111
0.0903673
0.0938492
0.0975442
0.101293
0.105186
0.109254
0.113295
0.117658
0.121704
0.125873
0.0206669
0.0155393
0.0127315
0.0137488
0.0159319
0.0178548
0.0194305
0.0208266
0.0220902
0.0233846
0.0249695
0.0265981
0.0279471
0.0293163
0.0308554
0.0323684
0.0338772
0.0354293
0.0370576
0.0388012
0.0405614
0.0421716
0.0437688
0.0456053
0.0476691
0.0497723
0.0518549
0.054012
0.056248
0.058545
0.0608876
0.0633859
0.0659779
0.0686866
0.0714518
0.0743099
0.0772759
0.0803655
0.0836053
0.0869113
0.0903675
0.0938494
0.0975444
0.101294
0.105186
0.109254
0.113295
0.117658
0.121705
0.125874
0.0205012
0.0157148
0.0129331
0.013828
0.0159612
0.0178755
0.0194469
0.0208389
0.0221003
0.0233942
0.0249776
0.0266034
0.0279508
0.0293194
0.0308576
0.03237
0.0338795
0.0354323
0.0370596
0.0388012
0.0405607
0.0421715
0.0437694
0.0456067
0.0476708
0.0497735
0.0518558
0.0540127
0.0562487
0.0585458
0.0608885
0.0633866
0.0659785
0.068687
0.0714522
0.0743104
0.0772763
0.0803658
0.0836055
0.0869115
0.0903678
0.0938496
0.0975446
0.101294
0.105186
0.109254
0.113295
0.117659
0.121706
0.125875
0.0203402
0.0158871
0.0131388
0.0139109
0.015991
0.0178967
0.0194643
0.0208521
0.0221109
0.023404
0.0249858
0.0266088
0.0279545
0.0293226
0.0308598
0.0323715
0.0338817
0.0354353
0.0370617
0.038801
0.0405596
0.042171
0.0437697
0.045608
0.0476726
0.0497749
0.0518567
0.0540134
0.0562494
0.0585466
0.0608894
0.0633876
0.0659792
0.0686875
0.0714527
0.0743109
0.0772767
0.0803661
0.0836057
0.0869118
0.090368
0.0938498
0.0975448
0.101294
0.105187
0.109254
0.113296
0.117659
0.121707
0.125876
0.0201835
0.0160562
0.0133492
0.013998
0.0160213
0.0179183
0.0194827
0.0208663
0.0221221
0.0234142
0.0249943
0.0266143
0.0279584
0.0293259
0.0308622
0.032373
0.0338837
0.0354381
0.0370638
0.0388007
0.040558
0.04217
0.0437697
0.0456092
0.0476744
0.0497765
0.0518577
0.0540142
0.05625
0.0585474
0.0608904
0.0633886
0.06598
0.068688
0.0714532
0.0743114
0.0772772
0.0803664
0.083606
0.086912
0.0903682
0.0938501
0.0975451
0.101294
0.105187
0.109255
0.113296
0.117659
0.121708
0.125878
0.0200306
0.0162224
0.0135647
0.01409
0.0160522
0.0179401
0.019502
0.0208813
0.022134
0.0234247
0.0250029
0.0266199
0.0279623
0.0293293
0.0308647
0.0323745
0.0338857
0.0354408
0.0370657
0.0388002
0.0405558
0.0421685
0.0437696
0.0456102
0.0476762
0.0497781
0.0518588
0.054015
0.0562507
0.0585481
0.0608913
0.0633898
0.0659809
0.0686886
0.0714538
0.0743121
0.0772777
0.0803668
0.0836062
0.0869122
0.0903685
0.0938503
0.0975453
0.101295
0.105187
0.109255
0.113296
0.11766
0.12171
0.12588
0.0198818
0.0163854
0.0137859
0.0141876
0.0160838
0.0179621
0.0195222
0.0208973
0.0221465
0.0234357
0.0250119
0.0266255
0.0279664
0.0293329
0.0308674
0.0323762
0.0338876
0.0354433
0.0370676
0.0387997
0.0405532
0.0421668
0.0437695
0.0456112
0.047678
0.0497798
0.0518599
0.0540158
0.0562514
0.0585487
0.0608923
0.063391
0.0659819
0.0686892
0.0714543
0.0743128
0.0772784
0.0803673
0.0836065
0.0869124
0.0903687
0.0938505
0.0975456
0.101295
0.105187
0.109255
0.113297
0.11766
0.121711
0.125881
0.0197372
0.0165452
0.0140128
0.0142915
0.0161161
0.017984
0.0195433
0.0209143
0.0221598
0.023447
0.0250211
0.0266312
0.0279707
0.0293367
0.0308704
0.0323781
0.0338894
0.0354458
0.0370693
0.0387991
0.0405503
0.0421649
0.0437697
0.0456123
0.0476796
0.0497814
0.051861
0.0540167
0.0562522
0.0585494
0.0608932
0.0633922
0.0659831
0.0686898
0.0714549
0.0743135
0.0772792
0.0803678
0.0836068
0.0869126
0.0903689
0.0938508
0.0975459
0.101295
0.105188
0.109256
0.113297
0.117661
0.121713