/*--------------------------------*- C++ -*----------------------------------*\
| =========                 |                                                 |
| \\      /  F ield         | OpenFOAM: The Open Source CFD Toolbox           |
|  \\    /   O peration     | Version:  v2012                                 |
|   \\  /    A nd           | Website:  www.openfoam.com                      |
|    \\/     M anipulation  |                                                 |
\*---------------------------------------------------------------------------*/
FoamFile
{
    version     2.0;
    format      ascii;
    class       surfaceScalarField;
    location    "8.5";
    object      phi;
}
// * * * * * * * * * * * * * * * * * * * * * * * * * * * * * * * * * * * * * //

dimensions      [0 3 -1 0 0 0 0];
oriented        oriented;


internalField   nonuniform List<scalar> 
13830
(
1.03734e-06
-6.79558e-07
8.07283e-07
1.3789e-06
8.57812e-07
-2.26754e-06
1.03856e-06
1.747e-06
9.52881e-07
1.23342e-06
9.36456e-07
-2.58964e-07
1.03087e-06
-9.27872e-07
9.81025e-07
-6.07219e-07
9.66614e-07
3.25278e-07
9.1053e-07
3.71171e-07
9.25997e-07
2.67197e-07
9.16367e-07
9.36879e-08
9.33168e-07
6.73399e-08
9.41372e-07
7.92252e-08
9.41578e-07
4.46073e-08
9.48378e-07
1.56657e-07
9.42139e-07
6.55841e-08
9.46369e-07
1.74236e-07
9.39191e-07
1.17492e-07
1.73697e-07
9.31722e-07
1.07786e-06
-7.84889e-07
8.62361e-07
1.5944e-06
9.15514e-07
-2.32069e-06
1.0938e-06
1.56871e-06
1.00296e-06
1.32426e-06
9.8231e-07
-2.38316e-07
1.07612e-06
-1.02168e-06
1.02096e-06
-5.52056e-07
1.00488e-06
3.41361e-07
9.5223e-07
4.23819e-07
9.65066e-07
2.54361e-07
9.57466e-07
1.01288e-07
9.72087e-07
5.27187e-08
9.82379e-07
6.89336e-08
9.78606e-07
4.83805e-08
9.90705e-07
1.44557e-07
9.76445e-07
7.98441e-08
9.89386e-07
1.61294e-07
9.67994e-07
1.38884e-07
1.59852e-07
9.8184e-07
1.11672e-06
-8.92155e-07
9.31834e-07
1.77929e-06
9.76159e-07
-2.36502e-06
1.15701e-06
1.38787e-06
1.06842e-06
1.41285e-06
1.03318e-06
-2.03078e-07
1.1186e-06
-1.10711e-06
1.06958e-06
-5.03032e-07
1.04575e-06
3.65193e-07
1.00823e-06
4.61334e-07
1.00933e-06
2.53264e-07
1.01285e-06
9.77669e-08
1.01413e-06
5.14341e-08
1.03404e-06
4.90281e-08
1.01798e-06
6.44448e-08
1.03668e-06
1.25853e-07
1.01476e-06
1.01765e-07
1.02662e-06
1.49437e-07
1.0071e-06
1.58396e-07
1.56189e-07
1.01077e-06
1.15516e-06
-9.99537e-07
1.00895e-06
1.92549e-06
1.03707e-06
-2.39314e-06
1.22058e-06
1.20436e-06
1.13946e-06
1.49397e-06
1.0853e-06
-1.48919e-07
1.15346e-06
-1.17526e-06
1.12067e-06
-4.70243e-07
1.09155e-06
3.94305e-07
1.07258e-06
4.80305e-07
1.06117e-06
2.64677e-07
1.07212e-06
8.68136e-08
1.06229e-06
6.12688e-08
1.08406e-06
2.72517e-08
1.06464e-06
8.38719e-08
1.07905e-06
1.11444e-07
1.06065e-06
1.20162e-07
1.06358e-06
1.46507e-07
1.05063e-06
1.71347e-07
1.59843e-07
1.04697e-06
1.19238e-06
-1.10436e-06
1.08743e-06
2.03044e-06
1.09456e-06
-2.40027e-06
1.27631e-06
1.0226e-06
1.20821e-06
1.56207e-06
1.13668e-06
-7.73851e-08
1.17882e-06
-1.2174e-06
1.16804e-06
-4.59469e-07
1.1421e-06
4.20247e-07
1.13843e-06
4.83975e-07
1.11916e-06
2.83944e-07
1.12924e-06
7.67363e-08
1.11477e-06
7.57383e-08
1.13113e-06
1.08943e-08
1.11601e-06
9.89875e-08
1.12362e-06
1.03837e-07
1.11112e-06
1.32663e-07
1.10791e-06
1.49713e-07
1.09828e-06
1.8098e-07
1.6673e-07
1.09139e-06
1.22775e-06
-1.20327e-06
1.16105e-06
2.09714e-06
1.14712e-06
-2.38634e-06
1.32066e-06
8.49064e-07
1.26987e-06
1.61287e-06
1.18579e-06
6.69695e-09
1.19678e-06
-1.2284e-06
1.20735e-06
-4.70031e-07
1.19548e-06
4.32109e-07
1.20137e-06
4.78089e-07
1.1799e-06
3.05414e-07
1.18296e-06
7.36726e-08
1.16781e-06
9.0887e-08
1.17661e-06
2.09516e-09
1.16697e-06
1.08633e-07
1.17101e-06
9.97961e-08
1.16259e-06
1.41077e-07
1.1579e-06
1.54405e-07
1.14979e-06
1.89089e-07
1.74357e-07
1.14217e-06
1.26103e-06
-1.2926e-06
1.22584e-06
2.13233e-06
1.19548e-06
-2.35598e-06
1.354e-06
6.90546e-07
1.32205e-06
1.64482e-06
1.23186e-06
9.68817e-08
1.21272e-06
-1.20925e-06
1.23883e-06
-4.96146e-07
1.24786e-06
4.23078e-07
1.25936e-06
4.66586e-07
1.23863e-06
3.2615e-07
1.23347e-06
7.88289e-08
1.21774e-06
1.06619e-07
1.22027e-06
-4.33749e-10
1.21378e-06
1.15118e-07
1.2175e-06
9.60793e-08
1.21197e-06
1.46609e-07
1.2089e-06
1.57478e-07
1.20271e-06
1.95271e-07
1.80927e-07
1.19614e-06
1.29254e-06
-1.36896e-06
1.28094e-06
2.14394e-06
1.24143e-06
-2.31647e-06
1.37884e-06
5.53137e-07
1.36409e-06
1.65956e-06
1.27515e-06
1.85825e-07
1.23265e-06
-1.16676e-06
1.26629e-06
-5.29785e-07
1.29507e-06
3.94298e-07
1.31087e-06
4.50784e-07
1.29143e-06
3.45594e-07
1.28055e-06
8.97085e-08
1.26323e-06
1.23944e-07
1.26153e-06
1.259e-09
1.25595e-06
1.20703e-07
1.26029e-06
9.17355e-08
1.25732e-06
1.49581e-07
1.25711e-06
1.5769e-07
1.25381e-06
1.98567e-07
1.85141e-07
1.2496e-06
1.32329e-06
-1.42989e-06
1.32818e-06
2.13904e-06
1.28662e-06
-2.27491e-06
1.39849e-06
4.41258e-07
1.39711e-06
1.66095e-06
1.31663e-06
2.66301e-07
1.26055e-06
-1.11068e-06
1.29407e-06
-5.63308e-07
1.33506e-06
3.53314e-07
1.35495e-06
4.30894e-07
1.33694e-06
3.63604e-07
1.32416e-06
1.02485e-07
1.3053e-06
1.42804e-07
1.3011e-06
5.45814e-09
1.29526e-06
1.26542e-07
1.2995e-06
8.75037e-08
1.29864e-06
1.50434e-07
1.30105e-06
1.55287e-07
1.30093e-06
1.98684e-07
1.86448e-07
1.29962e-06
1.35485e-06
-1.47446e-06
1.3709e-06
2.12299e-06
1.33202e-06
-2.23602e-06
1.41647e-06
3.5681e-07
1.42401e-06
1.6534e-06
1.35758e-06
3.32734e-07
1.29738e-06
-1.05048e-06
1.3252e-06
-5.91126e-07
1.36883e-06
3.09683e-07
1.39228e-06
4.07441e-07
1.37641e-06
3.79478e-07
1.36513e-06
1.13766e-07
1.34602e-06
1.61913e-07
1.3407e-06
1.07787e-08
1.33435e-06
1.32895e-07
1.33733e-06
8.45235e-08
1.33771e-06
1.50051e-07
1.34153e-06
1.51468e-07
1.34393e-06
1.96285e-07
1.85184e-07
1.34519e-06
1.38903e-06
-1.50347e-06
1.41255e-06
2.09947e-06
1.37823e-06
-2.2017e-06
1.43626e-06
2.98781e-07
1.44903e-06
1.64063e-06
1.3993e-06
3.82465e-07
1.34202e-06
-9.93196e-07
1.36123e-06
-6.10336e-07
1.39967e-06
2.71241e-07
1.42552e-06
3.81595e-07
1.41277e-06
3.92223e-07
1.40511e-06
1.2143e-07
1.3874e-06
1.79624e-07
1.3821e-06
1.60727e-08
1.37546e-06
1.39533e-07
1.37646e-06
8.35287e-08
1.37707e-06
1.49441e-07
1.38078e-06
1.47754e-07
1.38443e-06
1.92639e-07
1.82372e-07
1.38724e-06
1.42733e-06
-1.51915e-06
1.45578e-06
2.07102e-06
1.42578e-06
-2.1717e-06
1.46098e-06
2.63578e-07
1.47653e-06
1.62508e-06
1.44305e-06
4.15942e-07
1.39254e-06
-9.42683e-07
1.40277e-06
-6.20573e-07
1.43162e-06
2.42397e-07
1.45842e-06
3.54788e-07
1.4495e-06
4.01149e-07
1.44613e-06
1.24798e-07
1.43099e-06
1.94767e-07
1.42651e-06
2.05521e-08
1.42001e-06
1.46026e-07
1.41888e-06
8.46615e-08
1.41899e-06
1.49332e-07
1.42133e-06
1.45412e-07
1.42494e-06
1.89031e-07
1.79251e-07
1.42806e-06
1.47051e-06
-1.52441e-06
1.50203e-06
2.0395e-06
1.47517e-06
-2.14484e-06
1.49273e-06
2.46016e-07
1.50975e-06
1.60807e-06
1.4899e-06
4.35794e-07
1.44713e-06
-8.99921e-07
1.44984e-06
-6.23282e-07
1.46808e-06
2.24164e-07
1.49459e-06
3.28274e-07
1.48955e-06
4.06186e-07
1.49001e-06
1.24346e-07
1.47779e-06
2.06982e-07
1.4744e-06
2.39431e-08
1.4685e-06
1.51921e-07
1.46551e-06
8.76567e-08
1.46488e-06
1.49965e-07
1.46518e-06
1.45111e-07
1.46787e-06
1.86338e-07
1.76822e-07
1.4703e-06
1.51856e-06
-1.5221e-06
1.5517e-06
2.00637e-06
1.52674e-06
-2.11988e-06
1.53221e-06
2.40539e-07
1.5502e-06
1.59008e-06
1.54056e-06
4.45436e-07
1.50453e-06
-8.63893e-07
1.50197e-06
-6.20725e-07
1.51095e-06
2.15185e-07
1.53631e-06
3.02912e-07
1.53472e-06
4.07782e-07
1.53789e-06
1.21172e-07
1.52831e-06
2.1656e-07
1.52577e-06
2.64832e-08
1.52085e-06
1.56844e-07
1.51642e-06
9.20865e-08
1.51523e-06
1.51155e-07
1.51347e-06
1.46868e-07
1.51493e-06
1.84882e-07
1.75591e-07
1.51616e-06
1.57094e-06
-1.51443e-06
1.60455e-06
1.97276e-06
1.58055e-06
-2.09588e-06
1.57888e-06
2.42215e-07
1.59782e-06
1.57113e-06
1.59533e-06
4.4793e-07
1.56405e-06
-8.32611e-07
1.55839e-06
-6.1507e-07
1.56051e-06
2.13064e-07
1.58425e-06
2.79178e-07
1.58542e-06
4.06613e-07
1.59014e-06
1.16449e-07
1.58268e-06
2.24018e-07
1.58042e-06
2.8746e-08
1.57671e-06
1.60554e-07
1.57131e-06
9.74887e-08
1.56994e-06
1.52523e-07
1.56658e-06
1.50225e-07
1.56693e-06
1.84535e-07
1.75572e-07
1.56695e-06
1.627e-06
-1.50289e-06
1.66029e-06
1.93947e-06
1.63651e-06
-2.0721e-06
1.63149e-06
2.47228e-07
1.6517e-06
1.55093e-06
1.65417e-06
4.45466e-07
1.62549e-06
-8.03937e-07
1.61827e-06
-6.07846e-07
1.61592e-06
2.15414e-07
1.6378e-06
2.573e-07
1.64107e-06
4.03335e-07
1.64645e-06
1.11074e-07
1.64075e-06
2.29718e-07
1.6381e-06
3.13985e-08
1.63575e-06
1.62897e-07
1.62974e-06
1.03501e-07
1.62858e-06
1.53687e-07
1.6243e-06
1.54499e-07
1.62391e-06
1.84932e-07
1.7645e-07
1.62303e-06
1.68626e-06
-1.48841e-06
1.71885e-06
1.90689e-06
1.6945e-06
-2.04775e-06
1.68882e-06
2.52908e-07
1.71078e-06
1.52897e-06
1.71685e-06
4.39395e-07
1.68895e-06
-7.76035e-07
1.6809e-06
-5.99804e-07
1.67592e-06
2.20395e-07
1.69585e-06
2.37375e-07
1.7007e-06
3.98481e-07
1.70618e-06
1.05597e-07
1.70223e-06
2.33669e-07
1.69866e-06
3.49674e-08
1.69774e-06
1.63815e-07
1.69137e-06
1.09873e-07
1.69065e-06
1.54408e-07
1.68614e-06
1.59011e-07
1.6854e-06
1.85667e-07
1.77791e-07
1.68406e-06
1.74857e-06
-1.47166e-06
1.78042e-06
1.87504e-06
1.75456e-06
-2.02189e-06
1.74997e-06
2.575e-07
1.77424e-06
1.5047e-06
1.7831e-06
4.30528e-07
1.75459e-06
-7.47522e-07
1.74586e-06
-5.91071e-07
1.73947e-06
2.26779e-07
1.75744e-06
2.19412e-07
1.76345e-06
3.92466e-07
1.76869e-06
1.0036e-07
1.76679e-06
2.35572e-07
1.76202e-06
3.97332e-08
1.76249e-06
1.63348e-07
1.75593e-06
1.16431e-07
1.75569e-06
1.54644e-07
1.75149e-06
1.63216e-07
1.75074e-06
1.86413e-07
1.79185e-07
1.74935e-06
1.81398e-06
-1.4533e-06
1.84534e-06
1.84367e-06
1.81693e-06
-1.99348e-06
1.81455e-06
2.59884e-07
1.84158e-06
1.47766e-06
1.85267e-06
4.19446e-07
1.82262e-06
-7.17477e-07
1.81297e-06
-5.81419e-07
1.80596e-06
2.3379e-07
1.82206e-06
2.03308e-07
1.82893e-06
3.85594e-07
1.83361e-06
9.56872e-08
1.83414e-06
2.35038e-07
1.82813e-06
4.57437e-08
1.82987e-06
1.6161e-07
1.82326e-06
1.23042e-07
1.82337e-06
1.54534e-07
1.81981e-06
1.66768e-07
1.81926e-06
1.8697e-07
1.80332e-07
1.81811e-06
1.8826e-06
-1.434e-06
1.91386e-06
1.81242e-06
1.88198e-06
-1.9616e-06
1.88249e-06
2.59368e-07
1.91251e-06
1.44765e-06
1.92525e-06
4.06702e-07
1.8932e-06
-6.85422e-07
1.88232e-06
-5.70541e-07
1.87519e-06
2.4092e-07
1.88964e-06
1.88859e-07
1.89721e-06
3.78022e-07
1.9009e-06
9.19953e-08
1.9041e-06
2.31839e-07
1.89697e-06
5.28755e-08
1.89979e-06
1.58786e-07
1.89326e-06
1.29576e-07
1.89347e-06
1.54324e-07
1.89071e-06
1.69523e-07
1.89042e-06
1.87264e-07
1.81066e-07
1.88969e-06
1.95447e-06
-1.41436e-06
1.98599e-06
1.78089e-06
1.9501e-06
-1.9257e-06
1.95387e-06
2.55597e-07
1.98671e-06
1.4148e-06
2.00056e-06
3.92853e-07
1.96644e-06
-6.51299e-07
1.95414e-06
-5.58249e-07
1.94725e-06
2.47812e-07
1.96029e-06
1.75826e-07
1.9686e-06
3.6971e-07
1.97083e-06
8.97592e-08
1.97662e-06
2.26049e-07
1.96857e-06
6.09306e-08
1.97223e-06
1.55127e-07
1.96592e-06
1.35882e-07
1.96597e-06
1.54278e-07
1.96399e-06
1.71503e-07
1.96395e-06
1.87307e-07
1.81363e-07
1.96365e-06
2.02946e-06
-1.39478e-06
2.06159e-06
1.74876e-06
2.02159e-06
-1.8857e-06
2.02865e-06
2.48539e-07
2.06386e-06
1.37959e-06
2.07831e-06
3.78399e-07
2.04243e-06
-6.15418e-07
2.02875e-06
-5.44565e-07
2.02234e-06
2.54215e-07
2.0341e-06
1.64067e-07
2.04337e-06
3.60444e-07
2.04375e-06
8.93738e-08
2.05173e-06
2.1807e-07
2.04298e-06
6.96824e-08
2.04717e-06
1.50935e-07
2.04127e-06
1.41784e-07
2.04096e-06
1.54587e-07
2.03961e-06
1.7285e-07
2.03978e-06
1.87142e-07
1.81299e-07
2.03984e-06
2.10742e-06
-1.37535e-06
2.14039e-06
1.71579e-06
2.09662e-06
-1.84193e-06
2.10671e-06
2.38456e-07
2.14362e-06
1.34269e-06
2.15831e-06
3.63709e-07
2.12124e-06
-5.78348e-07
2.10638e-06
-5.29714e-07
2.10066e-06
2.5994e-07
2.11107e-06
1.53653e-07
2.12159e-06
3.49928e-07
2.11992e-06
9.10474e-08
2.12949e-06
2.08498e-07
2.12028e-06
7.88913e-08
2.12467e-06
1.46546e-07
2.11935e-06
1.47104e-07
2.11861e-06
1.5533e-07
2.1177e-06
1.73759e-07
2.11804e-06
1.86804e-07
1.80989e-07
2.11835e-06
2.18822e-06
-1.35599e-06
2.22227e-06
1.68174e-06
2.17524e-06
-1.79491e-06
2.18788e-06
2.25821e-07
2.22576e-06
1.3048e-06
2.24047e-06
3.49001e-07
2.20291e-06
-5.40785e-07
2.18722e-06
-5.14028e-07
2.18237e-06
2.6479e-07
2.19114e-06
1.44885e-07
2.20314e-06
3.37926e-07
2.19943e-06
9.47577e-08
2.20996e-06
1.97966e-07
2.20055e-06
8.83089e-08
2.20479e-06
1.42303e-07
2.20019e-06
1.51702e-07
2.19905e-06
1.56475e-07
2.19837e-06
1.74437e-07
2.19889e-06
1.86281e-07
1.8052e-07
2.19936e-06
2.27187e-06
-1.33647e-06
2.3072e-06
1.64642e-06
2.25744e-06
-1.74515e-06
2.27207e-06
2.11191e-07
2.31028e-06
1.26658e-06
2.32488e-06
3.34402e-07
2.28752e-06
-5.03423e-07
2.27133e-06
-4.97839e-07
2.26763e-06
2.68494e-07
2.27432e-06
1.38193e-07
2.28786e-06
3.24381e-07
2.28232e-06
1.003e-07
2.29323e-06
1.87055e-07
2.28387e-06
9.7677e-08
2.28765e-06
1.38522e-07
2.28383e-06
1.55521e-07
2.28238e-06
1.57924e-07
2.28172e-06
1.75093e-07
2.28252e-06
1.85487e-07
1.79915e-07
2.28312e-06
2.35849e-06
-1.31658e-06
2.39529e-06
1.60962e-06
2.34324e-06
-1.69309e-06
2.35934e-06
1.95091e-07
2.39734e-06
1.22858e-06
2.41172e-06
3.20022e-07
2.37518e-06
-4.66885e-07
2.35873e-06
-4.81382e-07
2.35654e-06
2.70681e-07
2.36079e-06
1.33941e-07
2.37571e-06
3.09469e-07
2.36863e-06
1.07372e-07
2.37941e-06
1.76276e-07
2.37034e-06
1.06749e-07
2.3734e-06
1.35468e-07
2.37033e-06
1.58584e-07
2.36857e-06
1.59685e-07
2.36769e-06
1.75971e-07
2.36906e-06
1.84124e-07
1.79156e-07
2.36981e-06
2.44825e-06
-1.29615e-06
2.4867e-06
1.57116e-06
2.43272e-06
-1.63911e-06
2.44986e-06
1.77953e-07
2.48721e-06
1.19122e-06
2.50123e-06
3.06007e-07
2.46604e-06
-4.31696e-07
2.44942e-06
-4.6476e-07
2.44917e-06
2.70931e-07
2.45082e-06
1.32283e-07
2.46675e-06
2.93542e-07
2.45849e-06
1.15638e-07
2.46866e-06
1.66105e-07
2.46012e-06
1.15287e-07
2.46221e-06
1.33374e-07
2.4599e-06
1.60896e-07
2.45719e-06
1.624e-07
2.45612e-06
1.77038e-07
2.45866e-06
1.81582e-07
1.78223e-07
2.4596e-06
2.5413e-06
-1.27506e-06
2.58157e-06
1.53089e-06
2.52598e-06
-1.58352e-06
2.54381e-06
1.60125e-07
2.58019e-06
1.15484e-06
2.59365e-06
2.92541e-07
2.56026e-06
-3.98298e-07
2.54341e-06
-4.47917e-07
2.54547e-06
2.68872e-07
2.54461e-06
1.33143e-07
2.56117e-06
2.76985e-07
2.55204e-06
1.24762e-07
2.56119e-06
1.56958e-07
2.55334e-06
1.23139e-07
2.55431e-06
1.32399e-07
2.55275e-06
1.62455e-07
2.55424e-06
1.60911e-07
2.55525e-06
1.76031e-07
2.55151e-06
1.85325e-07
1.77126e-07
2.5526e-06
2.63781e-06
-1.25319e-06
2.68003e-06
1.48868e-06
2.62314e-06
-1.52663e-06
2.64135e-06
1.4191e-07
2.67654e-06
1.11965e-06
2.68925e-06
2.79837e-07
2.65803e-06
-3.67079e-07
2.64077e-06
-4.30664e-07
2.64537e-06
2.6428e-07
2.64226e-06
1.36245e-07
2.65911e-06
2.60139e-07
2.64948e-06
1.34391e-07
2.65727e-06
1.49169e-07
2.65016e-06
1.30245e-07
2.65043e-06
1.32138e-07
2.64733e-06
1.65554e-07
2.64454e-06
1.63696e-07
2.64361e-06
1.76965e-07
2.64776e-06
1.8117e-07
1.75827e-07
2.64906e-06
2.73791e-06
-1.23044e-06
2.78219e-06
1.4444e-06
2.72428e-06
-1.46872e-06
2.7426e-06
1.23596e-07
2.77652e-06
1.08573e-06
2.78827e-06
2.68088e-07
2.7595e-06
-3.38308e-07
2.74163e-06
-4.12801e-07
2.74874e-06
2.57176e-07
2.74388e-06
1.41102e-07
2.76059e-06
2.43427e-07
2.75106e-06
1.4392e-07
2.75694e-06
1.43292e-07
2.75114e-06
1.36043e-07
2.75023e-06
1.33056e-07
2.74645e-06
1.69326e-07
2.74288e-06
1.67267e-07
2.74171e-06
1.78139e-07
2.74787e-06
1.75012e-07
1.74581e-07
2.74911e-06
2.84176e-06
-1.20674e-06
2.88819e-06
1.39796e-06
2.8295e-06
-1.41003e-06
2.84764e-06
1.05462e-07
2.88037e-06
1.053e-06
2.89097e-06
2.5749e-07
2.86483e-06
-3.12168e-07
2.84617e-06
-3.94146e-07
2.85556e-06
2.47793e-07
2.84951e-06
1.47145e-07
2.86564e-06
2.27298e-07
2.85699e-06
1.52573e-07
2.86038e-06
1.39897e-07
2.85629e-06
1.40134e-07
2.85537e-06
1.3398e-07
2.85855e-06
1.66148e-07
2.86045e-06
1.65366e-07
2.86072e-06
1.77867e-07
2.85211e-06
1.83621e-07
1.73717e-07
2.85297e-06
2.94951e-06
-1.18201e-06
2.99814e-06
1.34933e-06
2.93886e-06
-1.35075e-06
2.95654e-06
8.77838e-08
2.98836e-06
1.02118e-06
2.99761e-06
2.48234e-07
2.97416e-06
-2.88712e-07
2.95459e-06
-3.74584e-07
2.9659e-06
2.36486e-07
2.95915e-06
1.539e-07
2.97443e-06
2.12011e-07
2.96712e-06
1.59886e-07
2.96818e-06
1.38842e-07
2.9654e-06
1.42905e-07
2.95934e-06
1.40044e-07
2.95665e-06
1.68836e-07
2.95193e-06
1.70091e-07
2.95071e-06
1.7908e-07
2.96024e-06
1.74091e-07
1.72848e-07
2.96111e-06
3.06135e-06
-1.15619e-06
3.11216e-06
1.29852e-06
3.05244e-06
-1.29104e-06
3.06942e-06
7.08001e-08
3.1007e-06
9.899e-07
3.10846e-06
2.40475e-07
3.08759e-06
-2.67844e-07
3.06713e-06
-3.54124e-07
3.07989e-06
2.23727e-07
3.07279e-06
1.61002e-07
3.08724e-06
1.97563e-07
3.08119e-06
1.65934e-07
3.0807e-06
1.39331e-07
3.07951e-06
1.4409e-07
3.07824e-06
1.41316e-07
3.08357e-06
1.63505e-07
3.08516e-06
1.68504e-07
3.08563e-06
1.78605e-07
3.07284e-06
1.86886e-07
1.7213e-07
3.07356e-06
3.17746e-06
-1.1293e-06
3.23033e-06
1.24565e-06
3.17032e-06
-1.23103e-06
3.18637e-06
5.4759e-08
3.21766e-06
9.58609e-07
3.22373e-06
2.34399e-07
3.20533e-06
-2.49435e-07
3.18389e-06
-3.32692e-07
3.1978e-06
2.09817e-07
3.19047e-06
1.68333e-07
3.20438e-06
1.83652e-07
3.19863e-06
1.71686e-07
3.19919e-06
1.3878e-07
3.19671e-06
1.46567e-07
3.19554e-06
1.42485e-07
3.18468e-06
1.7436e-07
3.17998e-06
1.73205e-07
3.18042e-06
1.7817e-07
3.18924e-06
1.78066e-07
1.70487e-07
3.19088e-06
3.29804e-06
-1.10133e-06
3.35278e-06
1.19091e-06
3.29263e-06
-1.17087e-06
3.30756e-06
3.98298e-08
3.33934e-06
9.26828e-07
3.34377e-06
2.29968e-07
3.32737e-06
-2.33034e-07
3.30537e-06
-3.10692e-07
3.31955e-06
1.95636e-07
3.31286e-06
1.75019e-07
3.3254e-06
1.71111e-07
3.32132e-06
1.75771e-07
3.32085e-06
1.39245e-07
3.31304e-06
1.54384e-07
3.30708e-06
1.48441e-07
3.30412e-06
1.7732e-07
3.30088e-06
1.76448e-07
3.30077e-06
1.78275e-07
3.31104e-06
1.678e-07
1.68763e-07
3.31276e-06
3.4233e-06
-1.07234e-06
3.47963e-06
1.13458e-06
3.41951e-06
-1.11075e-06
3.43318e-06
2.61511e-08
3.46583e-06
8.94182e-07
3.46886e-06
2.26933e-07
3.45372e-06
-2.17888e-07
3.43196e-06
-2.88933e-07
3.44522e-06
1.82377e-07
3.44047e-06
1.79762e-07
3.45024e-06
1.61343e-07
3.44925e-06
1.76759e-07
3.44395e-06
1.44553e-07
3.45112e-06
1.47213e-07
3.45009e-06
1.49468e-07
3.45471e-06
1.72698e-07
3.45702e-06
1.74141e-07
3.45703e-06
1.78269e-07
3.43861e-06
1.86219e-07
1.68219e-07
3.43915e-06
3.55346e-06
-1.04245e-06
3.61103e-06
1.07701e-06
3.55118e-06
-1.0509e-06
3.56337e-06
1.39548e-08
3.59743e-06
8.60128e-07
3.59884e-06
2.25522e-07
3.58509e-06
-2.04135e-07
3.56311e-06
-2.66953e-07
3.57621e-06
1.69269e-07
3.57144e-06
1.84532e-07
3.58168e-06
1.51104e-07
3.57932e-06
1.79127e-07
3.57654e-06
1.47332e-07
3.57003e-06
1.53723e-07
3.56431e-06
1.55187e-07
3.55966e-06
1.77349e-07
3.55629e-06
1.77511e-07
3.55752e-06
1.77037e-07
3.56905e-06
1.7469e-07
1.66092e-07
3.57117e-06
3.68872e-06
-1.01179e-06
3.74716e-06
1.01857e-06
3.68782e-06
-9.91556e-07
3.69844e-06
3.33843e-09
3.73395e-06
8.24614e-07
3.73414e-06
2.2533e-07
3.72108e-06
-1.91067e-07
3.69984e-06
-2.45718e-07
3.71173e-06
1.57381e-07
3.7081e-06
1.88155e-07
3.71727e-06
1.41934e-07
3.7164e-06
1.79997e-07
3.71549e-06
1.48244e-07
3.70548e-06
1.63739e-07
3.69994e-06
1.60727e-07
3.69518e-06
1.82105e-07
3.69176e-06
1.80937e-07
3.69198e-06
1.76813e-07
3.7057e-06
1.60971e-07
1.63914e-07
3.70788e-06
3.82929e-06
-9.80487e-07
3.88824e-06
9.59617e-07
3.82965e-06
-9.3297e-07
3.83867e-06
-5.67445e-09
3.87539e-06
7.8789e-07
3.87513e-06
2.25587e-07
3.86146e-06
-1.77397e-07
3.84266e-06
-2.26916e-07
3.85156e-06
1.48477e-07
3.85129e-06
1.88424e-07
3.85446e-06
1.38769e-07
3.8582e-06
1.76256e-07
3.84875e-06
1.57692e-07
3.86383e-06
1.48659e-07
3.86602e-06
1.58534e-07
3.87097e-06
1.7716e-07
3.87374e-06
1.78169e-07
3.8715e-06
1.7905e-07
3.8491e-06
1.83369e-07
1.63822e-07
3.84919e-06
3.97539e-06
-9.48726e-07
4.03445e-06
9.00562e-07
3.97701e-06
-8.75536e-07
3.98405e-06
-1.27134e-08
4.02238e-06
7.49559e-07
4.02115e-06
2.26821e-07
4.00816e-06
-1.64407e-07
3.98903e-06
-2.07784e-07
3.99949e-06
1.38013e-07
3.99584e-06
1.9208e-07
4.00522e-06
1.29384e-07
4.00882e-06
1.72661e-07
4.00682e-06
1.59691e-07
3.9911e-06
1.64378e-07
3.98639e-06
1.63238e-07
3.98177e-06
1.81786e-07
3.97856e-06
1.81375e-07
3.98011e-06
1.775e-07
3.99379e-06
1.69692e-07
1.60621e-07
3.99699e-06
4.1272e-06
-9.16641e-07
4.18605e-06
8.41711e-07
4.13003e-06
-8.19515e-07
4.13515e-06
-1.78363e-08
4.17452e-06
7.10185e-07
4.17314e-06
2.28207e-07
4.15979e-06
-1.51061e-07
4.14164e-06
-1.89635e-07
4.15222e-06
1.27432e-07
4.1473e-06
1.97006e-07
4.15729e-06
1.19395e-07
4.14982e-06
1.8013e-07
4.14367e-06
1.65837e-07
4.13988e-06
1.6817e-07
4.13795e-06
1.6517e-07
4.13348e-06
1.86251e-07
4.13026e-06
1.84602e-07
4.13114e-06
1.76617e-07
4.14636e-06
1.5447e-07
1.57436e-07
4.14955e-06
4.2849e-06
-8.84349e-07
4.34327e-06
7.83339e-07
4.28886e-06
-7.65102e-07
4.2924e-06
-2.13771e-08
4.33179e-06
6.70794e-07
4.33181e-06
2.28187e-07
4.31588e-06
-1.35133e-07
4.30155e-06
-1.75308e-07
4.30854e-06
1.20441e-07
4.30776e-06
1.97785e-07
4.30629e-06
1.20868e-07
4.32407e-06
1.62349e-07
4.32165e-06
1.68264e-07
4.32534e-06
1.64473e-07
4.32892e-06
1.61589e-07
4.33587e-06
1.79306e-07
4.34023e-06
1.80237e-07
4.33521e-06
1.81641e-07
4.3075e-06
1.82175e-07
1.58212e-07
4.30673e-06
4.44876e-06
-8.52023e-07
4.50626e-06
7.25843e-07
4.45399e-06
-7.12833e-07
4.45533e-06
-2.2717e-08
4.49557e-06
6.30553e-07
4.49538e-06
2.28375e-07
4.48046e-06
-1.20217e-07
4.46377e-06
-1.58617e-07
4.4752e-06
1.09014e-07
4.4682e-06
2.0478e-07
4.4785e-06
1.10574e-07
4.47128e-06
1.69563e-07
4.46565e-06
1.73894e-07
4.45794e-06
1.72185e-07
4.45772e-06
1.61815e-07
4.45397e-06
1.8305e-07
4.45183e-06
1.82384e-07
4.45428e-06
1.79182e-07
4.4683e-06
1.68162e-07
1.54785e-07
4.47172e-06
4.61893e-06
-8.19749e-07
4.67539e-06
6.69385e-07
4.62529e-06
-6.62734e-07
4.6251e-06
-2.25254e-08
4.66477e-06
5.90881e-07
4.66627e-06
2.26881e-07
4.64951e-06
-1.03457e-07
4.63459e-06
-1.43697e-07
4.64503e-06
9.85748e-08
4.63639e-06
2.13419e-07
4.63874e-06
1.0822e-07
4.63875e-06
1.69559e-07
4.63715e-06
1.7549e-07
4.62664e-06
1.82698e-07
4.62679e-06
1.61658e-07
4.62414e-06
1.85706e-07
4.62149e-06
1.85031e-07
4.62364e-06
1.77037e-07
4.63914e-06
1.52654e-07
1.52241e-07
4.64169e-06
4.79563e-06
-7.87593e-07
4.85091e-06
6.14107e-07
4.80295e-06
-6.14776e-07
4.80208e-06
-2.16541e-08
4.83942e-06
5.53536e-07
4.84533e-06
2.20974e-07
4.82315e-06
-8.12715e-08
4.81492e-06
-1.35471e-07
4.81603e-06
9.7468e-08
4.82367e-06
2.05775e-07
4.8101e-06
1.21792e-07
4.83031e-06
1.49352e-07
4.82738e-06
1.7842e-07
4.84067e-06
1.69403e-07
4.84575e-06
1.56575e-07
4.85647e-06
1.74994e-07
4.86097e-06
1.80527e-07
4.85358e-06
1.84428e-07
4.821e-06
1.8523e-07
1.56821e-07
4.81642e-06
4.97921e-06
-7.55729e-07
5.03288e-06
5.60436e-07
4.98771e-06
-5.69605e-07
4.9851e-06
-1.90442e-08
5.02232e-06
5.16315e-07
5.02751e-06
2.1578e-07
5.00838e-06
-6.21362e-08
4.99498e-06
-1.22073e-07
5.00098e-06
9.14611e-08
4.99881e-06
2.07948e-07
4.9926e-06
1.28001e-07
4.9957e-06
1.46258e-07
4.99427e-06
1.79851e-07
4.98721e-06
1.76455e-07
4.98371e-06
1.60076e-07
4.98585e-06
1.72855e-07
4.98123e-06
1.85145e-07
4.98317e-06
1.8249e-07
4.99988e-06
1.68522e-07
1.55826e-07
5.00087e-06
5.16976e-06
-7.24179e-07
5.22189e-06
5.08307e-07
5.17913e-06
-5.26846e-07
5.17605e-06
-1.59602e-08
5.21136e-06
4.81001e-07
5.21718e-06
2.09963e-07
5.20031e-06
-4.52663e-08
5.18167e-06
-1.03431e-07
5.19467e-06
7.84647e-08
5.1872e-06
2.15412e-07
5.18312e-06
1.32083e-07
5.1826e-06
1.46774e-07
5.18437e-06
1.78087e-07
5.17731e-06
1.83508e-07
5.17423e-06
1.63156e-07
5.17479e-06
1.72295e-07
5.17804e-06
1.81896e-07
5.18391e-06
1.76627e-07
5.1882e-06
1.6423e-07
1.52502e-07
5.19152e-06
5.36761e-06
-6.93007e-07
5.41808e-06
4.57835e-07
5.37763e-06
-4.86402e-07
5.37501e-06
-1.33426e-08
5.4067e-06
4.49315e-07
5.41511e-06
2.0155e-07
5.39726e-06
-2.7414e-08
5.37912e-06
-8.52906e-08
5.38823e-06
6.93512e-08
5.38572e-06
2.17929e-07
5.37764e-06
1.40163e-07
5.37859e-06
1.45825e-07
5.38048e-06
1.76189e-07
5.37562e-06
1.88369e-07
5.37142e-06
1.67357e-07
5.37349e-06
1.70231e-07
5.37907e-06
1.76308e-07
5.38399e-06
1.71714e-07
5.38531e-06
1.62907e-07
1.48821e-07
5.38899e-06
5.57304e-06
-6.62309e-07
5.62165e-06
4.09226e-07
5.58365e-06
-4.48401e-07
5.58146e-06
-1.11515e-08
5.61005e-06
4.20727e-07
5.61958e-06
1.92014e-07
5.6023e-06
-1.01375e-08
5.58373e-06
-6.67193e-08
5.59039e-06
6.26974e-08
5.59119e-06
2.1713e-07
5.58124e-06
1.50107e-07
5.58219e-06
1.44881e-07
5.58405e-06
1.74323e-07
5.58147e-06
1.90947e-07
5.57698e-06
1.71847e-07
5.57964e-06
1.67575e-07
5.58363e-06
1.72322e-07
5.58614e-06
1.69204e-07
5.59035e-06
1.58696e-07
1.45226e-07
5.59394e-06
5.78629e-06
-6.32114e-07
5.83309e-06
3.62422e-07
5.79715e-06
-4.1246e-07
5.79623e-06
-1.0231e-08
5.821e-06
3.95954e-07
5.83165e-06
1.81365e-07
5.81496e-06
6.55207e-09
5.79623e-06
-4.7988e-08
5.80063e-06
5.82982e-08
5.80394e-06
2.13814e-07
5.79336e-06
1.60695e-07
5.79361e-06
1.44625e-07
5.79555e-06
1.72387e-07
5.79509e-06
1.91399e-07
5.7909e-06
1.76045e-07
5.79289e-06
1.65585e-07
5.79739e-06
1.67822e-07
5.80245e-06
1.64142e-07
5.80351e-06
1.57634e-07
1.42074e-07
5.80666e-06
6.00767e-06
-6.02488e-07
6.05261e-06
3.17483e-07
6.01859e-06
-3.78442e-07
6.01907e-06
-1.07052e-08
6.04038e-06
3.74638e-07
6.05133e-06
1.70418e-07
6.03571e-06
2.21692e-08
6.01692e-06
-2.91958e-08
6.01918e-06
5.60438e-08
6.02446e-06
2.08526e-07
6.01425e-06
1.70912e-07
6.01326e-06
1.45617e-07
6.01532e-06
1.70322e-07
6.01651e-06
1.90207e-07
6.01322e-06
1.79342e-07
6.01386e-06
1.64939e-07
6.01719e-06
1.64491e-07
6.01818e-06
1.63154e-07
6.02485e-06
1.50969e-07
1.39313e-07
6.02761e-06
6.2375e-06
-5.7349e-07
6.28053e-06
2.7446e-07
6.24828e-06
-3.462e-07
6.25008e-06
-1.24999e-08
6.26867e-06
3.56046e-07
6.27899e-06
1.60101e-07
6.2649e-06
3.62549e-08
6.246e-06
-1.02981e-08
6.24634e-06
5.57127e-08
6.25323e-06
2.01629e-07
6.24388e-06
1.80262e-07
6.24145e-06
1.48053e-07
6.24364e-06
1.68134e-07
6.24594e-06
1.87897e-07
6.24388e-06
1.81405e-07
6.24346e-06
1.65356e-07
6.24774e-06
1.60212e-07
6.25414e-06
1.56752e-07
6.25465e-06
1.50462e-07
1.369e-07
6.25707e-06
6.47608e-06
-5.45162e-07
6.51716e-06
2.33376e-07
6.48664e-06
-3.15677e-07
6.48944e-06
-1.53045e-08
6.50625e-06
3.39237e-07
6.51501e-06
1.51339e-07
6.50273e-06
4.85413e-08
6.48388e-06
8.54787e-09
6.48254e-06
5.70526e-08
6.49047e-06
1.93704e-07
6.48243e-06
1.88297e-07
6.47866e-06
1.51826e-07
6.48094e-06
1.6585e-07
6.48378e-06
1.85059e-07
6.4832e-06
1.81983e-07
6.48205e-06
1.66507e-07
6.48469e-06
1.57577e-07
6.48598e-06
1.55462e-07
6.49293e-06
1.4351e-07
1.34436e-07
6.49539e-06
6.72373e-06
-5.17549e-07
6.76284e-06
1.94263e-07
6.7339e-06
-2.86737e-07
6.73755e-06
-1.89527e-08
6.7533e-06
3.23488e-07
6.76011e-06
1.44522e-07
6.74942e-06
5.92319e-08
6.73103e-06
2.69438e-08
6.72807e-06
6.00079e-08
6.7364e-06
1.85373e-07
6.73009e-06
1.94614e-07
6.72524e-06
1.56674e-07
6.72741e-06
1.63678e-07
6.73038e-06
1.82091e-07
6.73126e-06
1.81101e-07
6.72993e-06
1.67835e-07
6.73318e-06
1.54327e-07
6.73871e-06
1.49938e-07
6.74021e-06
1.4201e-07
1.3161e-07
6.74303e-06
6.98078e-06
-4.90678e-07
7.01788e-06
1.57158e-07
6.99056e-06
-2.59409e-07
6.99473e-06
-2.31261e-08
7.01e-06
3.08221e-07
7.01477e-06
1.39749e-07
7.00527e-06
6.87264e-08
6.98772e-06
4.45034e-08
6.98322e-06
6.45067e-08
6.99151e-06
1.77085e-07
6.98723e-06
1.98893e-07
6.9816e-06
1.623e-07
6.98344e-06
1.61839e-07
6.98635e-06
1.79177e-07
6.98849e-06
1.78965e-07
6.98757e-06
1.6875e-07
6.98921e-06
1.52695e-07
6.99066e-06
1.48488e-07
6.99686e-06
1.35811e-07
1.28351e-07
7.00011e-06
7.2476e-06
-4.64587e-07
7.28259e-06
1.22167e-07
7.25693e-06
-2.33748e-07
7.26138e-06
-2.7574e-08
7.27768e-06
2.91916e-07
7.27957e-06
1.37863e-07
7.27075e-06
7.75413e-08
7.25433e-06
6.09297e-08
7.24842e-06
7.0407e-08
7.25631e-06
1.69196e-07
7.25409e-06
2.01121e-07
7.24792e-06
1.68462e-07
7.24925e-06
1.60507e-07
7.25206e-06
1.76368e-07
7.25505e-06
1.75974e-07
7.25498e-06
1.68828e-07
7.25689e-06
1.50784e-07
7.26177e-06
1.4361e-07
7.26323e-06
1.34344e-07
1.24781e-07
7.2668e-06
7.52453e-06
-4.39288e-07
7.5574e-06
8.92938e-08
7.53335e-06
-2.09694e-07
7.53802e-06
-3.22413e-08
7.55612e-06
2.73816e-07
7.5541e-06
1.39879e-07
7.54626e-06
8.53853e-08
7.53105e-06
7.61404e-08
7.52399e-06
7.74643e-08
7.53112e-06
1.6207e-07
7.53089e-06
2.01351e-07
7.52468e-06
1.74666e-07
7.52543e-06
1.59758e-07
7.52819e-06
1.73603e-07
7.53165e-06
1.72522e-07
7.53255e-06
1.6792e-07
7.53325e-06
1.50091e-07
7.53464e-06
1.42216e-07
7.53987e-06
1.29112e-07
1.20987e-07
7.54367e-06
7.81194e-06
-4.14768e-07
7.84291e-06
5.83237e-08
7.81996e-06
-1.86745e-07
7.82512e-06
-3.74072e-08
7.83818e-06
2.60761e-07
7.83811e-06
1.39943e-07
7.83246e-06
9.10377e-08
7.81828e-06
9.03231e-08
7.81038e-06
8.53654e-08
7.81648e-06
1.55963e-07
7.81806e-06
1.99775e-07
7.81218e-06
1.8055e-07
7.81219e-06
1.59744e-07
7.81494e-06
1.70857e-07
7.81846e-06
1.68997e-07
7.82029e-06
1.66098e-07
7.82157e-06
1.48805e-07
7.82572e-06
1.38069e-07
7.82715e-06
1.27677e-07
1.1711e-07
7.83103e-06
8.11022e-06
-3.91023e-07
8.13913e-06
2.94144e-08
8.11735e-06
-1.64967e-07
8.12371e-06
-4.37654e-08
8.14322e-06
2.41247e-07
8.14678e-06
1.3638e-07
8.13137e-06
1.0645e-07
8.1161e-06
1.05594e-07
8.10789e-06
9.35747e-08
8.11278e-06
1.51077e-07
8.11586e-06
1.96694e-07
8.11079e-06
1.8562e-07
8.11e-06
1.60528e-07
8.11276e-06
1.68098e-07
8.11612e-06
1.65643e-07
8.11884e-06
1.63371e-07
8.11973e-06
1.47924e-07
8.1211e-06
1.36693e-07
8.12547e-06
1.23305e-07
1.13474e-07
8.12911e-06
8.41984e-06
-3.68103e-07
8.44594e-06
3.31356e-09
8.42688e-06
-1.45903e-07
8.43186e-06
-4.87511e-08
8.44927e-06
2.23837e-07
8.44383e-06
1.41823e-07
8.4368e-06
1.13477e-07
8.42546e-06
1.16938e-07
8.41715e-06
1.01886e-07
8.42071e-06
1.47513e-07
8.4249e-06
1.92507e-07
8.42095e-06
1.89566e-07
8.41933e-06
1.62153e-07
8.42203e-06
1.65401e-07
8.4252e-06
1.62472e-07
8.42861e-06
1.59954e-07
8.43012e-06
1.4642e-07
8.43355e-06
1.33255e-07
8.43514e-06
1.2172e-07
1.10145e-07
8.43847e-06
8.74115e-06
-3.45966e-07
8.76489e-06
-2.04259e-08
8.74752e-06
-1.28533e-07
8.75048e-06
-5.17134e-08
8.76651e-06
2.07811e-07
8.7632e-06
1.45128e-07
8.75606e-06
1.20614e-07
8.74624e-06
1.26759e-07
8.73822e-06
1.09907e-07
8.74052e-06
1.45209e-07
8.74538e-06
1.87654e-07
8.74282e-06
1.92122e-07
8.74067e-06
1.64305e-07