/*--------------------------------*- C++ -*----------------------------------*\
| =========                 |                                                 |
| \\      /  F ield         | OpenFOAM: The Open Source CFD Toolbox           |
|  \\    /   O peration     | Version:  v2012                                 |
|   \\  /    A nd           | Website:  www.openfoam.com                      |
|    \\/     M anipulation  |                                                 |
\*---------------------------------------------------------------------------*/
FoamFile
{
    version     2.0;
    format      ascii;
    class       volScalarField;
    location    "6.2";
    object      p;
}
// * * * * * * * * * * * * * * * * * * * * * * * * * * * * * * * * * * * * * //

dimensions      [0 2 -2 0 0 0 0];


internalField   nonuniform List<scalar> 
7000
(
3.66158e-10
0.000819081
0.00167289
0.00144896
0.00173708
0.00603795
0.000460906
0.000771884
0.000689047
0.000143833
0.00317635
0.00579976
0.00603519
0.008292
0.00997312
0.0125725
0.015056
0.0187164
0.0224076
0.0288608
-6.2518e-07
0.000818926
0.0016742
0.00144639
0.00174755
0.00596899
0.000475442
0.000770716
0.000683782
0.000226031
0.00316967
0.00579887
0.00603132
0.00828852
0.0099774
0.012556
0.0150695
0.0186702
0.0224418
0.028591
-1.54144e-06
0.000818878
0.00167588
0.00144306
0.00175934
0.00589903
0.000500365
0.000775965
0.000684188
0.000298547
0.00315692
0.00579344
0.00602607
0.00828329
0.00997543
0.0125339
0.0150702
0.0186064
0.0224589
0.0281302
-2.48425e-06
0.000818873
0.0016775
0.00143851
0.00176566
0.00582675
0.000524979
0.000794864
0.000682781
0.000368632
0.0031416
0.00578216
0.00601982
0.00827334
0.0099693
0.012506
0.0150623
0.0185342
0.0224336
0.0276559
-3.46952e-06
0.000818863
0.00167901
0.00143219
0.00176827
0.00574975
0.000549766
0.00082255
0.000676756
0.000437942
0.00312472
0.00576598
0.0060132
0.00825813
0.00996316
0.0124705
0.0150544
0.0184478
0.0223759
0.0272067
-4.5342e-06
0.000818859
0.00168039
0.00142438
0.00176948
0.00566938
0.000575968
0.000854118
0.000667911
0.00050662
0.00310759
0.00574641
0.0060071
0.00823833
0.00995882
0.0124283
0.0150462
0.0183473
0.0222947
0.0267803
-5.68783e-06
0.000818872
0.00168165
0.00141568
0.00177016
0.00558641
0.00060346
0.000887344
0.000658553
0.000574625
0.00309153
0.00572412
0.00600221
0.00821416
0.00995684
0.0123798
0.0150356
0.0182359
0.0221908
0.0263674
-6.93299e-06
0.000818902
0.00168275
0.00140665
0.00177082
0.00550087
0.000631956
0.000921218
0.000650268
0.000641952
0.00307732
0.00569901
0.0059989
0.00818543
0.00995696
0.0123249
0.0150211
0.0181158
0.0220625
0.025962
-8.2726e-06
0.000818945
0.0016837
0.00139775
0.00177203
0.00541252
0.000661392
0.000955219
0.000643924
0.00070836
0.00306517
0.0056707
0.0059973
0.00815181
0.00995873
0.0122641
0.0150013
0.0179888
0.0219084
0.0255607
-9.70917e-06
0.000818997
0.00168451
0.00138927
0.00177412
0.00532113
0.000691815
0.000988951
0.000639833
0.000773339
0.0030551
0.00563884
0.00599744
0.00811312
0.00996164
0.0121979
0.0149746
0.0178558
0.0217278
0.0251609
-1.12445e-05
0.000819053
0.00168518
0.00138123
0.00177723
0.00522662
0.00072326
0.00102197
0.000638025
0.000836287
0.00304708
0.00560312
0.00599937
0.00806938
0.00996495
0.0121273
0.0149395
0.0177174
0.0215211
0.0247594
-1.28797e-05
0.000819103
0.00168576
0.00137352
0.00178138
0.00512899
0.000755733
0.00105381
0.000638472
0.000896616
0.00304121
0.00556341
0.00600303
0.00802081
0.00996759
0.0120537
0.0148943
0.0175735
0.0212889
0.0243533
-1.46157e-05
0.000819129
0.00168627
0.00136592
0.00178658
0.00502831
0.000789251
0.00108403
0.000641204
0.000953804
0.00303763
0.00551967
0.00600816
0.00796799
0.00996818
0.0119782
0.0148372
0.0174238
0.0210322
0.0239393
-1.64536e-05
0.000819111
0.00168674
0.00135823
0.00179285
0.00492468
0.000823837
0.00111229
0.000646329
0.00100743
0.00303654
0.00547192
0.00601415
0.0079119
0.00996511
0.0119013
0.0147666
0.0172676
0.0207524
0.0235147
-1.83953e-05
0.000819022
0.00168723
0.00135033
0.00180029
0.00481822
0.000859491
0.00113832
0.000654012
0.00105722
0.00303807
0.00542031
0.00602015
0.00785377
0.00995675
0.0118236
0.0146808
0.0171037
0.0204513
0.0230779
-2.04428e-05
0.000818837
0.00168774
0.00134213
0.001809
0.00470903
0.00089622
0.00116194
0.000664436
0.00110302
0.00304221
0.00536513
0.00602501
0.00779479
0.00994141
0.0117453
0.0145789
0.01693
0.0201304
0.0226279
-2.25981e-05
0.000818533
0.00168832
0.00133358
0.00181905
0.00459726
0.00093402
0.00118306
0.000677774
0.00114473
0.0030488
0.00530699
0.00602731
0.00773611
0.00991747
0.0116662
0.0144608
0.0167443
0.0197909
0.0221646
-2.48613e-05
0.000818085
0.00168898
0.00132456
0.00183048
0.0044831
0.000972828
0.00120157
0.000694183
0.00118242
0.00305734
0.00524687
0.00602547
0.00767871
0.00988385
0.0115849
0.0143269
0.0165457
0.019434
0.0216884
-2.723e-05
0.000817469
0.00168975
0.00131491
0.00184326
0.00436679
0.00101255
0.00121741
0.00071369
0.00121628
0.00306697
0.00518609
0.00601792
0.00762323
0.00984024
0.0114994
0.014177
0.0163338
0.0190616
0.0211996
-2.96988e-05
0.000816655
0.00169062
0.00130442
0.00185728
0.00424857
0.00105305
0.00123062
0.000736091
0.00124673
0.00307655
0.00512604
0.00600343
0.00756955
0.00978707
0.0114079
0.0140107
0.0161079
0.018676
0.0206995
-3.22591e-05
0.00081561
0.00169162
0.00129287
0.00187239
0.00412868
0.00109415
0.0012413
0.000761035
0.00127444
0.00308467
0.00506794
0.00598131
0.00751677
0.00972483
0.0113096
0.0138283
0.0158664
0.0182781
0.0201898
-3.49001e-05
0.000814296
0.00169274
0.00128013
0.0018884
0.00400737
0.00113558
0.00124957
0.000788008
0.00130039
0.00308985
0.00501267
0.0059514
0.00746376
0.00965362
0.011203
0.0136317
0.0156094
0.017868
0.0196718
-3.76074e-05
0.000812662
0.00169397
0.00126612
0.00190509
0.00388485
0.00117706
0.00125574
0.000816192
0.00132564
0.00309091
0.00496074
0.00591361
0.00740949
0.00957456
0.0110851
0.0134203
0.0153398
0.0174479
0.019145
-4.03613e-05
0.000810647
0.00169534
0.00125086
0.00192221
0.0037613
0.0012182
0.00126028
0.000844626
0.00135119
0.00308679
0.00491249
0.00586811
0.00735166
0.00949047
0.0109558
0.0131895
0.0150577
0.0170238
0.0186117
-4.31377e-05
0.000808184
0.00169685
0.00123441
0.0019395
0.00363696
0.0012586
0.00126362
0.000872277
0.00137819
0.0030766
0.00486765
0.00581614
0.00728686
0.00940109
0.0108192
0.0129395
0.014756
0.0165967
0.0180774
-4.59132e-05
0.000805205
0.00169851
0.00121687
0.00195666
0.00351207
0.00129785
0.00126646
0.000897643
0.00140743
0.0030601
0.00482544
0.00575926
0.00721361
0.00930292
0.010675
0.0126766
0.0144353
0.0161628
0.0175427
-4.86579e-05
0.000801621
0.00170035
0.00119826
0.0019734
0.00338706
0.0013352
0.00126967
0.000919802
0.00143917
0.00303676
0.00478486
0.00569925
0.00713061
0.00919673
0.0105191
0.012399
0.0141008
0.0157265
0.017007
-5.13273e-05
0.000797325
0.00170241
0.0011786
0.00198937
0.00326241
0.00137005
0.00127358
0.000938243
0.00147394
0.00300707
0.00474284
0.00563909
0.00703551
0.00908155
0.0103552
0.0121051
0.0137494
0.0152898
0.0164742
-5.38903e-05
0.000792226
0.00170471
0.00115789
0.00200442
0.00313851
0.00140171
0.00127912
0.000951713
0.00151119
0.00297259
0.00469842
0.00557835
0.00692931
0.0089532
0.010181
0.0118031
0.0133872
0.0148371
0.0159422
-5.63064e-05
0.000786215
0.00170725
0.00113621
0.00201811
0.00301632
0.00142895
0.0012873
0.00095956
0.0015507
0.00293141
0.00465304
0.00551688
0.00681174
0.00881244
0.00999549
0.0114799
0.0130133
0.0144052
0.015413
-5.84752e-05
0.000779152
0.00171001
0.00111373
0.00203003
0.00289647
0.00145112
0.00129826
0.000961228
0.001593
0.00288621
0.0045982
0.00546049
0.00668434
0.00864955
0.00980578
0.0111462
0.0126114
0.0139902
0.0148938
-6.04245e-05
0.000771006
0.00171288
0.0010905
0.00204003
0.00277962
0.00146747
0.00131244
0.000956372
0.00163551
0.0028434
0.00453039
0.0054048
0.00655009
0.00846694
0.00960612
0.0108218
0.0121959
0.0135018
0.0143772
-6.20882e-05
0.000761613
0.00171588
0.00106655
0.00204739
0.00266687
0.00147719
0.00132931
0.000948422
0.00167228
0.00280285
0.00445341
0.00534909
0.00640591
0.00827267
0.00938621
0.0104795
0.0117672
0.0130673
0.013872
-6.31907e-05
0.000750636
0.00171917
0.00104214
0.00205212
0.00255813
0.00148034
0.0013486
0.000937132
0.00170598
0.00276618
0.0043573
0.00529991
0.00625835
0.00805336
0.00916854
0.0101443
0.0113041
0.012511
0.0133854
-6.39904e-05
0.000738351
0.00172194
0.00101822
0.00205352
0.00245505
0.00147534
0.0013718
0.000917285
0.00174135
0.00273191
0.00425226
0.00523394
0.00611893
0.00780917
0.00891422
0.00980647
0.0108511
0.0120151
0.0128888
-6.43581e-05
0.000724592
0.00172411
0.000994681
0.00205011
0.00235919
0.00146133
0.00139722
0.000893039
0.00176486
0.00270407
0.00414404
0.00515211
0.00596893
0.00754733
0.00862677
0.00944641
0.0104202
0.0116352
0.0123851
-6.37655e-05
0.000708678
0.00172725
0.000970943
0.00204273
0.00226839
0.00144202
0.00141975
0.000878784
0.00177028
0.00268544
0.00401637
0.00506928
0.00581472
0.007287
0.00833847
0.00910258
0.00994824
0.0109921
0.0119001
-6.28342e-05
0.000691257
0.00172852
0.000949717
0.00203016
0.00218493
0.00141359
0.00144488
0.000858843
0.00177507
0.00266498
0.00388643
0.00496004
0.00565762
0.00699628
0.00802802
0.00875463
0.00950648
0.0104872
0.0113978
-6.12932e-05
0.00067231
0.00172671
0.00093086
0.00201042
0.00211008
0.0013758
0.00146983
0.000834711
0.00176883
0.00264638
0.00375534
0.00482582
0.00548306
0.00667724
0.00768783
0.00838921
0.00911172
0.0101636
0.0108826
-5.83586e-05
0.000651007
0.00172932
0.000912098
0.00198514
0.00204022
0.00133858
0.00148177
0.000837226
0.00173443
0.00263173
0.00360836
0.00468695
0.00531514
0.0064055
0.00735162
0.00802547
0.0086031
0.00941452
0.0103973
-5.50999e-05
0.000628192
0.00174035
0.000898724
0.00195314
0.00197689
0.0012934
0.00149318
0.000832296
0.00170381
0.00260791
0.00346752
0.00451259
0.00512491
0.00610613
0.00699885
0.00763674
0.0081664
0.00891767
0.00988917
-5.11689e-05
0.000604087
0.00173194
0.000890159
0.00191295
0.00192098
0.00124075
0.00150211
0.000821236
0.00167029
0.0025771
0.00331043
0.00429099
0.00492592
0.00577574
0.00662334
0.00722344
0.00784818
0.00872585
0.0093722
-4.52283e-05
0.000578005
0.00172373
0.000881156
0.00186802
0.00186803
0.00119651
0.00149082
0.000836456
0.00161887
0.00254209
0.00316269
0.00409406
0.00469389
0.00550329
0.00625864
0.00682937
0.00722986
0.00782103
0.00892026
-3.95349e-05
0.000551445
0.00170816
0.000879916
0.00181716
0.00181841
0.00114611
0.00147806
0.000836603
0.00157003
0.00249615
0.00301603
0.00384946
0.00444831
0.00519605
0.00587474
0.00641201
0.00679958
0.00731442
0.00839561
-3.27573e-05
0.000524248
0.00168577
0.000884377
0.00176008
0.00177188
0.00109108
0.00146401
0.000816244
0.0015109
0.00244013
0.0028719
0.00358234
0.00417328
0.00483263
0.00546159
0.00595478
0.00664664
0.00728799
0.00787964
-2.36858e-05
0.000496014
0.00165979
0.000886893
0.00170245
0.00172254
0.00105044
0.00142549
0.000828024
0.00143618
0.00237441
0.00271996
0.00337344
0.00395341
0.00455624
0.00503563
0.00542295
0.00570556
0.00631495
0.00749431
-1.5775e-05
0.000468392
0.00162442
0.000896787
0.00164251
0.00167003
0.00100967
0.00137819
0.000829588
0.00135052
0.00229241
0.00258442
0.00314039
0.00371193
0.00423487
0.00454773
0.00484308
0.00517232
0.00603237
0.00714573
-5.30584e-06
0.000440613
0.00158148
0.000909552
0.00158101
0.00161722
0.000963882
0.00132957
0.000801203
0.00125966
0.00219621
0.00245241
0.00290132
0.00344642
0.00386826
0.00410744
0.0043299
0.00467313
0.0054065
0.00669487
5.63758e-06
0.00041304
0.0015323
0.000920948
0.00152127
0.00156191
0.000918777
0.00127113
0.0007774
0.00116455
0.00208439
0.00231778
0.0026645
0.00313462
0.0035154
0.0036957
0.00382884
0.00423113
0.00493321
0.00626057
1.6699e-05
0.000386188
0.00147457
0.000932618
0.00146403
0.00150364
0.000871967
0.00120263
0.000750763
0.00106326
0.00195907
0.00218583
0.00241206
0.00281134
0.00316446
0.00327853
0.00335802
0.00371851
0.00446545
0.00581755
2.96191e-05
0.000359726
0.00141135
0.000940385
0.0014096
0.00144412
0.00082076
0.0011263
0.000715792
0.000957042
0.00182267
0.0020423
0.00215939
0.00248141
0.0027975
0.0028831
0.00291034
0.00320842
0.00397145
0.00539095
4.24467e-05
0.000333927
0.00134123
0.000942131
0.0013582
0.00138378
0.000766806
0.00104269
0.0006715
0.000846826
0.00166963
0.00188738
0.00191348
0.00214636
0.00242752
0.00248626
0.00244101
0.0027171
0.00352799
0.0049765
5.65049e-05
0.000309018
0.00126539
0.000936927
0.00130889
0.00132378
0.000710509
0.000950317
0.000617528
0.000731943
0.00150486
0.00172402
0.00167686
0.00180559
0.00203983
0.00208088
0.00202075
0.00225833
0.00305603
0.00456352
7.0921e-05
0.000284608
0.00118738
0.000924233
0.00125971
0.0012639
0.000651049
0.000849923
0.000556231
0.00061458
0.0013245
0.00154631
0.00143896
0.00146284
0.00164189
0.00169204
0.00160544
0.00180924
0.0026169
0.00415519
8.59285e-05
0.000261588
0.0011044
0.000902021
0.00121002
0.00120597
0.000589998
0.000742117
0.00048359
0.000493098
0.00113413
0.00135559
0.00120367
0.00113073
0.00124209
0.00128707
0.00120148
0.00137172
0.00216029
0.00374279
0.000101025
0.000239466
0.00101957
0.000870343
0.00115708
0.00114773
0.000527844
0.000627634
0.000399961
0.00036906
0.000936332
0.00114853
0.000967183
0.000807309
0.000833347
0.000864368
0.000783094
0.000949678
0.00173894
0.00334213
0.000116265
0.000219176
0.000932524
0.000829222
0.0010994
0.00108742
0.000464458
0.000508881
0.000307357
0.000239219
0.000730287
0.000925694
0.000727099
0.000490804
0.000427038
0.000442932
0.000381744
0.000545721
0.00131674
0.00294125
0.000130238
0.000201287
0.000843293
0.000782298
0.00103367
0.00102457
0.000403701
0.00038482
0.000203815
9.91847e-05
0.000519552
0.000689433
0.000495832
0.000184224
3.06999e-05
1.73689e-05
-2.55443e-05
0.000146396
0.000912742
0.00255231
0.000142932
0.000185482
0.00075535
0.000724893
0.000958683
0.00095602
0.000345004
0.000259041
9.19444e-05
-4.13354e-05
0.000304513
0.000440519
0.000229401
-0.000116191
-0.000354947
-0.000410567
-0.000437874
-0.000247509
0.000523611
0.00217575
0.000155421
0.00017194
0.000668732
0.000655198
0.000882261
0.000876419
0.000265138
0.000138342
-2.24366e-05
-0.00018469
8.64088e-05
0.00018277
-4.82344e-05
-0.000415783
-0.000730146
-0.000837043
-0.000852345
-0.00063679
0.000151171
0.00181173
0.00016425
0.000161568
0.000584151
0.000581615
0.000793646
0.000780497
0.000188688
2.19435e-05
-0.000141775
-0.000334539
-0.000136371
-8.24878e-05
-0.000337633
-0.000719228
-0.00109382
-0.00125477
-0.0012664
-0.00102377
-0.000214553
0.0014535
0.000170935
0.000153705
0.00050296
0.000498947
0.000688517
0.000680327
0.000116135
-9.75317e-05
-0.000269651
-0.0004917
-0.000364574
-0.000352215
-0.000636641
-0.00102952
-0.00144516
-0.00166053
-0.00167894
-0.00141185
-0.000580618
0.0010992
0.000175208
0.000145866
0.00042599
0.000405182
0.00057319
0.000575901
3.99002e-05
-0.000220196
-0.00040474
-0.000655084
-0.000598222
-0.000624838
-0.000943224
-0.00134695
-0.00178833
-0.00205774
-0.00208897
-0.00180169
-0.000946823
0.00075316
0.00017641
0.000137634
0.000352432
0.000306169
0.00044881
0.000464094
-4.0707e-05
-0.000345179
-0.000548125
-0.000825631
-0.0008373
-0.000900353
-0.00125232
-0.00167214
-0.00213053
-0.00244457
-0.00249147
-0.00219154
-0.00131064
0.000413022
0.000174974
0.000127269
0.00028162
0.000205221
0.000316609
0.000343402
-0.000127556
-0.000473641
-0.00069935
-0.00100118
-0.00108112
-0.00117945
-0.00156227
-0.00200556
-0.00247314
-0.00281934
-0.00288678
-0.00257947
-0.00167287
7.36221e-05
0.000170527
0.000113955
0.0002133
0.000103628
0.00017774
0.00021254
-0.000221978
-0.000605214
-0.000857848
-0.00118179
-0.00133001
-0.00146435
-0.0018712
-0.00234278
-0.00281673
-0.00318669
-0.00327581
-0.00296367
-0.00203621
-0.000265577
0.000162956
9.73635e-05
0.000146408
2.318e-06
3.39773e-05
7.10919e-05
-0.000325561
-0.000739876
-0.0010237
-0.00136777
-0.00158215
-0.00175588
-0.00217971
-0.00268042
-0.00316313
-0.00355083
-0.00365823
-0.00334357
-0.00239821
-0.000601554
0.0001523
7.71105e-05
8.00819e-05
-9.84862e-05
-0.000113173
-8.05006e-05
-0.000439364
-0.000877704
-0.00119676
-0.00156036
-0.00183619
-0.00205385
-0.00248993
-0.00301625
-0.0035105
-0.00391185
-0.00403504
-0.00371891
-0.00275698
-0.000935473
0.000138434
5.29076e-05
1.36423e-05
-0.000198479
-0.00026236
-0.000241734
-0.000564651
-0.00101969
-0.00137678
-0.00176019
-0.00209078
-0.00235675
-0.00280333
-0.00334973
-0.00385727
-0.00426923
-0.00440688
-0.00409122
-0.00311455
-0.00126831
0.000121295
2.46125e-05
-5.36273e-05
-0.000297655
-0.000412524
-0.000411891
-0.000702483
-0.00116671
-0.0015625
-0.0019674
-0.00234585
-0.00266259
-0.00312112
-0.00368246
-0.00420263
-0.00462171
-0.00477301
-0.00446083
-0.00347134
-0.00160044
0.000100847
-7.88235e-06
-0.000122322
-0.000396329
-0.000562782
-0.00058983
-0.000853316
-0.00131951
-0.00175288
-0.00218253
-0.00260199
-0.00296917
-0.00344384
-0.00401596
-0.00454627
-0.00496924
-0.00513219
-0.0048262
-0.00382817
-0.00193364
7.70525e-05
-4.45967e-05
-0.000193102
-0.000494968
-0.000712215
-0.0007743
-0.00101772
-0.00147925
-0.00194701
-0.00240504
-0.00286015
-0.00327539
-0.00377049
-0.00435109
-0.0048891
-0.00531261
-0.0054832
-0.00518539
-0.00418363
-0.00226725
4.98371e-05
-8.55846e-05
-0.000266329
-0.000594154
-0.000860507
-0.000963522
-0.00119536
-0.00164754
-0.00214435
-0.00263392
-0.00312139
-0.00358046
-0.00409902
-0.00468833
-0.00523238
-0.00565335
-0.0058265
-0.00553584
-0.00453376
-0.00260036
1.91638e-05
-0.000130823
-0.000342583
-0.000694383
-0.00100747
-0.00115592
-0.00138518
-0.0018261
-0.00234505
-0.00286772
-0.00338643
-0.00388421
-0.00442742
-0.00502689
-0.005577
-0.00599386
-0.00616372
-0.00587643
-0.00487616
-0.00293237
-1.50419e-05
-0.000181126
-0.000421986
-0.000796346
-0.00115309
-0.00134992
-0.00158612
-0.00201635
-0.00254961
-0.00310516
-0.00365535
-0.00418725
-0.00475441
-0.0053655
-0.005923
-0.00633591
-0.00649755
-0.00620844
-0.00520954
-0.00326052
-5.28924e-05
-0.000234388
-0.000504738
-0.000900505
-0.00129762
-0.00154445
-0.00179642
-0.00221874
-0.00275899
-0.00334505
-0.00392757
-0.00449062
-0.00507954
-0.00570276
-0.00626977
-0.00668069
-0.00683137
-0.0065348
-0.00553417
-0.00358264
-9.44872e-05
-0.000291296
-0.000590914
-0.00100743
-0.00144141
-0.00173863
-0.00201391
-0.00243323
-0.00297473
-0.00358676
-0.00420245
-0.00479473
-0.00540283
-0.00603748
-0.00661589
-0.00702801
-0.00716783
-0.00685919
-0.00585211
-0.00389855
-0.000139964
-0.00035187
-0.00068041
-0.00111758
-0.00158507
-0.00193168
-0.00223634
-0.00265926
-0.00319814
-0.00383023
-0.00447905
-0.00509937
-0.0057256
-0.00636994
-0.00695973
-0.00737659
-0.00750785
-0.00718454
-0.00616689
-0.00421026
-0.000188767
-0.00041588
-0.000773156
-0.00123121
-0.00172895
-0.00212338
-0.00246177
-0.00289547
-0.00343065
-0.00407551
-0.00475648
-0.00540446
-0.00604861
-0.00670031
-0.00729972
-0.00772429
-0.00785134
-0.00751454
-0.00648415
-0.00452138
-0.000241301
-0.000483179
-0.00086874
-0.00134848
-0.00187373
-0.00231363
-0.0026882
-0.00313985
-0.00367344
-0.00432322
-0.00503427
-0.00571013
-0.00637182
-0.00702913
-0.00763569
-0.00806944
-0.00819717
-0.0078506
-0.00680652
-0.00483395
-0.000297472
-0.000553608
-0.000966916
-0.00146925
-0.00201981
-0.0025027
-0.0029142
-0.00338964
-0.00392715
-0.00457487
-0.00531169
-0.00601577
-0.00669554
-0.00735808
-0.00796889
-0.00841152
-0.00854328
-0.00819118
-0.00713434
-0.00514942
-0.000357346
-0.00062697
-0.00106723
-0.00159345
-0.00216735
-0.00269049
-0.00313918
-0.00364185
-0.0041912
-0.00483217
-0.00558763
-0.00632106
-0.00702009
-0.00768902
-0.00830084
-0.00875073
-0.00888873
-0.00853557
-0.00746861
-0.00546983
-0.000420723
-0.000703159
-0.00116921
-0.00172057
-0.00231673
-0.00287712
-0.00336295
-0.00389364
-0.00446332
-0.00509741
-0.00586223
-0.00662457
-0.00734414
-0.00802212
-0.00863316
-0.00908778
-0.00923225
-0.00888143
-0.00780857
-0.00579745
-0.000487422
-0.000781939
-0.00127247
-0.00184995
-0.00246784
-0.00306232
-0.00358591
-0.00414323
-0.00473986
-0.00537292
-0.0061376
-0.00692568
-0.00766684
-0.00835744
-0.00896862
-0.00942498
-0.00957379
-0.00922594
-0.0081501
-0.00612928
-0.00055733
-0.000863077
-0.00137637
-0.00198086
-0.00262074
-0.00324582
-0.00380789
-0.00439042
-0.00501694
-0.00565802
-0.00641491
-0.00722334
-0.0079868
-0.00869283
-0.00930826
-0.0097661
-0.00991881
-0.00957408
-0.00849638
-0.0064663
-0.000630335
-0.000946376
-0.00148033
-0.00211164
-0.00277428
-0.0034272
-0.00402845
-0.00463719
-0.00529244
-0.00595125
-0.00669833
-0.0075182
-0.00830278
-0.00902514
-0.0096483
-0.0101091
-0.0102669
-0.0099271
-0.00885032
-0.00681307
-0.000705869
-0.00103156
-0.00158467
-0.00224189
-0.00292791
-0.0036054
-0.00424462
-0.00488228
-0.00556212
-0.00624561
-0.00698913
-0.00781391
-0.00861736
-0.00935682
-0.00999036
-0.0104552
-0.010618
-0.0102832
-0.00921023
-0.00717101
-0.000783974
-0.00111809
-0.00168848
-0.00236949
-0.0030803
-0.00378232
-0.00445852
-0.00512859
-0.00582858
-0.00653509
-0.00728115
-0.00810744
-0.0089273
-0.00968554
-0.0103349
-0.0108069
-0.0109754
-0.0106451
-0.00957482
-0.00753447
-0.000863825
-0.00120541
-0.0017909
-0.00249532
-0.00323131
-0.00395911
-0.00467085
-0.00537651
-0.00609603
-0.00682322
-0.00757534
-0.00840031
-0.00923378
-0.0100109
-0.0106791
-0.0111622
-0.0113394
-0.0110162
-0.00995058
-0.00791043
-0.000947472
-0.0012902
-0.001885
-0.00260534
-0.00336826
-0.0041283
-0.00487767
-0.00562073
-0.00635977
-0.00710496
-0.00786757
-0.00868991
-0.00953449
-0.0103311
-0.0110185
-0.0115164
-0.0117056
-0.0113936
-0.0103391
-0.00830929
-0.00103165
-0.00138731
-0.00199111
-0.00272132
-0.00350225
-0.00429537
-0.00508172
-0.00585969
-0.00661792
-0.00737275
-0.00814845
-0.00897143
-0.0098259
-0.0106425
-0.0113502
-0.0118681
-0.0120741
-0.0117756
-0.010732
-0.00871101
-0.00112019
-0.00144065
-0.00205019
-0.00281811
-0.00365342
-0.00449393
-0.00531358
-0.00610629
-0.00687561
-0.00763667
-0.00842413
-0.00925522
-0.0101227
-0.0109593
-0.0116896
-0.01223
-0.012453
-0.0121679
-0.0111336
-0.00911611
-0.00125144
-0.00160672
-0.00210507
-0.00280646
-0.00369769
-0.00465925
-0.00553652
-0.00634178
-0.0071104
-0.00788219
-0.00867931
-0.00952428
-0.0104069
-0.0112691
-0.0120406
-0.0126245
-0.0128827
-0.0126299
-0.0116278
-0.00964
-0.00124033
-0.00152368
-0.002234
-0.00304179
-0.00393139
-0.00484222
-0.00571565
-0.00652284
-0.00729429
-0.00806276
-0.00885275
-0.00969692
-0.0105731
-0.0114345
-0.0122232
-0.0128507
-0.0131913
-0.0130453
-0.0121609
-0.0103017
-0.00137016
-0.00170625
-0.00233053
-0.00307299
-0.00394937
-0.00493994
-0.00592181
-0.00678242
-0.00760993
-0.00838949
-0.00920143
-0.0100422
-0.0109153
-0.0117304
-0.0124174
-0.0128989
-0.0131002
-0.012861
-0.0119432
-0.0100997
-0.00130431
-0.00175499
-0.00241886
-0.00325787
-0.0041926
-0.00509335
-0.00592303
-0.00670497
-0.0074924
-0.0083083
-0.0091746
-0.0100811
-0.0110545
-0.0120809
-0.0131109
-0.0140341
-0.0146751
-0.0148014
-0.0141049
-0.0125083
-0.00114153
-0.00192425
-0.00265984
-0.00352988
-0.00439819
-0.00539815
-0.0063321
-0.00713806
-0.00791629
-0.0088048
-0.00968422
-0.0105019
-0.011064
-0.0112606
-0.0110546
-0.010523
-0.00984549
-0.00933234
-0.00940182
-0.0102342
-0.00121918
-0.00191717
-0.00270242
-0.00350956
-0.00426169
-0.0049874
-0.0057832
-0.00661271
-0.00750297
-0.00847554
-0.00956719
-0.0107443
-0.0119962
-0.0133058
-0.0145985
-0.0157599
-0.0166399
-0.0170272
-0.0166541
-0.0152616
-0.00108801
-0.00201082
-0.00282835
-0.00365459
-0.00441963
-0.00534298
-0.00631972
-0.00740986
-0.0084054
-0.00916861
-0.00993359
-0.0108057
-0.0116152
-0.0121787
-0.012374
-0.0122163
-0.0118292
-0.0114958
-0.0115977
-0.0124985
-0.00111787
-0.00205029
-0.00284868
-0.00358207
-0.00416806
-0.00476862
-0.00545818
-0.00627086
-0.00721397
-0.0084086
-0.009885
-0.0116504
-0.0136086
-0.0156085
-0.0174642
-0.0190063
-0.0200501
-0.0204118
-0.0198754
-0.018251
0.0391918
0.0121404
0.00102921
-0.00165895
-0.00347568
-0.00551905
-0.00676712
-0.00706162
-0.00751184
-0.00853655
-0.00961208
-0.0105383
-0.0114325
-0.0122032
-0.0132889
-0.01513
-0.0166997
-0.0174084
-0.0180511
-0.0190888
-0.0203492
-0.0215281
-0.0225722
-0.0236733
-0.0248101
-0.0260192
-0.0273308
-0.0287002
-0.030056
-0.0314482
-0.0328449
-0.0343096
-0.0359058
-0.037529
-0.0391978
-0.0408875
-0.0427043
-0.0445532
-0.0465477
-0.048572
-0.0506954
-0.052883
-0.0551219
-0.0575327
-0.0599085
-0.0625122
-0.0651168
-0.0678091
-0.0708031
-0.0737051
0.0381473
0.0121899
0.00107671
-0.00163812
-0.00346504
-0.00551318
-0.00676365
-0.00705899
-0.00750933
-0.00853416
-0.00960985
-0.0105362
-0.0114307
-0.0122016
-0.0132873
-0.0151287
-0.0166988
-0.0174076
-0.0180503
-0.0190881
-0.0203485
-0.0215276
-0.0225717
-0.0236728
-0.0248097
-0.0260189
-0.0273304
-0.0286999
-0.0300557
-0.031448
-0.0328447
-0.0343094
-0.0359056
-0.0375288
-0.0391976
-0.0408873
-0.0427042
-0.044553
-0.0465476
-0.0485718
-0.0506953
-0.0528829
-0.0551218
-0.0575326
-0.0599084
-0.0625121
-0.0651167
-0.0678091
-0.0708031
-0.0737051
0.0373086
0.0122965
0.00114773
-0.00161365
-0.00345258
-0.00550632
-0.00675985
-0.00705628
-0.007507
-0.00853217
-0.00960803
-0.0105344
-0.011429
-0.0122001
-0.0132858
-0.0151275
-0.0166981
-0.0174069
-0.0180496
-0.0190874
-0.020348
-0.0215272
-0.0225713
-0.0236724
-0.0248094
-0.0260185
-0.0273301
-0.0286996
-0.0300554
-0.0314477
-0.0328445
-0.0343091
-0.0359054
-0.0375286
-0.0391975
-0.0408872
-0.042704
-0.0445529
-0.0465475
-0.0485717
-0.0506952
-0.0528828
-0.0551217
-0.0575325
-0.0599083
-0.0625121
-0.0651166
-0.067809
-0.0708031
-0.0737051
0.0365573
0.0124249
0.0012436
-0.00157992
-0.00343436
-0.00549557
-0.00675381
-0.00705259
-0.0075045
-0.00853038
-0.00960645
-0.0105328
-0.0114275
-0.0121985
-0.0132841
-0.0151263
-0.0166975
-0.0174062
-0.0180487
-0.0190867
-0.0203475
-0.0215268
-0.0225709
-0.0236721
-0.024809
-0.0260182
-0.0273299
-0.0286993
-0.0300552
-0.0314475
-0.0328442
-0.0343089
-0.0359052
-0.0375284
-0.0391973
-0.040887
-0.0427039
-0.0445528
-0.0465473
-0.0485716
-0.0506951
-0.0528827
-0.0551216
-0.0575324
-0.0599082
-0.062512
-0.0651166
-0.0678089
-0.0708031
-0.0737051
0.0358006
0.012554
0.00135686
-0.001537
-0.00340866
-0.00547873
-0.00674375
-0.00704689
-0.0075014
-0.00852858
-0.009605
-0.0105313
-0.0114261
-0.0121969
-0.0132821
-0.0151249
-0.0166968
-0.0174054
-0.0180478
-0.0190859
-0.0203469
-0.0215263
-0.0225705
-0.0236717
-0.0248087
-0.0260178
-0.0273295
-0.028699
-0.0300549
-0.0314473
-0.032844
-0.0343087
-0.035905
-0.0375282
-0.0391971
-0.0408869
-0.0427037
-0.0445526
-0.0465472
-0.0485715
-0.050695
-0.0528827
-0.0551215
-0.0575323
-0.0599082
-0.0625119
-0.0651165
-0.0678089
-0.0708031
-0.0737052
0.0350267
0.0126795
0.00147913
-0.00148907
-0.00337706
-0.00545582
-0.00672913
-0.0070387
-0.00749738
-0.0085265
-0.00960352
-0.01053
-0.0114249
-0.0121954
-0.01328
-0.0151233
-0.0166959
-0.0174043
-0.0180466
-0.019085
-0.0203463
-0.0215258
-0.02257
-0.0236712
-0.0248082
-0.0260175
-0.0273292
-0.0286988
-0.0300546
-0.031447
-0.0328438
-0.0343085
-0.0359048
-0.0375281
-0.0391969
-0.0408867
-0.0427035
-0.0445525
-0.0465471
-0.0485714
-0.0506949
-0.0528825
-0.0551214
-0.0575323
-0.0599081
-0.0625118
-0.0651164
-0.0678088
-0.0708031
-0.0737053
0.0342407
0.0128001
0.00160587
-0.0014395
-0.00334234
-0.00542856
-0.00671071
-0.00702816
-0.0074923
-0.00852385
-0.00960164
-0.0105287
-0.0114241
-0.0121942
-0.0132777
-0.0151213
-0.0166946
-0.0174029
-0.0180452
-0.0190839
-0.0203454
-0.0215252
-0.0225694
-0.0236707
-0.0248078
-0.026017
-0.0273288
-0.0286984
-0.0300543
-0.0314467
-0.0328435
-0.0343082
-0.0359046
-0.0375278
-0.0391967
-0.0408865
-0.0427034
-0.0445523
-0.0465469
-0.0485712
-0.0506948
-0.0528824
-0.0551213
-0.0575322
-0.059908
-0.0625117
-0.0651164
-0.0678087
-0.0708031
-0.0737055
0.0334466
0.0129138
0.00173567
-0.00138952
-0.00330642
-0.00539887
-0.00668987
-0.00701593
-0.00748633
-0.00852055
-0.00959907
-0.0105271
-0.0114237
-0.0121936
-0.0132757
-0.0151192
-0.0166929
-0.017401
-0.0180434
-0.0190825
-0.0203444
-0.0215244
-0.0225687
-0.0236701
-0.0248072
-0.0260165
-0.0273284
-0.0286981
-0.030054
-0.0314464
-0.0328433
-0.0343079
-0.0359043
-0.0375276
-0.0391965
-0.0408863
-0.0427032
-0.0445521
-0.0465467
-0.0485711
-0.0506946
-0.0528823
-0.0551212
-0.0575321
-0.0599079
-0.0625116
-0.0651163
-0.0678086
-0.0708031
-0.0737057
0.0326454
0.0130191
0.00186862
-0.00133919
-0.00327018
-0.00536803
-0.00666775
-0.0070027
-0.00747981
-0.00851676
-0.00959578
-0.0105248
-0.0114233
-0.0121937
-0.0132743
-0.0151172
-0.016691
-0.0173986
-0.0180412
-0.0190809
-0.0203432
-0.0215235
-0.0225679
-0.0236694
-0.0248066
-0.0260159
-0.0273279
-0.0286977
-0.0300537
-0.0314461
-0.032843
-0.0343077
-0.0359041
-0.0375274
-0.0391963
-0.0408861
-0.042703
-0.0445519
-0.0465466
-0.0485709
-0.0506945
-0.0528822
-0.0551211
-0.0575319
-0.0599078
-0.0625115
-0.0651162
-0.0678085
-0.0708031
-0.0737059
0.0318374
0.0131149
0.00200508
-0.00128834
-0.00323405
-0.00533671
-0.00664504
-0.00698894
-0.00747299
-0.00851277
-0.00959201
-0.0105219
-0.011423
-0.0121945
-0.0132735
-0.0151155
-0.0166889
-0.0173958
-0.0180385
-0.0190789
-0.0203418
-0.0215223
-0.022567
-0.0236686
-0.0248059
-0.0260152
-0.0273273
-0.0286972
-0.0300532
-0.0314458
-0.0328427
-0.0343073
-0.0359038
-0.0375272
-0.0391961
-0.0408858
-0.0427027
-0.0445517
-0.0465464
-0.0485707
-0.0506943
-0.052882
-0.055121
-0.0575318
-0.0599077
-0.0625114
-0.0651161
-0.0678084
-0.070803
-0.0737062
0.031023
0.0132003
0.00214518
-0.00123689
-0.00319835
-0.00530527
-0.00662207
-0.00697491
-0.00746606
-0.00850883
-0.00958812
-0.0105187
-0.0114227
-0.0121963
-0.0132738
-0.0151146
-0.016687
-0.0173925
-0.0180353
-0.0190767
-0.02034
-0.021521
-0.0225658
-0.0236677
-0.024805
-0.0260144
-0.0273265
-0.0286965
-0.0300527
-0.0314454
-0.0328423
-0.034307
-0.0359035
-0.037527
-0.0391958
-0.0408856
-0.0427025
-0.0445515
-0.0465461
-0.0485705
-0.0506941
-0.0528819
-0.0551208
-0.0575317
-0.0599075
-0.0625113
-0.0651159
-0.0678082
-0.0708029
-0.0737066
0.0302033
0.0132743
0.00228883
-0.00118475
-0.00316332
-0.00527394
-0.00659903
-0.00696077
-0.0074591
-0.00850509
-0.0095844
-0.0105155
-0.0114227
-0.0121991
-0.0132753
-0.0151147
-0.0166856
-0.0173891
-0.0180317
-0.019074
-0.0203381
-0.0215195
-0.0225646
-0.0236667
-0.0248041
-0.0260136
-0.0273257