/*--------------------------------*- C++ -*----------------------------------*\
| =========                 |                                                 |
| \\      /  F ield         | OpenFOAM: The Open Source CFD Toolbox           |
|  \\    /   O peration     | Version:  v2012                                 |
|   \\  /    A nd           | Website:  www.openfoam.com                      |
|    \\/     M anipulation  |                                                 |
\*---------------------------------------------------------------------------*/
FoamFile
{
    version     2.0;
    format      ascii;
    class       surfaceScalarField;
    location    "6.2";
    object      phi;
}
// * * * * * * * * * * * * * * * * * * * * * * * * * * * * * * * * * * * * * //

dimensions      [0 3 -1 0 0 0 0];
oriented        oriented;


internalField   nonuniform List<scalar> 
13830
(
9.30948e-07
-2.1356e-07
9.3264e-07
-1.66118e-07
9.41972e-07
-2.47403e-07
9.395e-07
-6.5822e-07
9.9232e-07
1.4297e-06
8.66733e-07
1.96264e-07
9.23778e-07
4.58832e-07
8.85689e-07
4.14069e-07
8.80211e-07
-2.5446e-07
9.30078e-07
-4.32307e-08
9.08309e-07
-5.29556e-07
9.18336e-07
-1.18647e-07
9.09832e-07
-2.95874e-07
9.16144e-07
-1.04045e-07
9.20985e-07
-2.12477e-07
9.13321e-07
-2.59785e-07
9.25086e-07
-1.70355e-07
9.08002e-07
-3.30997e-07
9.20515e-07
-1.62557e-07
-2.89562e-07
8.93555e-07
9.66562e-07
-2.0759e-07
9.68062e-07
-1.67617e-07
9.78039e-07
-2.57379e-07
9.76027e-07
-6.56208e-07
1.02659e-06
1.37914e-06
9.06379e-07
3.16473e-07
9.54649e-07
4.10561e-07
9.384e-07
4.30319e-07
9.21772e-07
-2.37833e-07
9.75002e-07
-9.64609e-08
9.5104e-07
-5.05594e-07
9.61884e-07
-1.29492e-07
9.46572e-07
-2.80562e-07
9.58328e-07
-1.15801e-07
9.51563e-07
-2.05712e-07
9.55246e-07
-2.63468e-07
9.51295e-07
-1.66404e-07
9.48478e-07
-3.28179e-07
9.4503e-07
-1.5911e-07
-2.81424e-07
9.36892e-07
1.00343e-06
-2.01564e-07
1.00488e-06
-1.69066e-07
1.01577e-06
-2.68278e-07
1.01452e-06
-6.54957e-07
1.05795e-06
1.33571e-06
9.57206e-07
4.1722e-07
9.8556e-07
3.82207e-07
9.95197e-07
4.20682e-07
9.67337e-07
-2.09972e-07
1.01319e-06
-1.42312e-07
9.8919e-07
-4.81596e-07
9.96622e-07
-1.36924e-07
9.81104e-07
-2.65044e-07
9.90147e-07
-1.24845e-07
9.81883e-07
-1.97447e-07
9.87063e-07
-2.68648e-07
9.80405e-07
-1.59746e-07
9.82051e-07
-3.29825e-07
9.76269e-07
-1.53327e-07
-2.78806e-07
9.7365e-07
1.04168e-06
-1.95465e-07
1.04289e-06
-1.70278e-07
1.05478e-06
-2.80172e-07
1.05488e-06
-6.55056e-07
1.08845e-06
1.30215e-06
1.01359e-06
4.92076e-07
1.02159e-06
3.74203e-07
1.04636e-06
3.95921e-07
1.01688e-06
-1.80492e-07
1.04734e-06
-1.72773e-07
1.02688e-06
-4.61136e-07
1.02779e-06
-1.37842e-07
1.01659e-06
-2.53839e-07
1.02127e-06
-1.2953e-07
1.0147e-06
-1.90873e-07
1.01887e-06
-2.7282e-07
1.01215e-06
-1.53026e-07
1.01442e-06
-3.32093e-07
1.0089e-06
-1.47808e-07
-2.76978e-07
1.00707e-06
1.08142e-06
-1.89335e-07
1.08208e-06
-1.70931e-07
1.09491e-06
-2.93002e-07
1.09639e-06
-6.56541e-07
1.11954e-06
1.279e-06
1.0702e-06
5.41423e-07
1.06372e-06
3.80678e-07
1.09237e-06
3.67275e-07
1.06934e-06
-1.57469e-07
1.08353e-06
-1.86961e-07
1.06651e-06
-4.44117e-07
1.06278e-06
-1.34112e-07
1.05478e-06
-2.45841e-07
1.05755e-06
-1.32293e-07
1.05149e-06
-1.84811e-07
1.05456e-06
-2.75888e-07
1.0478e-06
-1.46271e-07
1.04896e-06
-3.3325e-07
1.04425e-06
-1.43104e-07
-2.74151e-07
1.04143e-06
1.12283e-06
-1.83325e-07
1.12257e-06
-1.70663e-07
1.1361e-06
-3.06541e-07
1.13834e-06
-6.5878e-07
1.15239e-06
1.26494e-06
1.1239e-06
5.69913e-07
1.11092e-06
3.93658e-07
1.13697e-06
3.41228e-07
1.12289e-06
-1.43388e-07
1.12475e-06
-1.88823e-07
1.10856e-06
-4.27924e-07
1.10326e-06
-1.28817e-07
1.09605e-06
-2.3863e-07
1.09886e-06
-1.35099e-07
1.09192e-06
-1.77878e-07
1.09412e-06
-2.78081e-07
1.08687e-06
-1.39023e-07
1.08632e-06
-3.327e-07
1.08219e-06
-1.38973e-07
-2.69848e-07
1.07789e-06
1.16602e-06
-1.77647e-07
1.16461e-06
-1.69254e-07
1.17843e-06
-3.20362e-07
1.18034e-06
-6.60686e-07
1.18749e-06
1.25779e-06
1.17412e-06
5.8329e-07
1.16118e-06
4.06593e-07
1.18295e-06
3.19466e-07
1.17591e-06
-1.36348e-07
1.17078e-06
-1.83697e-07
1.15301e-06
-4.10159e-07
1.14788e-06
-1.23683e-07
1.14003e-06
-2.30783e-07
1.14355e-06
-1.38614e-07
1.1352e-06
-1.69528e-07
1.13665e-06
-2.7953e-07
1.12887e-06
-1.31249e-07
1.12645e-06
-3.3028e-07
1.12269e-06
-1.35205e-07
-2.64045e-07
1.11688e-06
1.21103e-06
-1.72492e-07
1.20849e-06
-1.66718e-07
1.22199e-06
-3.33863e-07
1.22244e-06
-6.61133e-07
1.22479e-06
1.25544e-06
1.22178e-06
5.863e-07
1.21262e-06
4.1575e-07
1.23102e-06
3.01068e-07
1.22778e-06
-1.33102e-07
1.21993e-06
-1.75855e-07
1.19974e-06
-3.89967e-07
1.19513e-06
-1.19071e-07
1.18631e-06
-2.21961e-07
1.19051e-06
-1.42818e-07
1.18093e-06
-1.59949e-07
1.18162e-06
-2.80215e-07
1.17375e-06
-1.23381e-07
1.1694e-06
-3.25934e-07
1.16596e-06
-1.3176e-07
-2.56791e-07
1.1587e-06
1.25785e-06
-1.67987e-07
1.25439e-06
-1.63261e-07
1.26686e-06
-3.46335e-07
1.26508e-06
-6.59348e-07
1.2641e-06
1.25641e-06
1.26837e-06
5.82032e-07
1.26429e-06
4.19831e-07
1.28066e-06
2.84704e-07
1.27866e-06
-1.3111e-07
1.27057e-06
-1.67758e-07
1.24839e-06
-3.67793e-07
1.24429e-06
-1.14972e-07
1.23474e-06
-2.12407e-07
1.23948e-06
-1.47555e-07
1.22922e-06
-1.49687e-07
1.22906e-06
-2.80061e-07
1.22167e-06
-1.15988e-07
1.21538e-06
-3.19648e-07
1.21226e-06
-1.28635e-07
-2.48152e-07
1.20362e-06
1.30651e-06
-1.64219e-07
1.30239e-06
-1.59147e-07
1.31311e-06
-3.57051e-07
1.30889e-06
-6.55123e-07
1.30545e-06
1.25985e-06
1.31527e-06
5.72214e-07
1.31612e-06
4.18982e-07
1.33108e-06
2.69738e-07
1.32899e-06
-1.29016e-07
1.32172e-06
-1.60487e-07
1.29856e-06
-3.4464e-07
1.29522e-06
-1.11626e-07
1.2854e-06
-2.02592e-07
1.2906e-06
-1.52752e-07
1.28025e-06
-1.3934e-07
1.27921e-06
-2.79023e-07
1.27276e-06
-1.09534e-07
1.2646e-06
-3.11485e-07
1.26174e-06
-1.25781e-07
-2.38236e-07
1.25183e-06
1.35707e-06
-1.61273e-07
1.35252e-06
-1.54595e-07
1.36078e-06
-3.65303e-07
1.35444e-06
-6.48788e-07
1.34912e-06
1.26517e-06
1.3635e-06
5.5783e-07
1.36845e-06
4.14034e-07
1.38192e-06
2.56269e-07
1.3792e-06
-1.26299e-07
1.37312e-06
-1.54404e-07
1.35001e-06
-3.21532e-07
1.34793e-06
-1.09539e-07
1.33833e-06
-1.92997e-07
1.344e-06
-1.58416e-07
1.33407e-06
-1.29416e-07
1.33215e-06
-2.77102e-07
1.32694e-06
-1.0432e-07
1.31705e-06
-3.01596e-07
1.31437e-06
-1.23103e-07
-2.27212e-07
1.30335e-06
1.40963e-06
-1.59245e-07
1.4048e-06
-1.49769e-07
1.40994e-06
-3.70443e-07
1.40217e-06
-6.41014e-07
1.39557e-06
1.27177e-06
1.41377e-06
5.39626e-07
1.42168e-06
4.0612e-07
1.43327e-06
2.44688e-07
1.4298e-06
-1.22834e-07
1.42499e-06
-1.4959e-07
1.40275e-06
-2.99297e-07
1.40245e-06
-1.09238e-07
1.39344e-06
-1.8399e-07
1.39957e-06
-1.64541e-07
1.39048e-06
-1.2033e-07
1.38769e-06
-2.74307e-07
1.38388e-06
-1.00509e-07
1.37249e-06
-2.90214e-07
1.3699e-06
-1.2051e-07
-2.15321e-07
1.35801e-06
1.46421e-06
-1.58208e-07
1.45925e-06
-1.44812e-07
1.46077e-06
-3.7196e-07
1.45228e-06
-6.32529e-07
1.44523e-06
1.27882e-06
1.46648e-06
5.18375e-07
1.4761e-06
3.96499e-07
1.48556e-06
2.35226e-07
1.48136e-06
-1.18632e-07
1.4778e-06
-1.46031e-07
1.45701e-06
-2.78508e-07
1.45881e-06
-1.11041e-07
1.45059e-06
-1.75768e-07
1.45705e-06
-1.71001e-07
1.44913e-06
-1.12413e-07
1.44544e-06
-2.70614e-07
1.44307e-06
-9.8139e-08
1.4305e-06
-2.77641e-07
1.42792e-06
-1.1793e-07
-2.02861e-07
1.41546e-06
1.52081e-06
-1.5815e-07
1.5159e-06
-1.39896e-07
1.51353e-06
-3.69595e-07
1.50488e-06
-6.23875e-07
1.49843e-06
1.28527e-06
1.52185e-06
4.94964e-07
1.5319e-06
3.86445e-07
1.53941e-06
2.27719e-07
1.53449e-06
-1.13719e-07
1.53215e-06
-1.43689e-07
1.51314e-06
-2.59492e-07
1.51703e-06
-1.14938e-07
1.50964e-06
-1.68375e-07
1.51614e-06
-1.775e-07
1.50964e-06
-1.05915e-07
1.50498e-06
-2.6595e-07
1.50395e-06
-9.71145e-08
1.49054e-06
-2.64232e-07
1.48793e-06
-1.15316e-07
-1.90171e-07
1.47524e-06
1.57939e-06
-1.58932e-07
1.57472e-06
-1.35223e-07
1.56858e-06
-3.63452e-07
1.55999e-06
-6.15285e-07
1.55536e-06
1.2899e-06
1.57994e-06
4.70384e-07
1.58926e-06
3.77123e-07
1.59539e-06
2.21594e-07
1.58976e-06
-1.0809e-07
1.58858e-06
-1.4251e-07
1.57146e-06
-2.42369e-07
1.57712e-06
-1.20601e-07
1.57052e-06
-1.61778e-07
1.57661e-06
-1.83587e-07
1.57169e-06
-1.00993e-07
1.56597e-06
-2.60231e-07
1.56606e-06
-9.72086e-08
1.5522e-06
-2.50367e-07
1.54951e-06
-1.12632e-07
-1.7759e-07
1.53693e-06
1.63991e-06
-1.60297e-07
1.63568e-06
-1.30996e-07
1.62624e-06
-3.54013e-07
1.61769e-06
-6.06729e-07
1.61603e-06
1.29156e-06
1.64074e-06
4.45666e-07
1.64838e-06
3.69485e-07
1.65394e-06
2.16033e-07
1.64755e-06
-1.01703e-07
1.64747e-06
-1.42425e-07
1.6322e-06
-2.271e-07
1.63905e-06
-1.27452e-07
1.63323e-06
-1.55959e-07
1.63838e-06
-1.88732e-07
1.63507e-06
-9.76824e-08
1.62826e-06
-2.53428e-07
1.62914e-06
-9.80877e-08
1.61519e-06
-2.36413e-07
1.61242e-06
-1.09859e-07
-1.65413e-07
1.60024e-06
1.70238e-06
-1.61924e-07
1.69875e-06
-1.2737e-07
1.68676e-06
-3.42018e-07
1.67811e-06
-5.98081e-07
1.68033e-06
1.28933e-06
1.70422e-06
4.21781e-07
1.70952e-06
3.64181e-07
1.71532e-06
2.10234e-07
1.70814e-06
-9.45209e-08
1.70902e-06
-1.43309e-07
1.69547e-06
-2.13546e-07
1.7028e-06
-1.34781e-07
1.69783e-06
-1.50988e-07
1.70154e-06
-1.92447e-07
1.69974e-06
-9.58819e-08
1.69194e-06
-2.45626e-07
1.69323e-06
-9.93772e-08
1.6795e-06
-2.22685e-07
1.67663e-06
-1.06993e-07
-1.53848e-07
1.66507e-06
1.7669e-06
-1.63504e-07
1.76395e-06
-1.24426e-07
1.75021e-06
-3.28271e-07
1.74143e-06
-5.89306e-07
1.74807e-06
1.28269e-06
1.77034e-06
3.99509e-07
1.773e-06
3.61522e-07
1.77959e-06
2.03644e-07
1.77165e-06
-8.65812e-08
1.77329e-06
-1.44947e-07
1.76129e-06
-2.01543e-07
1.76835e-06
-1.41848e-07
1.76437e-06
-1.47008e-07
1.76631e-06
-1.94382e-07
1.76581e-06
-9.53865e-08
1.75721e-06
-2.37024e-07
1.75857e-06
-1.00742e-07
1.7453e-06
-2.09411e-07
1.74236e-06
-1.04054e-07
-1.43008e-07
1.73152e-06
1.83364e-06
-1.64809e-07
1.83138e-06
-1.22162e-07
1.81654e-06
-3.13435e-07
1.80779e-06
-5.80553e-07
1.81894e-06
1.27154e-06
1.83912e-06
3.79335e-07
1.83917e-06
3.61476e-07
1.84671e-06
1.96098e-07
1.83818e-06
-7.80509e-08
1.84025e-06
-1.47013e-07
1.82967e-06
-1.90968e-07
1.83579e-06
-1.47966e-07
1.83294e-06
-1.44153e-07
1.83297e-06
-1.94419e-07
1.83352e-06
-9.59311e-08
1.82438e-06
-2.27888e-07
1.82559e-06
-1.01954e-07
1.81291e-06
-1.96723e-07
1.80992e-06
-1.01069e-07
-1.32922e-07
1.79984e-06
1.90281e-06
-1.65723e-07
1.90117e-06
-1.20522e-07
1.88566e-06
-2.97926e-07
1.87721e-06
-5.72097e-07
1.89261e-06
1.25614e-06
1.91054e-06
3.61402e-07
1.90831e-06
3.63708e-07
1.91662e-06
1.87791e-07
1.90779e-06
-6.92233e-08
1.90986e-06
-1.49089e-07
1.90069e-06
-1.81792e-07
1.90527e-06
-1.5255e-07
1.90361e-06
-1.42493e-07
1.90185e-06
-1.9266e-07
1.90315e-06
-9.72271e-08
1.89376e-06
-2.18496e-07
1.8947e-06
-1.02899e-07
1.88264e-06
-1.84665e-07
1.87964e-06
-9.80647e-08
-1.23567e-07
1.87028e-06
1.97461e-06
-1.66234e-07
1.97352e-06
-1.19429e-07
1.95751e-06
-2.81915e-07
1.9496e-06
-5.64186e-07
1.96871e-06
1.23703e-06
1.98455e-06
3.45559e-07
1.98063e-06
3.67634e-07
1.98926e-06
1.79162e-07
1.9805e-06
-6.04695e-08
1.98212e-06
-1.50709e-07
1.97442e-06
-1.74093e-07
1.97707e-06
-1.55199e-07
1.97653e-06
-1.41947e-07
1.97323e-06
-1.89368e-07
1.975e-06
-9.89908e-08
1.96559e-06
-2.09088e-07
1.96624e-06
-1.0355e-07
1.9548e-06
-1.73223e-07
1.95178e-06
-9.50483e-08
-1.149e-07
1.94312e-06
2.04921e-06
-1.66398e-07
2.0486e-06
-1.18815e-07
2.0321e-06
-2.65418e-07
2.02482e-06
-5.56905e-07
2.04695e-06
1.21489e-06
2.06104e-06
3.31472e-07
2.05619e-06
3.72487e-07
2.06463e-06
1.70715e-07
2.05634e-06
-5.21762e-08
2.05704e-06
-1.51411e-07
2.05092e-06
-1.67975e-07
2.05148e-06
-1.5576e-07
2.05184e-06
-1.42304e-07
2.04737e-06
-1.84896e-07
2.04932e-06
-1.00947e-07
2.04007e-06
-1.99835e-07
2.04044e-06
-1.03923e-07
2.02958e-06
-1.62359e-07
2.02653e-06
-9.20029e-08
-1.06882e-07
2.01852e-06
2.12674e-06
-1.66294e-07
2.12656e-06
-1.18637e-07
2.10955e-06
-2.48412e-07
2.10277e-06
-5.50128e-07
2.12718e-06
1.19049e-06
2.13989e-06
3.18754e-07
2.13496e-06
3.77419e-07
2.14277e-06
1.62904e-07
2.1353e-06
-4.47041e-08
2.13467e-06
-1.50779e-07
2.1302e-06
-1.63505e-07
2.12874e-06
-1.54303e-07
2.12972e-06
-1.43284e-07
2.12447e-06
-1.79647e-07
2.12635e-06
-1.02823e-07
2.11735e-06
-1.90835e-07
2.11744e-06
-1.04015e-07
2.10713e-06
-1.52047e-07
2.10402e-06
-8.88949e-08
-9.94797e-08
2.09662e-06
2.20728e-06
-1.65987e-07
2.20752e-06
-1.18877e-07
2.19002e-06
-2.30916e-07
2.18347e-06
-5.43574e-07
2.20939e-06
1.16457e-06
2.22107e-06
3.07074e-07
2.21691e-06
3.81588e-07
2.22374e-06
1.56068e-07
2.21742e-06
-3.83779e-08
2.21511e-06
-1.4847e-07
2.21231e-06
-1.60711e-07
2.20905e-06
-1.51039e-07
2.21035e-06
-1.44586e-07
2.20471e-06
-1.74008e-07
2.20628e-06
-1.04389e-07
2.19756e-06
-1.82115e-07
2.19733e-06
-1.03793e-07
2.18754e-06
-1.42251e-07
2.18436e-06
-8.57179e-08
-9.26429e-08
2.17752e-06
2.29092e-06
-1.6551e-07
2.29157e-06
-1.19532e-07
2.27368e-06
-2.13029e-07
2.26703e-06
-5.36915e-07
2.29379e-06
1.1378e-06
2.30464e-06
2.96219e-07
2.30198e-06
3.84254e-07
2.30761e-06
1.50438e-07
2.30272e-06
-3.34867e-08
2.29854e-06
-1.4429e-07
2.29733e-06
-1.59507e-07
2.29259e-06
-1.46294e-07
2.2939e-06
-1.45894e-07
2.28823e-06
-1.68338e-07
2.28926e-06
-1.0542e-07
2.28083e-06
-1.73691e-07
2.28023e-06
-1.03191e-07
2.27085e-06
-1.32874e-07
2.26768e-06
-8.25406e-08
-8.62989e-08
2.26133e-06
2.37773e-06
-1.6486e-07
2.3788e-06
-1.20598e-07
2.3607e-06
-1.94927e-07
2.35366e-06
-5.29873e-07
2.38067e-06
1.11079e-06
2.39077e-06
2.86118e-07
2.39019e-06
3.84837e-07
2.39445e-06
1.4617e-07
2.39124e-06
-3.02697e-08
2.38516e-06
-1.38213e-07
2.38534e-06
-1.59682e-07
2.37951e-06
-1.40472e-07
2.38052e-06
-1.46897e-07
2.37515e-06
-1.6297e-07
2.37543e-06
-1.05699e-07
2.36729e-06
-1.65555e-07
2.36619e-06
-1.02086e-07
2.357e-06
-1.23684e-07
2.35413e-06
-7.9675e-08
-8.03625e-08
2.34819e-06
2.46782e-06
-1.64005e-07
2.46929e-06
-1.22061e-07
2.45119e-06
-1.76834e-07
2.44359e-06
-5.22273e-07
2.4704e-06
1.08399e-06
2.4797e-06
2.76816e-07
2.48159e-06
3.8295e-07
2.48439e-06
1.43371e-07
2.48299e-06
-2.88778e-08
2.47516e-06
-1.30375e-07
2.4764e-06
-1.60928e-07
2.46998e-06
-1.34047e-07
2.47035e-06
-1.4727e-07
2.46555e-06
-1.58171e-07
2.46496e-06
-1.05111e-07
2.45708e-06
-1.57673e-07
2.45479e-06
-9.97927e-08
2.44579e-06
-1.14684e-07
2.44387e-06
-7.77578e-08
-7.47564e-08
2.43826e-06
2.5613e-06
-1.62901e-07
2.56312e-06
-1.23887e-07
2.54528e-06
-1.58989e-07
2.53705e-06
-5.14047e-07
2.56336e-06
1.05768e-06
2.57173e-06
2.68452e-07
2.57629e-06
3.7839e-07
2.57754e-06
1.42122e-07
2.57804e-06
-2.93806e-08
2.56868e-06
-1.21017e-07
2.57065e-06
-1.62895e-07
2.56407e-06
-1.27469e-07
2.56357e-06
-1.46768e-07
2.55944e-06
-1.54044e-07
2.55801e-06
-1.03682e-07
2.55037e-06
-1.50026e-07
2.55192e-06
-1.0135e-07
2.54583e-06
-1.08596e-07
2.53707e-06
-6.89921e-08
-6.93841e-08
2.5317e-06
2.65828e-06
-1.61503e-07
2.66042e-06
-1.26026e-07
2.64303e-06
-1.41603e-07
2.63419e-06
-5.05205e-07
2.65991e-06
1.03196e-06
2.66715e-06
2.61212e-07
2.67442e-06
3.71115e-07
2.67409e-06
1.42457e-07
2.67645e-06
-3.174e-08
2.66589e-06
-1.10463e-07
2.66817e-06
-1.65166e-07
2.66193e-06
-1.21234e-07
2.66028e-06
-1.45116e-07
2.6569e-06
-1.50664e-07
2.6551e-06
-1.01887e-07
2.64571e-06
-1.40632e-07
2.64225e-06
-9.7888e-08
2.63467e-06
-1.01016e-07
2.63367e-06
-6.79924e-08
-6.43259e-08
2.62861e-06
2.75892e-06
-1.59772e-07
2.76132e-06
-1.28422e-07
2.74455e-06
-1.24836e-07
2.73515e-06
-4.95806e-07
2.76034e-06
1.00677e-06
2.76627e-06
2.55283e-07
2.77615e-06
3.61238e-07
2.77427e-06
1.44334e-07
2.77831e-06
-3.57726e-08
2.76701e-06
-9.91677e-08
2.769e-06
-1.67159e-07
2.76379e-06
-1.16024e-07
2.76051e-06
-1.41837e-07
2.75811e-06
-1.48262e-07
2.75601e-06
-9.97873e-08
2.74546e-06
-1.30082e-07
2.74071e-06
-9.31353e-08
2.73341e-06
-9.37142e-08
2.73427e-06
-6.88546e-08
-5.92221e-08
2.72917e-06
2.86337e-06
-1.57685e-07
2.86597e-06
-1.3102e-07
2.84991e-06
-1.08778e-07
2.84002e-06
-4.85914e-07
2.86492e-06
9.81866e-07
2.86935e-06
2.5085e-07
2.88165e-06
3.48942e-07
2.87831e-06
1.47675e-07
2.88372e-06
-4.11815e-08
2.87218e-06
-8.76355e-08
2.87334e-06
-1.68318e-07
2.86978e-06
-1.1246e-07
2.86447e-06
-1.36521e-07
2.86311e-06
-1.46906e-07
2.86181e-06
-9.8489e-08
2.858e-06
-1.26273e-07
2.8582e-06
-9.33342e-08
2.85315e-06
-8.86687e-08
2.83918e-06
-5.48807e-08
-5.35431e-08
2.8335e-06
2.97178e-06
-1.55221e-07
2.97455e-06
-1.33787e-07
2.95922e-06
-9.34497e-08
2.94887e-06
-4.7556e-07
2.97385e-06
9.56886e-07
2.97661e-06
2.48084e-07
2.99111e-06
3.34448e-07
2.98641e-06
1.52371e-07
2.99286e-06
-4.76356e-08
2.9815e-06
-7.62754e-08
2.98148e-06
-1.68294e-07
2.9799e-06
-1.10877e-07
2.9726e-06
-1.29229e-07
2.97206e-06
-1.46364e-07
2.9661e-06
-9.25309e-08
2.95697e-06
-1.17141e-07
2.94961e-06
-8.59697e-08
2.94252e-06
-8.15843e-08
2.94731e-06
-5.96637e-08
-4.80871e-08
2.94185e-06
3.0843e-06
-1.52365e-07
3.08723e-06
-1.36712e-07
3.07261e-06
-7.88274e-08
3.06176e-06
-4.64715e-07
3.08727e-06
9.31374e-07
3.08823e-06
2.4713e-07
3.10468e-06
3.17997e-07
3.0988e-06
1.58246e-07
3.10594e-06
-5.47664e-08
3.09508e-06
-6.54158e-08
3.09372e-06
-1.66936e-07
3.09379e-06
-1.10951e-07
3.08569e-06
-1.21129e-07
3.08509e-06
-1.45763e-07
3.08496e-06
-9.23969e-08
3.08353e-06
-1.15717e-07
3.08265e-06
-8.50871e-08
3.07746e-06
-7.63937e-08
3.06018e-06
-4.23853e-08
-4.23474e-08
3.05444e-06
3.2011e-06
-1.49108e-07
3.20419e-06
-1.398e-07
3.19024e-06
-6.48795e-08
3.17878e-06
-4.53252e-07
3.20536e-06
9.04798e-07
3.20436e-06
2.48125e-07
3.22254e-06
2.99816e-07
3.2157e-06
1.65086e-07
3.2231e-06
-6.21664e-08
3.21307e-06
-5.53841e-08
3.21046e-06
-1.64328e-07
3.21068e-06
-1.11167e-07
3.20472e-06
-1.15172e-07
3.20193e-06
-1.42978e-07
3.20203e-06
-9.24938e-08
3.18446e-06
-9.81413e-08
3.17673e-06
-7.73622e-08
3.17189e-06
-7.15563e-08
3.17559e-06
-4.60797e-08
-3.8152e-08
3.17139e-06
3.32234e-06
-1.45438e-07
3.32563e-06
-1.4309e-07
3.31227e-06
-5.15181e-08
3.30009e-06
-4.41071e-07
3.3281e-06
8.76787e-07
3.32529e-06
2.50934e-07
3.34473e-06
2.80384e-07
3.33749e-06
1.7232e-07
3.3443e-06
-6.89744e-08
3.3361e-06
-4.71825e-08
3.33132e-06
-1.59553e-07
3.33306e-06
-1.12901e-07
3.32674e-06
-1.08858e-07
3.31685e-06
-1.33083e-07
3.3121e-06
-8.77477e-08
3.304e-06
-9.00327e-08
3.29649e-06
-6.98618e-08
3.2913e-06
-6.63663e-08
3.29671e-06
-5.14837e-08
-3.40611e-08
3.29262e-06
3.4482e-06
-1.41358e-07
3.45172e-06
-1.46614e-07
3.43893e-06
-3.87222e-08
3.42581e-06
-4.27957e-07
3.45563e-06
8.46969e-07
3.45118e-06
2.55388e-07
3.4714e-06
2.60161e-07
3.46434e-06
1.79384e-07
3.46982e-06
-7.44532e-08
3.46461e-06
-4.19714e-08
3.45626e-06
-1.51207e-07
3.46059e-06
-1.17237e-07
3.44985e-06
-9.81097e-08
3.45408e-06
-1.37319e-07
3.45419e-06
-8.78516e-08
3.4535e-06
-8.93432e-08
3.45221e-06
-6.85744e-08
3.44535e-06
-5.95086e-08
3.42426e-06
-3.03912e-08
-2.80829e-08
3.41828e-06
3.57887e-06
-1.36882e-07
3.5826e-06
-1.50339e-07
3.57051e-06
-2.6642e-08
3.55603e-06
-4.13471e-07
3.58814e-06
8.14861e-07
3.58195e-06
2.61573e-07
3.60303e-06
2.39084e-07
3.59593e-06
1.86486e-07
3.60048e-06
-7.90084e-08
3.59636e-06
-3.78544e-08
3.58856e-06
-1.43407e-07
3.58972e-06
-1.18389e-07
3.58411e-06
-9.25074e-08
3.57227e-06
-1.25477e-07
3.56729e-06
-8.287e-08
3.55731e-06
-7.93603e-08
3.55028e-06
-6.15497e-08
3.54634e-06
-5.55703e-08
3.55221e-06
-3.62582e-08
-2.50739e-08
3.5492e-06
3.71453e-06
-1.32022e-07
3.71847e-06
-1.54287e-07
3.70711e-06
-1.52817e-08
3.69113e-06
-3.97488e-07
3.72534e-06
7.80652e-07
3.71809e-06
2.68825e-07
3.73923e-06
2.17937e-07
3.73315e-06
1.92569e-07
3.73542e-06
-8.12787e-08
3.73408e-06
-3.65078e-08
3.72493e-06
-1.34264e-07
3.72597e-06
-1.19425e-07
3.72332e-06
-8.986e-08
3.70703e-06
-1.09187e-07
3.70143e-06
-7.72667e-08
3.69203e-06
-6.99666e-08
3.68428e-06
-5.37922e-08
3.67996e-06
-5.12522e-08
3.68776e-06
-4.40586e-08
-2.20976e-08
3.68478e-06
3.85538e-06
-1.26817e-07
3.85952e-06
-1.58418e-07
3.84901e-06
-4.77551e-09
3.83129e-06
-3.79771e-07
3.86738e-06
7.44568e-07
3.8597e-06
2.765e-07
3.8801e-06
1.97538e-07
3.87633e-06
1.96344e-07
3.87452e-06
-7.94699e-08
3.87797e-06
-3.99647e-08
3.8624e-06
-1.18689e-07
3.8677e-06
-1.24721e-07
3.85592e-06
-7.8087e-08
3.86596e-06
-1.19221e-07
3.86614e-06
-7.74547e-08
3.86682e-06
-7.06404e-08
3.86544e-06
-5.24121e-08
3.85592e-06
-4.17327e-08
3.83188e-06
-2.00205e-08
-1.52146e-08
3.825e-06
4.00167e-06
-1.21338e-07
4.0058e-06
-1.62538e-07
3.99668e-06
4.33579e-09
3.97643e-06
-3.59513e-07
4.0148e-06
7.06192e-07
4.00633e-06
2.84976e-07
4.02701e-06
1.76854e-07
4.02325e-06
2.00107e-07
4.02219e-06
-7.84121e-08
4.02247e-06
-4.02441e-08
4.0156e-06
-1.11824e-07
4.01687e-06
-1.25985e-07
4.01572e-06
-7.69426e-08
3.99244e-06
-9.59376e-08
3.98541e-06
-7.04286e-08
3.97603e-06
-6.12562e-08
3.96963e-06
-4.60112e-08
3.96627e-06
-3.83738e-08
3.97344e-06
-2.71909e-08
-1.36613e-08
3.97189e-06
4.15357e-06
-1.15623e-07
4.15765e-06
-1.66619e-07
4.15003e-06
1.19574e-08
4.12728e-06
-3.3677e-07
4.1672e-06
6.66278e-07
4.15904e-06
2.93136e-07
4.17859e-06
1.57302e-07
4.17668e-06
2.0202e-07
4.17409e-06
-7.58212e-08
4.17406e-06
-4.02165e-08
4.1687e-06
-1.06466e-07
4.15551e-06
-1.12795e-07
4.15101e-06
-7.2448e-08
4.1416e-06
-8.65198e-08
4.13597e-06
-6.47968e-08
4.12692e-06
-5.22069e-08
4.12005e-06
-3.91428e-08
4.11635e-06
-3.4678e-08
4.12514e-06
-3.59774e-08
-1.18147e-08
4.12329e-06
4.3113e-06
-1.09732e-07
4.31527e-06
-1.7059e-07
4.30933e-06
1.78993e-08
4.28422e-06
-3.11665e-07
4.32484e-06
6.25661e-07
4.31814e-06
2.99835e-07
4.33449e-06
1.40946e-07
4.33779e-06
1.98724e-07
4.32867e-06
-6.66959e-08
4.33485e-06
-4.63959e-08
4.31828e-06
-8.98997e-08
4.33058e-06
-1.25094e-07
4.32979e-06
-7.16579e-08
4.32823e-06
-8.49634e-08
4.32633e-06
-6.28973e-08
4.32944e-06
-5.53199e-08
4.32802e-06
-3.77144e-08
4.31601e-06
-2.26701e-08
4.28879e-06
-8.75818e-09
-2.72574e-09
4.2797e-06
4.47513e-06
-1.03774e-07
4.47865e-06
-1.74112e-07
4.47505e-06
2.1502e-08
4.4469e-06
-2.8352e-07
4.4889e-06
5.83664e-07
4.48222e-06
3.0651e-07
4.4989e-06
1.24266e-07
4.49994e-06
1.97686e-07
4.49542e-06
-6.21772e-08
4.49335e-06
-4.43206e-08
4.491e-06
-8.7551e-08
4.476e-06
-1.10098e-07
4.47274e-06
-6.83988e-08
4.46003e-06
-7.22489e-08
4.45474e-06
-5.7604e-08
4.44528e-06
-4.58633e-08
4.44062e-06
-3.30506e-08
4.43804e-06
-2.00963e-08
4.44487e-06
-1.55842e-08
-2.05442e-09
4.4442e-06
4.64518e-06
-9.77489e-08
4.64837e-06
-1.77297e-07
4.64642e-06
2.34494e-08
4.61676e-06
-2.5386e-07
4.65831e-06
5.42112e-07
4.65371e-06
3.11113e-07
4.66723e-06
1.10743e-07
4.67096e-06
1.93954e-07
4.66511e-06
-5.63217e-08
4.66045e-06
-3.96649e-08
4.65169e-06
-7.8785e-08
4.64489e-06
-1.03304e-07
4.64394e-06
-6.74511e-08
4.6284e-06
-5.6702e-08
4.62347e-06
-5.26761e-08
4.61436e-06
-3.67536e-08
4.60934e-06
-2.8027e-08
4.60693e-06
-1.76918e-08
4.615e-06
-2.36532e-08
-6.12954e-10
4.61356e-06
4.82176e-06
-9.17209e-08
4.82454e-06
-1.80082e-07
4.82395e-06
2.40394e-08
4.79377e-06
-2.23677e-07
4.8334e-06
5.02479e-07
4.83318e-06
3.11333e-07
4.83891e-06
1.05016e-07
4.85244e-06
1.80427e-07
4.83536e-06
-3.92441e-08
4.84595e-06
-5.02568e-08
4.82432e-06
-5.71534e-08
4.82207e-06
-1.01056e-07
4.81879e-06
-6.41636e-08
4.83678e-06
-7.46938e-08
4.84162e-06
-5.75223e-08
4.84796e-06
-4.30849e-08
4.84498e-06
-2.50472e-08
4.83172e-06
-4.43399e-09
4.80064e-06
7.42624e-09
1.23503e-08
4.78767e-06
5.00515e-06
-8.58018e-08
5.00715e-06
-1.82076e-07
5.00844e-06
2.2747e-08
4.97703e-06
-1.92265e-07
5.01643e-06
4.63081e-07
5.01624e-06
3.11522e-07
5.02375e-06
9.75053e-08
5.03185e-06
1.72327e-07
5.02012e-06
-2.75186e-08
5.01937e-06
-4.95082e-08
5.00932e-06
-4.71012e-08
5.00209e-06
-9.38269e-08
4.99899e-06
-6.10619e-08
4.98792e-06
-6.3624e-08
4.9809e-06
-5.05019e-08
4.9742e-06
-3.6387e-08
4.9676e-06
-1.84416e-08
4.96827e-06
-5.11003e-09
4.97265e-06
3.04437e-09
1.26586e-08
4.97235e-06
5.19546e-06
-7.99476e-08
5.19698e-06
-1.83596e-07
5.19919e-06
2.05399e-08
5.16832e-06
-1.61402e-07
5.20545e-06
4.25951e-07
5.20711e-06
3.09868e-07
5.21454e-06
9.0068e-08
5.21914e-06
1.67733e-07
5.21243e-06
-2.08134e-08
5.20675e-06
-4.38228e-08
5.20076e-06
-4.11153e-08
5.18932e-06
-8.23829e-08
5.18768e-06
-5.94201e-08
5.17716e-06
-5.3104e-08
5.17165e-06
-4.49951e-08
5.16407e-06
-2.88132e-08
5.16474e-06
-1.91116e-08
5.16026e-06
-6.27649e-10
5.16132e-06
1.98925e-09
1.13022e-08
5.16267e-06
5.39306e-06
-7.4231e-08
5.39396e-06
-1.84498e-07
5.39701e-06
1.74938e-08
5.36773e-06
-1.32128e-07
5.40066e-06
3.93021e-07
5.40616e-06
3.04377e-07
5.40976e-06
8.64671e-08
5.41675e-06
1.60737e-07
5.40642e-06
-1.04777e-08
5.40387e-06
-4.12758e-08
5.39659e-06
-3.384e-08
5.38595e-06
-7.17391e-08
5.38222e-06
-5.56909e-08
5.37507e-06
-4.59536e-08
5.36857e-06
-3.84902e-08
5.36329e-06
-2.35346e-08
5.36206e-06
-1.78824e-08
5.36005e-06
1.38151e-09
5.35909e-06
2.94528e-09
1.10212e-08
5.35937e-06
5.59822e-06
-6.87124e-08
5.59841e-06
-1.84684e-07
5.60221e-06
1.36879e-08
5.57518e-06
-1.05097e-07
5.60375e-06
3.64456e-07
5.61167e-06
2.9645e-07
5.61333e-06
8.48108e-08
5.621e-06
1.53062e-07
5.60996e-06
5.69777e-10
5.60769e-06
-3.90138e-08
5.60042e-06
-2.65669e-08
5.59021e-06
-6.15321e-08
5.58553e-06
-5.10085e-08
5.57996e-06
-4.03864e-08
5.57351e-06
-3.20404e-08
5.56925e-06
-1.92721e-08
5.56548e-06
-1.41104e-08
5.56397e-06
2.88869e-09
5.56349e-06
3.42558e-09
1.13245e-08
5.56319e-06
5.81116e-06
-6.33879e-08
5.81081e-06
-1.84335e-07
5.81486e-06
9.63015e-09
5.79146e-06
-8.16977e-08
5.81458e-06
3.41344e-07
5.82473e-06
2.86299e-07
5.82458e-06
8.49574e-08
5.83295e-06
1.44693e-07
5.82178e-06
1.17365e-08
5.81905e-06
-3.62826e-08
5.81209e-06
-1.9603e-08
5.80263e-06
-5.20739e-08
5.797e-06
-4.53744e-08
5.79224e-06
-3.56322e-08
5.78654e-06
-2.63422e-08
5.78198e-06
-1.47049e-08
5.77866e-06
-1.07976e-08
5.77869e-06
2.86156e-09
5.77597e-06
6.14499e-09
1.18333e-08
5.77546e-06
6.03223e-06
-5.83197e-08
6.0312e-06
-1.83306e-07
6.03557e-06
5.26468e-09
6.0155e-06
-6.163e-08
6.03416e-06
3.22686e-07
6.0452e-06
2.75258e-07
6.04416e-06
8.59958e-08
6.05267e-06
1.3619e-07
6.04185e-06
2.25496e-08
6.03837e-06
-3.27978e-08
6.03215e-06
-1.33814e-08
6.02318e-06
-4.31041e-08
6.01678e-06
-3.8975e-08
6.01271e-06
-3.15682e-08
6.0074e-06
-2.10298e-08
6.00271e-06
-1.00138e-08
5.99838e-06
-6.46352e-09
5.99637e-06
4.86538e-09
5.99614e-06
6.37502e-09
1.20122e-08
5.99596e-06
6.26172e-06
-5.35434e-08
6.26e-06
-1.8158e-07
6.26452e-06
7.42622e-10
6.24734e-06
-4.44531e-08
6.26284e-06
3.07188e-07
6.27374e-06
2.64355e-07
6.27227e-06
8.74726e-08
6.28046e-06
1.27992e-07
6.27037e-06
3.26412e-08
6.2662e-06
-2.86279e-08
6.26073e-06
-7.90909e-09
6.25218e-06
-3.45577e-08
6.24527e-06
-3.20595e-08
6.24123e-06
-2.7526e-08
6.2364e-06
-1.6199e-08
6.23222e-06
-5.83748e-09
6.22984e-06
-4.08184e-09
6.22907e-06
5.63229e-09
6.22596e-06
9.48347e-09
1.32103e-08
6.22476e-06
6.49995e-06
-4.90844e-08
6.4974e-06
-1.79032e-07
6.50219e-06
-4.05029e-09
6.48739e-06
-2.96521e-08
6.50091e-06
2.93667e-07
6.51077e-06
2.54497e-07
6.50928e-06
8.89562e-08
6.51677e-06
1.20508e-07
6.50781e-06
4.15958e-08
6.5028e-06
-2.36151e-08
6.49798e-06
-3.09176e-09
6.48971e-06
-2.62811e-08
6.48262e-06
-2.49698e-08
6.4785e-06
-2.3413e-08
6.47448e-06
-1.21754e-08
6.47017e-06
-1.53228e-09
6.46579e-06
3.04399e-10
6.46331e-06
8.10991e-09
6.46347e-06
9.32363e-09
1.40103e-08
6.46267e-06
6.74726e-06
-4.50094e-08
6.74371e-06
-1.75473e-07
6.74879e-06
-9.13074e-09
6.73609e-06
-1.69553e-08
6.74864e-06
2.8112e-07
6.75714e-06
2.45991e-07
6.75536e-06
9.07433e-08
6.76202e-06
1.13842e-07
6.75413e-06
4.94908e-08
6.74844e-06
-1.79328e-08
6.74422e-06
1.132e-09
6.73659e-06
-1.86552e-08
6.72957e-06
-1.79502e-08
6.72489e-06
-1.87272e-08
6.72123e-06
-8.51777e-09
6.71744e-06
2.26296e-09
6.71481e-06
2.92925e-09
6.71339e-06
9.53598e-09
6.71074e-06
1.19716e-08
1.53993e-08
6.70935e-06
7.00395e-06
-4.1313e-08
6.99914e-06
-1.70657e-07
7.00482e-06
-1.48098e-08
6.99395e-06
-6.09049e-09
7.0062e-06
2.68869e-07
7.01321e-06
2.38984e-07
7.01082e-06
9.31338e-08
7.01677e-06
1.07891e-07
7.00997e-06
5.62903e-08
7.00381e-06
-1.17728e-08
6.99979e-06
5.15086e-09
6.99275e-06
-1.16113e-08
6.9857e-06
-1.0901e-08
6.98056e-06
-1.35844e-08
6.97742e-06
-5.38112e-09
6.97375e-06
5.92748e-09
6.9696e-06
7.08414e-09
6.96701e-06
1.21216e-08
6.96679e-06
1.21968e-08
1.61641e-08
6.96602e-06
7.27044e-06
-3.80594e-08
7.26395e-06
-1.64166e-07
7.27049e-06
-2.13555e-08
7.2613e-06
3.10614e-09
7.27467e-06
2.55493e-07
7.27945e-06
2.34208e-07
7.27622e-06
9.63617e-08
7.2813e-06
1.02805e-07
7.27533e-06
6.22692e-08
7.26888e-06
-5.32514e-09
7.265e-06
9.02588e-09
7.2587e-06
-5.31178e-09
7.25199e-06
-4.18956e-09
7.24632e-06
-7.91261e-09
7.24335e-06
-2.40817e-09
7.24034e-06
8.93372e-09
7.23775e-06
9.67362e-09
7.23585e-06
1.40209e-08
7.23322e-06
1.48268e-08
1.74412e-08
7.23195e-06
7.54699e-06
-3.52228e-08
7.53879e-06
-1.55958e-07
7.54622e-06
-2.87908e-08
7.53874e-06
1.05848e-08
7.55283e-06
2.4141e-07
7.55545e-06
2.31587e-07
7.55196e-06
9.98434e-08
7.55603e-06
9.87373e-08
7.5509e-06
6.74042e-08
7.54441e-06
1.16398e-09
7.54045e-06
1.29845e-08
7.53459e-06
5.49803e-10
7.52831e-06
2.08677e-09
7.52242e-06
-2.01993e-09
7.51933e-06
6.85901e-10
7.5163e-06
1.19599e-08
7.51259e-06
1.3387e-08
7.51004e-06
1.65695e-08
7.50916e-06
1.56993e-08
1.80646e-08
7.50854e-06
7.83403e-06
-3.27938e-08
7.82462e-06
-1.46555e-07
7.83201e-06
-3.61745e-08
7.82689e-06
1.57021e-08
7.83719e-06
2.31105e-07
7.84138e-06
2.27405e-07
7.8388e-06
1.0242e-07
7.84135e-06
9.61821e-08
7.83677e-06
7.19886e-08
7.83034e-06
7.59025e-09
7.82632e-06
1.70089e-08
7.82097e-06
5.89463e-09
7.81539e-06
7.66662e-09
7.8092e-06
4.17012e-09
7.80573e-06
4.16426e-09
7.80334e-06
1.43426e-08
7.80107e-06
1.5656e-08
7.79918e-06
1.84613e-08
7.79646e-06
1.84239e-08
1.91624e-08
7.79536e-06
8.1319e-06
-3.07291e-08
8.12147e-06
-1.36129e-07
8.12829e-06
-4.29947e-08
8.12616e-06
1.78271e-08
8.14235e-06
2.14925e-07
8.15536e-06
2.14394e-07
8.13808e-06
1.19699e-07
8.13747e-06
9.67862e-08
8.13371e-06
7.57535e-08
8.12746e-06
1.38364e-08
8.12335e-06
2.1119e-08
8.11814e-06
1.11025e-08
8.11315e-06
1.26594e-08
8.10713e-06
1.01906e-08
8.10326e-06
8.0339e-09
8.10094e-06
1.66651e-08
8.09779e-06
1.88006e-08
8.09548e-06
2.07751e-08
8.09417e-06
1.97363e-08
1.99723e-08
8.09336e-06
8.44105e-06
-2.90192e-08
8.42927e-06
-1.24351e-07
8.43636e-06
-5.00845e-08
8.43548e-06
1.87103e-08
8.44955e-06
2.00853e-07
8.44865e-06
2.15292e-07
8.44419e-06
1.24158e-07
8.44555e-06
9.54303e-08
8.44195e-06
7.93534e-08
8.4358e-06