/*--------------------------------*- C++ -*----------------------------------*\
| =========                 |                                                 |
| \\      /  F ield         | OpenFOAM: The Open Source CFD Toolbox           |
|  \\    /   O peration     | Version:  v2012                                 |
|   \\  /    A nd           | Website:  www.openfoam.com                      |
|    \\/     M anipulation  |                                                 |
\*---------------------------------------------------------------------------*/
FoamFile
{
    version     2.0;
    format      ascii;
    class       volVectorField;
    location    "6.2";
    object      U;
}
// * * * * * * * * * * * * * * * * * * * * * * * * * * * * * * * * * * * * * //

dimensions      [0 1 -1 0 0 0 0];


internalField   nonuniform List<vector> 
7000
(
(0.975494 -0.0017347 0)
(1.01008 -0.00149121 0)
(0.982311 -0.00245584 0)
(1.02483 -0.00758143 0)
(0.983217 0.0190469 0)
(1.13168 0.00126205 0)
(0.735402 0.00814316 0)
(1.21358 0.00719495 0)
(0.702863 -0.00555583 0)
(1.15221 5.26801e-05 0)
(0.84982 -0.0146508 0)
(1.07821 -0.00334012 0)
(0.889153 -0.0103484 0)
(1.04749 -0.0038101 0)
(0.912089 -0.00918875 0)
(1.04898 -0.0128755 0)
(0.90438 -0.00912269 0)
(1.06446 -0.021117 0)
(0.876364 -0.0111842 0)
(1.0815 -0.0233117 0)
(0.978323 -0.00168674 0)
(1.00786 -0.00150003 0)
(0.984484 -0.00255615 0)
(1.02374 -0.00753678 0)
(0.985372 0.0182762 0)
(1.12161 0.00386999 0)
(0.759337 0.00730603 0)
(1.18147 0.00791575 0)
(0.770331 -0.0051534 0)
(1.1065 -0.00165664 0)
(0.909753 -0.0139041 0)
(1.04013 -0.00370813 0)
(0.940762 -0.00986729 0)
(1.00492 -0.00417113 0)
(0.965242 -0.0091034 0)
(0.992527 -0.0128256 0)
(0.969672 -0.00930404 0)
(0.988207 -0.0208431 0)
(0.958039 -0.0108968 0)
(0.988381 -0.0239673 0)
(0.983437 -0.00163335 0)
(1.00367 -0.00151667 0)
(0.988301 -0.00267231 0)
(1.02145 -0.0075231 0)
(0.990147 0.0175326 0)
(1.1032 0.00550395 0)
(0.806235 0.0064493 0)
(1.13009 0.0080829 0)
(0.855154 -0.00471852 0)
(1.05141 -0.00291807 0)
(0.96046 -0.0131867 0)
(0.999283 -0.00408579 0)
(0.973336 -0.00929613 0)
(0.973743 -0.0046711 0)
(0.984044 -0.00878578 0)
(0.965216 -0.0130874 0)
(0.985423 -0.00914182 0)
(0.961052 -0.0205532 0)
(0.978323 -0.0111667 0)
(0.961011 -0.0227684 0)
(0.990047 -0.00158435 0)
(0.99812 -0.00153102 0)
(0.992964 -0.0027901 0)
(1.01808 -0.00752481 0)
(0.996502 0.0170354 0)
(1.0802 0.00675184 0)
(0.862627 0.00612448 0)
(1.07777 0.00769407 0)
(0.925295 -0.00409449 0)
(1.01266 -0.00383244 0)
(0.986707 -0.0126102 0)
(0.976538 -0.00423039 0)
(0.98119 -0.00885405 0)
(0.963934 -0.00496262 0)
(0.98082 -0.00846976 0)
(0.960212 -0.0133718 0)
(0.97958 -0.00867598 0)
(0.956223 -0.0207814 0)
(0.97459 -0.0107768 0)
(0.95552 -0.0222238 0)
(0.997243 -0.0015358 0)
(0.992124 -0.00154009 0)
(0.997561 -0.00291584 0)
(1.0141 -0.00753511 0)
(1.00262 0.0166947 0)
(1.05706 0.00763875 0)
(0.914498 0.00617231 0)
(1.03775 0.00714018 0)
(0.971361 -0.00351337 0)
(0.996235 -0.00436236 0)
(0.994742 -0.0121422 0)
(0.970835 -0.00415961 0)
(0.978941 -0.00854735 0)
(0.965548 -0.00508601 0)
(0.974802 -0.00820094 0)
(0.962645 -0.0135304 0)
(0.972231 -0.00829009 0)
(0.957682 -0.0209187 0)
(0.967261 -0.0103281 0)
(0.956156 -0.0219427 0)
(1.00416 -0.00148701 0)
(0.98662 -0.00154222 0)
(1.00143 -0.00305044 0)
(1.01 -0.00755825 0)
(1.00685 0.016462 0)
(1.03718 0.00819085 0)
(0.953925 0.00638018 0)
(1.01436 0.00660547 0)
(0.997027 -0.00312863 0)
(0.995488 -0.00452975 0)
(0.9952 -0.0117152 0)
(0.973327 -0.00399644 0)
(0.976643 -0.00829238 0)
(0.969924 -0.00517493 0)
(0.972645 -0.0079106 0)
(0.965468 -0.0136491 0)
(0.969035 -0.00790524 0)
(0.958999 -0.0209283 0)
(0.962868 -0.00998478 0)
(0.95653 -0.0216783 0)
(1.01016 -0.00143989 0)
(0.982239 -0.00153474 0)
(1.00438 -0.00319105 0)
(1.00606 -0.00758496 0)
(1.00845 0.016332 0)
(1.02182 0.00848091 0)
(0.979667 0.00661872 0)
(1.00469 0.00615216 0)
(1.00982 -0.00292341 0)
(1.00123 -0.0044574 0)
(0.995116 -0.0112628 0)
(0.977515 -0.00382712 0)
(0.977029 -0.00802943 0)
(0.97367 -0.00529022 0)
(0.97395 -0.00756827 0)
(0.967212 -0.0137384 0)
(0.969281 -0.00748414 0)
(0.95956 -0.0208304 0)
(0.961505 -0.00970973 0)
(0.956205 -0.0213035 0)
(1.01495 -0.00139638 0)
(0.979185 -0.00151655 0)
(1.00654 -0.00333189 0)
(1.00227 -0.0075993 0)
(1.00767 0.016281 0)
(1.01039 0.00858711 0)
(0.994596 0.0068126 0)
(1.00298 0.00578071 0)
(1.01596 -0.00282738 0)
(1.00736 -0.00427971 0)
(0.996632 -0.0107474 0)
(0.981044 -0.00367681 0)
(0.979311 -0.0077388 0)
(0.976514 -0.00543974 0)
(0.976835 -0.00716848 0)
(0.968626 -0.0137955 0)
(0.971138 -0.00704555 0)
(0.960555 -0.0206155 0)
(0.96184 -0.00946533 0)
(0.956397 -0.0207937 0)
(1.01847 -0.00135769 0)
(0.977375 -0.00148885 0)
(1.00815 -0.00346556 0)
(0.998539 -0.00759045 0)
(1.00542 0.0162792 0)
(1.00158 0.00856871 0)
(1.00275 0.00692553 0)
(1.00426 0.00546096 0)
(1.01889 -0.00277921 0)
(1.01149 -0.00408019 0)
(0.999081 -0.0101685 0)
(0.983786 -0.00354486 0)
(0.982297 -0.00742013 0)
(0.979114 -0.00561463 0)
(0.980143 -0.00672905 0)
(0.970636 -0.013814 0)
(0.973608 -0.00661797 0)
(0.962835 -0.0202742 0)
(0.963112 -0.00924354 0)
(0.957875 -0.0201584 0)
(1.02081 -0.00132459 0)
(0.976656 -0.001454 0)
(1.0093 -0.00358486 0)
(0.99482 -0.00755339 0)
(1.00272 0.0163108 0)
(0.994322 0.00846005 0)
(1.00744 0.0069506 0)
(1.00569 0.00516896 0)
(1.01999 -0.00274027 0)
(1.01339 -0.0038951 0)
(1.00126 -0.00955097 0)
(0.986094 -0.00343178 0)
(0.985354 -0.00708254 0)
(0.981957 -0.00580982 0)
(0.983545 -0.00627428 0)
(0.973599 -0.013786 0)
(0.976486 -0.00623163 0)
(0.966475 -0.0198081 0)
(0.965182 -0.00904043 0)
(0.960675 -0.0194127 0)
(1.02205 -0.00129765 0)
(0.976943 -0.00141435 0)
(1.00996 -0.00368267 0)
(0.991174 -0.00748974 0)
(1.0003 0.0163688 0)
(0.988194 0.00827885 0)
(1.01062 0.00689783 0)
(1.0062 0.00490068 0)
(1.01974 -0.00269165 0)
(1.01356 -0.00373659 0)
(1.00252 -0.00892401 0)
(0.988164 -0.0033477 0)
(0.988283 -0.00674242 0)
(0.985106 -0.00602512 0)
(0.98702 -0.00582474 0)
(0.977341 -0.0137088 0)
(0.979794 -0.00591247 0)
(0.971073 -0.0192264 0)
(0.968047 -0.00884826 0)
(0.964444 -0.0185715 0)
(1.02225 -0.00127765 0)
(0.978199 -0.00137164 0)
(1.01004 -0.00375185 0)
(0.987737 -0.00740661 0)
(0.99849 0.016447 0)
(0.983297 0.00803696 0)
(1.01308 0.00678507 0)
(1.00574 0.00466308 0)
(1.01849 -0.00262724 0)
(1.01256 -0.00360791 0)
(1.00281 -0.00831112 0)
(0.990041 -0.00330982 0)
(0.991034 -0.00641684 0)
(0.988336 -0.00625864 0)
(0.990506 -0.00540256 0)
(0.981444 -0.0135825 0)
(0.983405 -0.0056728 0)
(0.976083 -0.0185447 0)
(0.97153 -0.00866288 0)
(0.968727 -0.0176522 0)
(1.02145 -0.00126538 0)
(0.980341 -0.00132713 0)
(1.00954 -0.0037863 0)
(0.984691 -0.00731192 0)
(0.997261 0.0165364 0)
(0.97997 0.00774652 0)
(1.01494 0.00663365 0)
(1.00463 0.00446382 0)
(1.01662 -0.00254597 0)
(1.0109 -0.00350953 0)
(1.00243 -0.00772896 0)
(0.991738 -0.003334 0)
(0.993575 -0.00611618 0)
(0.991353 -0.00650492 0)
(0.993808 -0.00503003 0)
(0.985476 -0.0134094 0)
(0.987 -0.00551257 0)
(0.980985 -0.0177806 0)
(0.975277 -0.00848212 0)
(0.973073 -0.0166774 0)
(1.01975 -0.00126121 0)
(0.983173 -0.00128217 0)
(1.00852 -0.00378172 0)
(0.982242 -0.00721297 0)
(0.996362 0.0166259 0)
(0.978548 0.00741653 0)
(1.01601 0.00646506 0)
(1.00332 0.00430484 0)
(1.01453 -0.0024481 0)
(1.00903 -0.00344067 0)
(1.00179 -0.00718952 0)
(0.993287 -0.00342524 0)
(0.995862 -0.0058448 0)
(0.993938 -0.00675435 0)
(0.996682 -0.00472202 0)
(0.989103 -0.0131922 0)
(0.990194 -0.00542715 0)
(0.985348 -0.0169528 0)
(0.978879 -0.00830141 0)
(0.977081 -0.015673 0)
(1.01735 -0.00126458 0)
(0.98638 -0.00123848 0)
(1.00713 -0.00373722 0)
(0.980578 -0.00711404 0)
(0.995497 0.016701 0)
(0.979184 0.00706053 0)
(1.01603 0.00630063 0)
(1.00224 0.00417947 0)
(1.01253 -0.00233474 0)
(1.00729 -0.00339945 0)
(1.00122 -0.00670072 0)
(0.994707 -0.00357624 0)
(0.997848 -0.00560322 0)
(0.995986 -0.00699262 0)
(0.99893 -0.00448392 0)
(0.992119 -0.0129267 0)
(0.992695 -0.00541095 0)
(0.988873 -0.0160875 0)
(0.982013 -0.00811219 0)
(0.980448 -0.014665 0)
(1.01451 -0.00127387 0)
(0.989601 -0.00119796 0)
(1.00556 -0.00365608 0)
(0.979801 -0.00701584 0)
(0.9945 0.0167455 0)
(0.981744 0.00669693 0)
(1.01495 0.00615892 0)
(1.00164 0.00407378 0)
(1.01079 -0.00220653 0)
(1.00587 -0.00338394 0)
(1.0009 -0.0062639 0)
(0.995981 -0.0037725 0)
(0.99949 -0.00539048 0)
(0.997491 -0.00720213 0)
(1.00046 -0.00431482 0)
(0.994438 -0.0126057 0)
(0.99439 -0.0054512 0)
(0.991425 -0.0152153 0)
(0.984516 -0.00790766 0)
(0.983025 -0.0136747 0)
(1.01157 -0.0012866 0)
(0.992518 -0.00116229 0)
(1.00397 -0.00354504 0)
(0.979861 -0.00691721 0)
(0.993416 0.0167452 0)
(0.985783 0.00633992 0)
(1.01295 0.00605223 0)
(1.00161 0.00397149 0)
(1.00937 -0.00206241 0)
(1.00484 -0.00339396 0)
(1.00087 -0.00587518 0)
(0.997056 -0.00399355 0)
(1.00077 -0.00520894 0)
(0.998509 -0.00736342 0)
(1.0013 -0.00421403 0)
(0.996072 -0.0122309 0)
(0.995352 -0.00552066 0)
(0.993043 -0.0143581 0)
(0.986384 -0.00769242 0)
(0.984832 -0.0127222 0)
(1.00882 -0.00130008 0)
(0.994917 -0.00113258 0)
(1.00251 -0.00341244 0)
(0.980544 -0.00681708 0)
(0.992463 0.01669 0)
(0.990633 0.0060022 0)
(1.01047 0.00598741 0)
(1.00203 0.00385945 0)
(1.00827 -0.00189978 0)
(1.00418 -0.00342868 0)
(1.00108 -0.00553002 0)
(0.997882 -0.00421466 0)
(1.00169 -0.00506408 0)
(0.999119 -0.00746019 0)
(1.00158 -0.0041781 0)
(0.997104 -0.0118156 0)
(0.995775 -0.00559032 0)
(0.9939 -0.0135249 0)
(0.987719 -0.00747703 0)
(0.98602 -0.0118278 0)
(1.00649 -0.00131203 0)
(0.99672 -0.00110916 0)
(1.00128 -0.00326596 0)
(0.981548 -0.00671636 0)
(0.991887 0.0165752 0)
(0.995565 0.00569243 0)
(1.00804 0.00596755 0)
(1.0027 0.00372685 0)
(1.0075 -0.00172214 0)
(1.00381 -0.00348015 0)
(1.00144 -0.00522586 0)
(0.998446 -0.00441211 0)
(1.00231 -0.00496143 0)
(0.999405 -0.00748323 0)
(1.00146 -0.00419499 0)
(0.99766 -0.0113773 0)
(0.995877 -0.00564769 0)
(0.994241 -0.0127184 0)
(0.988665 -0.00726455 0)
(0.986802 -0.0109976 0)
(1.0047 -0.00132104 0)
(0.997964 -0.0010917 0)
(1.00033 -0.00311107 0)
(0.982579 -0.00661778 0)
(0.991809 0.0164021 0)
(0.999974 0.00541487 0)
(1.00606 0.00598967 0)
(1.00342 0.00357493 0)
(1.00702 -0.00153694 0)
(1.00364 -0.00353629 0)
(1.00187 -0.00496187 0)
(0.99879 -0.00456724 0)
(1.00269 -0.00490063 0)
(0.999447 -0.00743546 0)
(1.00112 -0.0042453 0)
(0.997878 -0.0109298 0)
(0.995833 -0.00569852 0)
(0.994304 -0.0119448 0)
(0.989348 -0.00704952 0)
(0.98737 -0.0102252 0)
(1.00343 -0.00132664 0)
(0.998756 -0.00107949 0)
(0.999666 -0.0029507 0)
(0.983452 -0.00652422 0)
(0.992162 0.016176 0)
(1.00348 0.00516919 0)
(1.00474 0.00604415 0)
(1.00405 0.00341419 0)
(1.00679 -0.00134859 0)
(1.00359 -0.00358728 0)
(1.00231 -0.00473972 0)
(0.998983 -0.00466594 0)
(1.00288 -0.0048773 0)
(0.99933 -0.00733137 0)
(1.00069 -0.00431186 0)
(0.997887 -0.0104744 0)
(0.995743 -0.00574615 0)
(0.994265 -0.0112204 0)
(0.989858 -0.00682919 0)
(0.987845 -0.00950284 0)
(1.00263 -0.00132916 0)
(0.999229 -0.00107177 0)
(0.999257 -0.00278552 0)
(0.984115 -0.00643765 0)
(0.992735 0.0159058 0)
(1.00594 0.00495111 0)
(1.004 0.00611974 0)
(1.00456 0.00325081 0)
(1.00673 -0.00116405 0)
(1.00361 -0.00361955 0)
(1.00272 -0.00456241 0)
(0.999097 -0.00470409 0)
(1.00294 -0.00488341 0)
(0.999136 -0.00718102 0)
(1.00024 -0.00439689 0)
(0.997786 -0.0100136 0)
(0.995648 -0.00576466 0)
(0.994212 -0.010551 0)
(0.990253 -0.00662578 0)
(0.988271 -0.00883004 0)
(1.00216 -0.00132923 0)
(0.999497 -0.00106811 0)
(0.999044 -0.002615 0)
(0.984623 -0.00635786 0)
(0.993295 0.0156013 0)
(1.00741 0.00475493 0)
(1.00367 0.00620418 0)
(1.00497 0.00309584 0)
(1.00677 -0.000997345 0)
(1.00365 -0.00361769 0)
(1.00309 -0.00442838 0)
(0.999188 -0.00468475 0)
(1.00289 -0.00491394 0)
(0.998933 -0.00698372 0)
(0.999831 -0.00449241 0)
(0.997644 -0.00958948 0)
(0.995563 -0.00573905 0)
(0.994161 -0.00988456 0)
(0.990571 -0.00645387 0)
(0.988649 -0.0082259 0)
(1.00191 -0.00132742 0)
(0.999648 -0.00106856 0)
(0.99896 -0.00243865 0)
(0.985078 -0.00628277 0)
(0.993679 0.0152731 0)
(1.00803 0.00457504 0)
(1.00351 0.0062831 0)
(1.0053 0.00295913 0)
(1.00684 -0.000853399 0)
(1.00368 -0.00358064 0)
(1.00339 -0.00433734 0)
(0.999285 -0.00460368 0)
(1.00278 -0.00496621 0)
(0.998773 -0.00676123 0)
(0.999464 -0.00454785 0)
(0.9975 -0.00921361 0)
(0.995502 -0.00574144 0)
(0.994101 -0.0091952 0)
(0.990829 -0.00623718 0)
(0.988965 -0.00767799 0)
(1.00178 -0.00132413 0)
(0.999731 -0.00107291 0)
(0.998941 -0.00225777 0)
(0.985578 -0.00620793 0)
(0.993839 0.0149293 0)
(1.00802 0.00440968 0)
(1.00337 0.00634268 0)
(1.00556 0.00283975 0)
(1.0069 -0.000729702 0)
(1.00371 -0.00349509 0)
(1.00361 -0.0042981 0)
(0.9994 -0.00447192 0)
(1.00263 -0.00501886 0)
(0.998685 -0.00655299 0)
(0.999153 -0.00456146 0)
(0.99736 -0.00879167 0)
(0.99548 -0.00578921 0)
(0.994036 -0.00859445 0)
(0.991045 -0.00596569 0)
(0.989206 -0.00713017 0)
(1.00171 -0.00131976 0)
(0.999775 -0.00108036 0)
(0.998935 -0.00207502 0)
(0.986188 -0.00612834 0)
(0.99381 0.014577 0)
(1.00756 0.0042547 0)
(1.00319 0.00637503 0)
(1.00574 0.0027445 0)
(1.00693 -0.000652664 0)
(1.00372 -0.00335051 0)
(1.00376 -0.0042957 0)
(0.999537 -0.00430497 0)
(1.00247 -0.00506632 0)
(0.998672 -0.0063483 0)
(0.998906 -0.00459939 0)
(0.997232 -0.00833868 0)
(0.995485 -0.00574571 0)
(0.993971 -0.00806228 0)
(0.991248 -0.00574779 0)
(0.989389 -0.00662844 0)
(1.00164 -0.00131402 0)
(0.999792 -0.00109164 0)
(0.998905 -0.00188996 0)
(0.986929 -0.00604415 0)
(0.99367 0.0142268 0)
(1.00685 0.00411124 0)
(1.00294 0.00635966 0)
(1.00581 0.00269014 0)
(1.00692 -0.000616665 0)
(1.00374 -0.0031841 0)
(1.00382 -0.00432975 0)
(0.999687 -0.00409611 0)
(1.0023 -0.00510105 0)
(0.99872 -0.00616017 0)
(0.998717 -0.00458805 0)
(0.997133 -0.00798005 0)
(0.995524 -0.00566335 0)
(0.993899 -0.00748724 0)
(0.991434 -0.00550552 0)
(0.989541 -0.00619301 0)
(1.00158 -0.00130563 0)
(0.99979 -0.00110808 0)
(0.998827 -0.00170404 0)
(0.987792 -0.00595609 0)
(0.993498 0.0138854 0)
(1.00602 0.00397854 0)
(1.00266 0.00631083 0)
(1.00577 0.00264071 0)
(1.00686 -0.000587086 0)
(1.00374 -0.00298222 0)
(1.00383 -0.00438055 0)
(0.999842 -0.00393019 0)
(1.00212 -0.00504357 0)
(0.998815 -0.00606744 0)
(0.998567 -0.0044739 0)
(0.997048 -0.00759844 0)
(0.995603 -0.00559091 0)
(0.99386 -0.00703319 0)
(0.991614 -0.00521294 0)
(0.989683 -0.00573097 0)
(1.00149 -0.00129635 0)
(0.999778 -0.00112442 0)
(0.998692 -0.00152602 0)
(0.988739 -0.00585842 0)
(0.99335 0.0135535 0)
(1.00522 0.00385418 0)
(1.00236 0.00622626 0)
(1.00562 0.00263184 0)
(1.00677 -0.000633683 0)
(1.00372 -0.00272861 0)
(1.00378 -0.00441628 0)
(0.99999 -0.00374415 0)
(1.00195 -0.00502544 0)
(0.998929 -0.00589678 0)
(0.998463 -0.00447047 0)
(0.996976 -0.00716216 0)
(0.995679 -0.00541942 0)
(0.993844 -0.00651712 0)
(0.991784 -0.00499868 0)
(0.989806 -0.00534114 0)
(1.00139 -0.00128471 0)
(0.999765 -0.00114396 0)
(0.998502 -0.00135303 0)
(0.989719 -0.00575016 0)
(0.993257 0.0132134 0)
(1.0045 0.00377571 0)
(1.0021 0.00604562 0)
(1.00536 0.0026925 0)
(1.00665 -0.000737835 0)
(1.00369 -0.00245702 0)
(1.0037 -0.00453687 0)
(1.00011 -0.00345918 0)
(1.00177 -0.00503793 0)
(0.999042 -0.00570615 0)
(0.998362 -0.00443977 0)
(0.99694 -0.0067414 0)
(0.995776 -0.00539728 0)
(0.993846 -0.00588631 0)
(0.991923 -0.00470492 0)
(0.98996 -0.00497875 0)
(1.00128 -0.00126502 0)
(0.999756 -0.0011756 0)
(0.998274 -0.0011766 0)
(0.990677 -0.00564986 0)
(0.993232 0.0129016 0)
(1.00394 0.00368275 0)
(1.00189 0.00589059 0)
(1.00504 0.00270723 0)
(1.00652 -0.000812499 0)
(1.00362 -0.00217095 0)
(1.0036 -0.0045856 0)
(1.00021 -0.00342587 0)
(1.00157 -0.00470639 0)
(0.999157 -0.00580034 0)
(0.998274 -0.00426315 0)
(0.996882 -0.00623607 0)
(0.995873 -0.00529197 0)
(0.993935 -0.00570261 0)
(0.992075 -0.00432502 0)
(0.99014 -0.00444418 0)
(1.00116 -0.00125439 0)
(0.999751 -0.0011843 0)
(0.998031 -0.00103601 0)
(0.991563 -0.00551065 0)
(0.99327 0.0125617 0)
(1.00354 0.00364948 0)
(1.00175 0.00563372 0)
(1.00469 0.00281978 0)
(1.00639 -0.000981182 0)
(1.00352 -0.00187727 0)
(1.00347 -0.00457355 0)
(1.00029 -0.00335317 0)
(1.00135 -0.00457565 0)
(0.99924 -0.00562517 0)
(0.998225 -0.00421502 0)
(0.996838 -0.00594798 0)
(0.995888 -0.00495512 0)
(0.994011 -0.00532224 0)
(0.992237 -0.00408067 0)
(0.990278 -0.0040847 0)
(1.00104 -0.00122969 0)
(0.999741 -0.0012175 0)
(0.997804 -0.000873004 0)
(0.992335 -0.00540208 0)
(0.993364 0.01225 0)
(1.0033 0.0036259 0)
(1.00169 0.00537895 0)
(1.00434 0.00290564 0)
(1.00628 -0.00107766 0)
(1.0034 -0.00172678 0)
(1.00336 -0.00444861 0)
(1.00034 -0.00339299 0)
(1.00115 -0.00424469 0)
(0.999324 -0.00572717 0)
(0.998117 -0.00395742 0)
(0.99683 -0.0057684 0)
(0.995974 -0.00469654 0)
(0.994126 -0.00500258 0)
(0.992374 -0.00358278 0)
(0.990495 -0.00361741 0)
(1.00092 -0.0011952 0)
(0.999724 -0.00126401 0)
(0.997615 -0.00070648 0)
(0.992974 -0.00529728 0)
(0.993494 0.0119469 0)
(1.00318 0.00358051 0)
(1.0017 0.00518123 0)
(1.00402 0.00296283 0)
(1.00619 -0.00117726 0)
(1.00327 -0.00144387 0)
(1.00324 -0.00444882 0)
(1.00041 -0.00345845 0)
(1.00091 -0.00379208 0)
(0.999388 -0.00577076 0)
(0.998083 -0.00388576 0)
(0.996791 -0.00521348 0)
(0.995976 -0.00451134 0)
(0.994273 -0.00485376 0)
(0.992548 -0.0031421 0)
(0.990598 -0.00304396 0)
(1.00082 -0.00118936 0)
(0.999697 -0.00125247 0)
(0.997479 -0.000616498 0)
(0.993479 -0.00509257 0)
(0.993648 0.0114927 0)
(1.00314 0.00370674 0)
(1.00178 0.00470155 0)
(1.00373 0.00323659 0)
(1.00613 -0.00152559 0)
(1.00314 -0.0010543 0)
(1.00313 -0.00451704 0)
(1.00047 -0.00323259 0)
(1.00071 -0.00401621 0)
(0.999419 -0.00506192 0)
(0.998041 -0.00419478 0)
(0.996782 -0.0045922 0)
(0.995963 -0.00425696 0)
(0.994436 -0.00407327 0)
(0.992715 -0.00335403 0)
(0.99076 -0.00298854 0)
(1.00073 -0.00114237 0)
(0.999664 -0.00131041 0)
(0.997398 -0.000453769 0)
(0.99387 -0.00500099 0)
(0.993807 0.0111858 0)
(1.00314 0.00369885 0)
(1.0019 0.00445012 0)
(1.0035 0.00327211 0)
(1.00607 -0.00152774 0)
(1.00304 -0.00109157 0)
(1.00302 -0.00407214 0)
(1.00052 -0.00356424 0)
(1.00054 -0.00350405 0)
(0.999457 -0.0052525 0)
(0.998007 -0.00378263 0)
(0.996845 -0.00452616 0)
(0.99601 -0.00378853 0)
(0.994541 -0.00391886 0)
(0.992823 -0.00284914 0)
(0.991034 -0.00249405 0)
(1.00066 -0.00109974 0)
(0.999616 -0.00135895 0)
(0.997372 -0.000301592 0)
(0.994175 -0.00487813 0)
(0.993953 0.010854 0)
(1.00316 0.00372207 0)
(1.00203 0.00423591 0)
(1.00333 0.00332183 0)
(1.00601 -0.00146336 0)
(1.00297 -0.00103759 0)
(1.00289 -0.00386413 0)
(1.00062 -0.0037159 0)
(1.00036 -0.0030064 0)
(0.999503 -0.00524531 0)
(0.998021 -0.00347653 0)
(0.996856 -0.00425869 0)
(0.995999 -0.00350216 0)
(0.994719 -0.00385264 0)
(0.993033 -0.00232017 0)
(0.991112 -0.00192519 0)
(1.00061 -0.00109279 0)
(0.99956 -0.00134281 0)
(0.997389 -0.000238161 0)
(0.994412 -0.00459469 0)
(0.994095 0.0102449 0)
(1.00314 0.00396359 0)
(1.00217 0.00364764 0)
(1.00319 0.00369765 0)
(1.00595 -0.00193186 0)
(1.0029 -0.000678134 0)
(1.00277 -0.00388815 0)
(1.00072 -0.00339324 0)
(1.00024 -0.00338435 0)
(0.999529 -0.0042928 0)
(0.99805 -0.00385364 0)
(0.996928 -0.00336136 0)
(0.996013 -0.00330504 0)
(0.99488 -0.00297118 0)
(0.993226 -0.00283891 0)
(0.991315 -0.00207389 0)
(1.00057 -0.00102719 0)
(0.999515 -0.0014182 0)
(0.997425 -0.000100633 0)
(0.994616 -0.00447842 0)
(0.994225 0.00989604 0)
(1.00309 0.00397381 0)
(1.0023 0.00341137 0)
(1.00308 0.00361026 0)
(1.00587 -0.00169353 0)
(1.00288 -0.000942446 0)
(1.00264 -0.00333269 0)
(1.0008 -0.00378621 0)
(1.00018 -0.00277124 0)
(0.999564 -0.00443506 0)
(0.998113 -0.00334856 0)
(0.997066 -0.00350545 0)
(0.996073 -0.00288672 0)
(0.994955 -0.00294737 0)
(0.993337 -0.00219822 0)
(0.991641 -0.00148127 0)
(1.00055 -0.000977196 0)
(0.99947 -0.0014708 0)
(0.997471 2.8697e-05 0)
(0.994813 -0.00431823 0)
(0.994347 0.00950877 0)
(1.00301 0.00405451 0)
(1.00239 0.00322509 0)
(1.00301 0.00356717 0)
(1.00575 -0.00142994 0)
(1.00288 -0.00112653 0)
(1.0025 -0.00288828 0)
(1.00095 -0.0039526 0)
(1.0001 -0.00236386 0)
(0.999604 -0.00442663 0)
(0.998175 -0.00291327 0)
(0.997137 -0.00353831 0)
(0.996122 -0.00260706 0)
(0.995175 -0.00282803 0)
(0.993661 -0.00150176 0)
(0.991743 -0.000868691 0)
(1.00053 -0.000968913 0)
(0.999433 -0.00145011 0)
(0.997524 6.86092e-05 0)
(0.994989 -0.00391534 0)
(0.994493 0.00874942 0)
(1.00288 0.00432541 0)
(1.00248 0.00262224 0)
(1.00292 0.003964 0)
(1.00563 -0.0018803 0)
(1.00288 -0.000745981 0)
(1.00239 -0.00314429 0)
(1.00102 -0.00343504 0)
(1.00009 -0.00282165 0)
(0.999648 -0.00318882 0)
(0.998262 -0.00335125 0)
(0.99726 -0.00251306 0)
(0.996228 -0.00254075 0)
(0.995338 -0.00181962 0)
(0.993866 -0.00236108 0)
(0.99195 -0.00136874 0)
(1.0005 -0.000893601 0)
(0.999427 -0.00152966 0)
(0.997563 0.000156 0)
(0.995172 -0.00374196 0)
(0.994638 0.00838011 0)
(1.00273 0.00432767 0)
(1.00254 0.00244028 0)
(1.00283 0.00371535 0)
(1.0055 -0.00149764 0)
(1.00288 -0.00106224 0)
(1.00226 -0.00263249 0)
(1.00114 -0.00367797 0)
(1.00017 -0.00243549 0)
(0.999665 -0.00331933 0)
(0.998358 -0.00273827 0)
(0.997455 -0.0025987 0)
(0.996391 -0.0020866 0)
(0.995387 -0.00178139 0)
(0.993969 -0.00140787 0)
(0.992386 -0.000555193 0)
(1.00049 -0.000829507 0)
(0.999429 -0.00158943 0)
(0.997594 0.000232793 0)
(0.995364 -0.00350419 0)
(0.994802 0.00795543 0)
(1.00257 0.00438612 0)
(1.00256 0.00232976 0)
(1.00276 0.00352342 0)
(1.00532 -0.00109242 0)
(1.00292 -0.00126787 0)
(1.00215 -0.00215672 0)
(1.00122 -0.00372595 0)
(1.00017 -0.0021711 0)
(0.999767 -0.00336094 0)
(0.998477 -0.00226519 0)
(0.997554 -0.0026924 0)
(0.996517 -0.00176789 0)
(0.995681 -0.00174745 0)
(0.994367 -0.000540146 0)
(0.992414 0.000270131 0)
(1.00047 -0.000846678 0)
(0.999432 -0.00152354 0)
(0.997637 0.000200779 0)
(0.995536 -0.0029585 0)
(0.994993 0.00710028 0)
(1.0024 0.0046485 0)
(1.00259 0.00177257 0)
(1.00266 0.00392438 0)
(1.00516 -0.00154055 0)
(1.00291 -0.000748617 0)
(1.00206 -0.0024811 0)
(1.0013 -0.00299475 0)
(1.00028 -0.00273385 0)
(0.999815 -0.00210393 0)
(0.998576 -0.00272411 0)
(0.997722 -0.00163428 0)
(0.996703 -0.00171588 0)
(0.995853 -0.00071219 0)
(0.994649 -0.00183046 0)
(0.992705 -0.000730849 0)
(1.00043 -0.000725366 0)
(0.999471 -0.00165358 0)
(0.99766 0.000261938 0)
(0.99572 -0.00278963 0)
(0.995192 0.00680755 0)
(1.00223 0.00452709 0)
(1.0026 0.0017824 0)
(1.00255 0.00346375 0)
(1.005 -0.00103023 0)
(1.00293 -0.00106406 0)
(1.00197 -0.00178476 0)
(1.00134 -0.00318102 0)
(1.00043 -0.00218145 0)
(0.99991 -0.00263917 0)
(0.998729 -0.00233065 0)
(0.997955 -0.00194645 0)
(0.996956 -0.0015128 0)
(0.995836 -0.000651587 0)
(0.994625 -0.00025861 0)
(0.993177 0.000563073 0)
(1.0004 -0.000708151 0)
(0.999514 -0.00163717 0)
(0.997679 0.000247518 0)
(0.995925 -0.00242624 0)
(0.995396 0.00632412 0)
(1.00208 0.00452399 0)
(1.00256 0.00177661 0)
(1.00249 0.00312374 0)
(1.0048 -0.000445691 0)
(1.00295 -0.00139664 0)
(1.00188 -0.00124145 0)
(1.00142 -0.00313339 0)
(1.00048 -0.0018941 0)
(0.999966 -0.0027409 0)
(0.998877 -0.00219837 0)
(0.998094 -0.00237478 0)
(0.99723 -0.00119152 0)
(0.996432 -0.000412257 0)
(0.99527 0.000765989 0)
(0.993148 0.00145905 0)
(1.00038 -0.000692023 0)
(0.999539 -0.00160734 0)
(0.997724 0.000199551 0)
(0.996092 -0.00193389 0)
(0.995622 0.00561229 0)
(1.00193 0.00464483 0)
(1.00255 0.00146406 0)
(1.00239 0.00329118 0)
(1.00462 -0.000623582 0)
(1.00296 -0.00104122 0)
(1.00185 -0.00124704 0)
(1.00141 -0.00256421 0)
(1.00063 -0.00220732 0)
(1.00004 -0.00204157 0)
(0.998965 -0.00236589 0)
(0.998399 -0.00152372 0)
(0.997649 -0.00110997 0)
(0.996597 6.20386e-06 0)
(0.995393 -9.06746e-05 0)
(0.993372 0.00073402 0)
(1.00035 -0.000561564 0)
(0.999576 -0.00173017 0)
(0.997769 0.000221129 0)
(0.996278 -0.00173747 0)
(0.995848 0.00535303 0)
(1.00177 0.00444907 0)
(1.00253 0.00146874 0)
(1.00231 0.00304125 0)
(1.00445 -0.000361946 0)
(1.00299 -0.00100417 0)
(1.0018 -0.00100527 0)
(1.00144 -0.00232473 0)
(1.00073 -0.0018986 0)
(1.0001 -0.00206263 0)
(0.999197 -0.00179671 0)
(0.998605 -0.00121482 0)
(0.997879 -0.00111994 0)
(0.996958 -6.56136e-06 0)
(0.99578 0.000258374 0)
(0.993634 0.000946986 0)
(1.00032 -0.00061858 0)
(0.999623 -0.00161074 0)
(0.997812 0.000142373 0)
(0.996464 -0.00132302 0)
(0.996074 0.0048649 0)
(1.00163 0.00442124 0)
(1.0025 0.00141783 0)
(1.00224 0.0029141 0)
(1.00428 -8.97897e-05 0)
(1.00301 -0.00096969 0)
(1.00178 -0.000822151 0)
(1.00146 -0.00193906 0)
(1.00085 -0.00192782 0)
(1.00026 -0.00166548 0)
(0.999367 -0.00145403 0)
(0.998782 -0.00112824 0)
(0.998245 -0.000796915 0)
(0.997271 0.000237592 0)
(0.995986 0.000170289 0)
(0.99385 0.000821155 0)
(1.00029 -0.000491584 0)
(0.999671 -0.00169598 0)
(0.997865 0.000123762 0)
(0.996645 -0.00105781 0)
(0.996299 0.00456699 0)
(1.0015 0.00426278 0)
(1.00246 0.00138333 0)
(1.00218 0.00276578 0)
(1.00411 0.000137528 0)
(1.00303 -0.000897557 0)
(1.00178 -0.000560585 0)
(1.00145 -0.00174185 0)
(1.00098 -0.00169837 0)
(1.00041 -0.00148298 0)
(0.99954 -0.00127509 0)
(0.999012 -0.000769466 0)
(0.998537 -0.000610211 0)
(0.997506 8.60904e-05 0)
(0.996259 0.000316876 0)
(0.994153 0.000955607 0)
(1.00026 -0.000504062 0)
(0.999717 -0.00164633 0)
(0.997929 7.94759e-05 0)
(0.996831 -0.000813601 0)
(0.99652 0.00429342 0)
(1.00137 0.00410035 0)
(1.00243 0.00141651 0)
(1.00213 0.00264159 0)
(1.00394 0.000368062 0)
(1.00305 -0.000838512 0)
(1.00179 -0.000465753 0)
(1.00146 -0.00146379 0)
(1.0011 -0.00146334 0)
(1.00058 -0.0012636 0)
(0.999775 -0.000976661 0)
(0.999202 -0.000548731 0)
(0.99876 -0.000521103 0)
(0.997843 0.000250953 0)
(0.996593 0.000470403 0)
(0.994381 0.0009558 0)
(1.00023 -0.000437371 0)
(0.999768 -0.00164508 0)
(0.997997 1.89776e-05 0)
(0.997011 -0.000592687 0)
(0.99674 0.00410378 0)
(1.00126 0.00394241 0)
(1.00239 0.00142798 0)
(1.00209 0.0024378 0)
(1.00377 0.000569154 0)
(1.00307 -0.000724894 0)
(1.00183 -0.000252316 0)
(1.00148 -0.00112925 0)
(1.00124 -0.00120195 0)
(1.00076 -0.0011609 0)
(0.999959 -0.000815734 0)
(0.999384 -0.000427981 0)
(0.99906 -0.00032012 0)
(0.998119 0.000319555 0)
(0.996812 0.000533132 0)
(0.994648 0.00100061 0)
(1.0002 -0.000406979 0)
(0.999811 -0.00163392 0)
(0.998081 -8.56381e-06 0)
(0.997202 -0.000418743 0)
(0.996952 0.00389572 0)
(1.00114 0.00378577 0)
(1.00236 0.0014581 0)
(1.00207 0.00231497 0)
(1.00363 0.000801485 0)
(1.0031 -0.000629348 0)
(1.00188 -0.000145096 0)
(1.00149 -0.000929882 0)
(1.00131 -0.00100919 0)
(1.00092 -0.00104206 0)
(1.00021 -0.000604484 0)
(0.999603 -0.000131905 0)
(0.999277 -3.85121e-05 0)
(0.99843 0.000441443 0)
(0.997161 0.000689916 0)
(0.9949 0.00110228 0)
(1.00018 -0.000379821 0)
(0.999863 -0.00159161 0)
(0.998168 -7.04082e-05 0)
(0.997378 -0.000263214 0)
(0.997165 0.00373324 0)
(1.00105 0.0036669 0)
(1.00233 0.00148535 0)
(1.00206 0.00218064 0)
(1.00348 0.000956137 0)
(1.00309 -0.000525465 0)
(1.00194 -4.09868e-05 0)
(1.00152 -0.000653822 0)
(1.00143 -0.000733436 0)
(1.00112 -0.000801255 0)
(1.00046 -0.000411385 0)
(0.99982 5.19966e-05 0)
(0.999532 8.81832e-05 0)
(0.998677 0.000532432 0)
(0.997381 0.0007209 0)
(0.995152 0.00115271 0)
(1.00015 -0.000330859 0)
(0.999903 -0.00157364 0)
(0.998271 -0.000128632 0)
(0.997573 -0.00012208 0)
(0.997373 0.00360044 0)
(1.00094 0.00354243 0)
(1.00229 0.00150252 0)
(1.00207 0.00204473 0)
(1.00336 0.0011209 0)
(1.00311 -0.000343271 0)
(1.00202 0.000106634 0)
(1.00157 -0.000422394 0)
(1.0015 -0.00047498 0)
(1.00126 -0.000646024 0)
(1.00071 -0.000337974 0)
(1.00003 0.000175006 0)
(0.999727 0.000263113 0)
(0.998967 0.000672931 0)
(0.997738 0.00086327 0)
(0.995443 0.00128139 0)
(1.00013 -0.000328172 0)
(0.999953 -0.00150375 0)
(0.998376 -0.000171359 0)
(0.997752 -2.16705e-05 0)
(0.997579 0.00339455 0)
(1.00086 0.00347539 0)
(1.00225 0.0015675 0)
(1.00209 0.00195765 0)
(1.00324 0.00125086 0)
(1.0031 -0.00021836 0)
(1.00209 0.000168517 0)
(1.00162 -0.000249084 0)
(1.00161 -0.000249147 0)
(1.00142 -0.000437386 0)
(1.00097 -0.000176811 0)
(1.00029 0.000380711 0)
(1 0.000489284 0)
(0.999217 0.000866942 0)
(0.997965 0.000957469 0)
(0.995704 0.00133559 0)
(1.0001 -0.000268456 0)
(0.999989 -0.00146623 0)
(0.998492 -0.000265828 0)
(0.997947 8.23366e-05 0)
(0.997788 0.00325929 0)
(1.00078 0.00338391 0)
(1.00221 0.00162053 0)
(1.00211 0.00187749 0)
(1.00315 0.00136126 0)
(1.00311 -5.23736e-05 0)
(1.00219 0.000306715 0)
(1.0017 -4.8204e-05 0)
(1.00168 -3.39418e-06 0)
(1.00155 -0.000201194 0)
(1.00124 -3.51095e-05 0)
(1.00053 0.000528312 0)
(1.0002 0.00063734 0)
(0.99946 0.000930536 0)
(0.998273 0.00106095 0)
(0.996 0.00141598 0)
(1.00008 -0.000294698 0)
(1.00003 -0.00133449 0)
(0.998613 -0.00033844 0)
(0.998131 0.000178076 0)
(0.997989 0.00301052 0)
(1.00072 0.00342714 0)
(1.00218 0.00165854 0)
(1.00214 0.00177891 0)
(1.00306 0.00145912 0)
(1.00309 9.32558e-05 0)
(1.00227 0.000383853 0)
(1.00178 8.91251e-05 0)
(1.0018 0.000163123 0)
(1.00168 5.70526e-05 0)
(1.00148 9.86277e-05 0)
(1.00082 0.000637769 0)
(1.00046 0.00080606 0)
(0.999706 0.00111781 0)
(0.99852 0.00121766 0)
(0.996274 0.00149181 0)
(1.00006 -0.000233471 0)
(1.00006 -0.00129278 0)
(0.998732 -0.000402616 0)
(0.998318 0.000172313 0)
(0.998212 0.00291949 0)
(1.00066 0.00323958 0)
(1.00211 0.00181326 0)
(1.00217 0.00177719 0)
(1.00299 0.00155025 0)
(1.00309 0.000255831 0)
(1.00237 0.000520679 0)
(1.00188 0.000264491 0)
(1.00191 0.000367674 0)
(1.0018 0.000279928 0)
(1.00172 0.000259205 0)
(1.00109 0.00075269 0)
(1.00071 0.000957019 0)
(0.999961 0.00123262 0)
(0.998788 0.00135035 0)
(0.996558 0.00156268 0)
(1.00003 -0.000243066 0)
(1.00009 -0.00117737 0)
(0.998857 -0.000468304 0)
(0.998515 0.00021131 0)
(0.998408 0.00272667 0)
(1.00063 0.00306674 0)
(1.00209 0.00204094 0)
(1.0022 0.00183928 0)
(1.00292 0.00166231 0)
(1.00307 0.000417938 0)
(1.00246 0.000619127 0)
(1.00197 0.000406353 0)
(1.00204 0.000503954 0)
(1.00192 0.00052337 0)
(1.00193 0.0004391 0)
(1.00138 0.000884608 0)
(1.00097 0.00111964 0)
(1.0002 0.00138326 0)
(0.999012 0.0015011 0)
(0.996816 0.00165034 0)
(1.00001 -0.000229024 0)
(1.00011 -0.0010429 0)
(0.998976 -0.000563701 0)
(0.998702 0.000235111 0)
(0.998623 0.00250198 0)
(1.00062 0.00315247 0)
(1.00204 0.00210723 0)
(1.00222 0.00175728 0)
(1.00287 0.00169601 0)
(1.00307 0.00054163 0)