/*--------------------------------*- C++ -*----------------------------------*\
| =========                 |                                                 |
| \\      /  F ield         | OpenFOAM: The Open Source CFD Toolbox           |
|  \\    /   O peration     | Version:  v2012                                 |
|   \\  /    A nd           | Website:  www.openfoam.com                      |
|    \\/     M anipulation  |                                                 |
\*---------------------------------------------------------------------------*/
FoamFile
{
    version     2.0;
    format      ascii;
    class       volScalarField;
    location    "2.3";
    object      p;
}
// * * * * * * * * * * * * * * * * * * * * * * * * * * * * * * * * * * * * * //

dimensions      [0 2 -2 0 0 0 0];


internalField   nonuniform List<scalar> 
7000
(
1.90669e-10
0.0110026
0.0186891
0.0113504
0.0106743
0.019325
0.0157609
0.017375
0.0168055
0.0193382
0.0200268
0.0217905
0.0229227
0.0246491
0.0248647
0.0270282
0.0278042
0.0310839
0.0328085
0.0372572
8.60395e-06
0.0110019
0.0186785
0.0113641
0.0106827
0.0192772
0.0157771
0.0173659
0.0168171
0.0193488
0.0200135
0.0217921
0.0229156
0.0246456
0.0248685
0.0270194
0.0278203
0.0310531
0.0328264
0.0370117
1.69064e-05
0.0110001
0.0186725
0.0113836
0.0106878
0.0192117
0.0158002
0.0173566
0.0168374
0.019355
0.0199994
0.0217958
0.0229069
0.0246431
0.024874
0.0270064
0.0278413
0.0310097
0.0328353
0.0366603
2.50975e-05
0.0110123
0.0186695
0.0114106
0.0106938
0.0191445
0.0158222
0.0173531
0.0168645
0.0193538
0.0199884
0.0217999
0.0228954
0.02464
0.0248767
0.0269895
0.027863
0.0309515
0.0328269
0.0362981
3.65833e-05
0.0110404
0.0186625
0.0114447
0.0107057
0.0190777
0.0158439
0.0173565
0.0168996
0.0193438
0.0199776
0.021801
0.0228799
0.0246328
0.0248786
0.0269672
0.0278859
0.0308813
0.0328045
0.0359542
5.44564e-05
0.0110779
0.018646
0.0114849
0.0107258
0.0190128
0.0158664
0.0173656
0.0169421
0.0193238
0.0199656
0.0217984
0.0228625
0.0246216
0.0248833
0.0269389
0.0279117
0.0308011
0.0327691
0.0356321
8.10496e-05
0.0111183
0.0186168
0.0115302
0.0107544
0.0189509
0.0158895
0.0173783
0.0169898
0.0192958
0.0199535
0.0217934
0.0228464
0.0246067
0.0248922
0.0269045
0.0279394
0.0307123
0.0327199
0.0353273
0.000118126
0.0111578
0.0185741
0.0115789
0.0107904
0.0188922
0.0159129
0.0173922
0.0170408
0.0192643
0.0199431
0.0217869
0.0228327
0.024588
0.0249048
0.0268638
0.0279671
0.0306165
0.0326554
0.0350357
0.000166888
0.0111948
0.0185191
0.0116298
0.0108326
0.0188355
0.015936
0.0174054
0.0170945
0.0192329
0.0199354
0.0217788
0.0228211
0.0245647
0.0249194
0.0268168
0.0279924
0.0305149
0.0325744
0.034755
0.000227842
0.0112288
0.018454
0.0116813
0.0108806
0.0187801
0.0159582
0.0174161
0.0171508
0.0192037
0.0199311
0.0217685
0.0228109
0.0245363
0.0249345
0.0267636
0.0280132
0.0304091
0.0324769
0.0344836
0.000300706
0.01126
0.0183811
0.0117324
0.0109346
0.0187255
0.0159791
0.0174236
0.0172096
0.0191776
0.0199305
0.0217554
0.0228016
0.0245023
0.0249486
0.0267048
0.0280273
0.0303001
0.0323629
0.0342196
0.000384473
0.0112896
0.0183026
0.0117822
0.0109956
0.0186714
0.0159986
0.0174266
0.0172707
0.0191544
0.0199338
0.0217394
0.0227929
0.0244629
0.0249609
0.0266413
0.0280333
0.0301887
0.0322328
0.0339601
0.000477633
0.0113184
0.0182198
0.0118304
0.0110639
0.018618
0.016017
0.0174251
0.0173337
0.0191337
0.019941
0.0217204
0.0227848
0.0244185
0.0249705
0.0265744
0.0280299
0.0300752
0.0320871
0.0337027
0.000578478
0.0113473
0.0181339
0.0118774
0.0111392
0.0185651
0.016035
0.0174192
0.0173985
0.0191148
0.0199513
0.0216985
0.0227773
0.0243698
0.0249767
0.0265054
0.028016
0.0299597
0.0319272
0.0334451
0.000685406
0.0113768
0.0180458
0.0119234
0.0112208
0.0185127
0.0160535
0.0174092
0.0174652
0.0190967
0.019964
0.0216738
0.0227705
0.0243179
0.0249781
0.0264353
0.0279909
0.0298418
0.0317541
0.0331858
0.000797123
0.0114072
0.0179559
0.0119688
0.0113077
0.0184606
0.0160732
0.0173954
0.0175335
0.0190788
0.0199782
0.0216463
0.0227637
0.024264
0.0249736
0.0263648
0.0279543
0.0297212
0.0315689
0.0329236
0.000912713
0.0114385
0.0178649
0.0120139
0.0113992
0.0184088
0.0160948
0.017378
0.0176037
0.0190604
0.0199933
0.0216165
0.0227562
0.0242097
0.0249624
0.026294
0.027906
0.0295955
0.0313727
0.0326579
0.00103161
0.011471
0.0177729
0.0120586
0.0114944
0.0183571
0.0161188
0.0173573
0.0176756
0.0190413
0.0200086
0.0215852
0.0227467
0.0241562
0.0249435
0.0262226
0.0278464
0.0294645
0.0311665
0.0323884
0.00115351
0.0115045
0.0176803
0.0121031
0.0115927
0.0183054
0.0161456
0.0173334
0.017749
0.0190216
0.0200231
0.0215532
0.0227341
0.0241043
0.0249168
0.0261497
0.0277763
0.0293277
0.0309507
0.032115
0.00127833
0.011539
0.0175872
0.0121473
0.0116938
0.0182536
0.0161755
0.0173064
0.0178236
0.0190013
0.020036
0.0215218
0.0227172
0.0240543
0.0248822
0.0260742
0.0276965
0.0291852
0.030726
0.031837
0.0014061
0.0115744
0.017494
0.012191
0.0117973
0.0182014
0.0162087
0.0172765
0.0178991
0.0189813
0.0200461
0.0214922
0.0226953
0.0240061
0.0248403
0.0259945
0.0276074
0.0290369
0.0304934
0.0315547
0.00153695
0.0116105
0.0174008
0.0122341
0.0119026
0.0181487
0.0162456
0.0172439
0.0179748
0.0189624
0.0200522
0.0214653
0.022668
0.0239591
0.0247916
0.0259092
0.0275096
0.0288824
0.0302531
0.0312689
0.00167105
0.0116474
0.0173077
0.0122766
0.0120096
0.0180953
0.0162861
0.0172088
0.0180499
0.0189459
0.020053
0.0214416
0.022635
0.0239122
0.0247374
0.0258169
0.0274035
0.0287221
0.0300051
0.0309799
0.00180856
0.0116848
0.0172152
0.0123183
0.0121178
0.0180411
0.0163303
0.0171715
0.0181236
0.0189331
0.0200473
0.0214214
0.0225968
0.023864
0.0246792
0.0257164
0.027288
0.0285578
0.029751
0.0306871
0.00194963
0.0117226
0.0171234
0.0123593
0.0122269
0.0179859
0.0163779
0.0171324
0.0181946
0.0189254
0.0200346
0.0214048
0.0225538
0.0238121
0.0246192
0.0256076
0.0271609
0.0283908
0.0294937
0.0303899
0.0020944
0.0117607
0.0170326
0.0123993
0.0123367
0.0179297
0.0164288
0.0170904
0.0182616
0.0189238
0.0200144
0.0213913
0.022507
0.023754
0.0245578
0.0254918
0.0270202
0.0282213
0.0292367
0.0300895
0.00224301
0.011799
0.0169432
0.0124384
0.0124469
0.0178728
0.0164825
0.0170507
0.0183235
0.018929
0.0199861
0.0213801
0.0224584
0.0236876
0.0244946
0.0253708
0.0268651
0.0280472
0.0289826
0.0297885
0.00239557
0.0118372
0.0168554
0.0124766
0.0125571
0.0178153
0.0165387
0.0170119
0.0183791
0.0189418
0.0199498
0.0213697
0.0224092
0.0236117
0.0244278
0.0252473
0.0266978
0.0278654
0.0287309
0.0294885
0.00255223
0.0118752
0.0167696
0.0125139
0.012667
0.0177573
0.0165967
0.0169754
0.0184272
0.0189625
0.0199064
0.021359
0.02236
0.0235262
0.0243537
0.0251224
0.0265229
0.0276759
0.028481
0.0291879
0.00271312
0.0119128
0.0166859
0.0125503
0.0127762
0.0176997
0.0166555
0.0169423
0.0184672
0.0189908
0.0198561
0.0213473
0.0223116
0.0234314
0.024268
0.024993
0.0263372
0.0274851
0.028247
0.028885
0.00287837
0.0119498
0.0166047
0.0125862
0.0128841
0.0176431
0.0167147
0.0169131
0.0184984
0.0190273
0.0197998
0.0213312
0.0222673
0.0233278
0.0241712
0.0248542
0.0261383
0.0272934
0.0280354
0.0285843
0.00304808
0.011986
0.0165262
0.0126217
0.0129905
0.0175877
0.0167736
0.0168894
0.0185193
0.0190703
0.0197428
0.0213057
0.0222289
0.0232166
0.0240662
0.0247166
0.0259259
0.0270884
0.027793
0.0283011
0.00322236
0.0120213
0.0164505
0.0126572
0.0130945
0.0175348
0.0168314
0.0168718
0.018532
0.0191153
0.0196896
0.0212693
0.0221971
0.0230995
0.0239524
0.0245835
0.0256941
0.0268049
0.0275468
0.0280496
0.00340148
0.0120554
0.016378
0.0126926
0.0131962
0.0174846
0.0168876
0.0168572
0.0185392
0.0191623
0.0196395
0.0212201
0.022173
0.022978
0.0238281
0.0244488
0.0254561
0.0265089
0.027229
0.0278174
0.00358534
0.0120881
0.0163085
0.0127292
0.0132942
0.0174376
0.0169425
0.0168481
0.0185345
0.0192142
0.0195932
0.0211609
0.0221454
0.0228592
0.0236757
0.024278
0.025209
0.0262327
0.0269811
0.0275852
0.00377389
0.0121195
0.0162419
0.0127672
0.0133876
0.0173976
0.0169945
0.0168526
0.0185168
0.0192663
0.0195536
0.0210954
0.0221089
0.0227355
0.0234936
0.0240894
0.0249622
0.0259701
0.0268073
0.0273504
0.00396771
0.0121491
0.0161788
0.0128067
0.0134773
0.0173582
0.0170442
0.0168548
0.0185039
0.0193137
0.0195241
0.0210189
0.0220677
0.0226011
0.0233098
0.0239012
0.0247478
0.0257013
0.0264445
0.0271132
0.00416645
0.0121769
0.0161185
0.0128495
0.0135614
0.0173226
0.0170928
0.0168502
0.0184815
0.0193621
0.0194994
0.0209316
0.0220197
0.0224621
0.0230943
0.0236978
0.0245227
0.0254449
0.0261898
0.0268761
0.00436982
0.0122031
0.0160603
0.0128962
0.0136389
0.0173004
0.0171395
0.0168757
0.018437
0.0194087
0.0194808
0.0208347
0.0219617
0.0223221
0.0228459
0.0234781
0.0242839
0.0252026
0.0260588
0.0266398
0.0045789
0.0122271
0.0160061
0.0129456
0.0137123
0.0172707
0.017188
0.0168794
0.0184159
0.0194464
0.0194692
0.0207269
0.0218908
0.0221896
0.0226348
0.0232541
0.0240658
0.0249286
0.025654
0.0264
0.00479273
0.0122494
0.0159537
0.0130005
0.0137791
0.0172448
0.0172366
0.0168935
0.0183859
0.0194815
0.0194569
0.0206113
0.0218022
0.0220746
0.0224058
0.0229851
0.0238177
0.0246791
0.025404
0.0261642
0.00501112
0.0122705
0.0159021
0.0130615
0.0138388
0.0172374
0.0172844
0.0169258
0.0183223
0.0195173
0.0194479
0.0204854
0.0216961
0.0219766
0.0221586
0.0226724
0.0235315
0.0244541
0.0253315
0.0259389
0.00523547
0.0122893
0.0158541
0.0131264
0.0138958
0.017208
0.0173403
0.0169331
0.018285
0.0195384
0.0194507
0.0203455
0.0215799
0.0218791
0.0219805
0.0224441
0.0232352
0.0240948
0.0248729
0.0257256
0.00546394
0.0123076
0.015806
0.0131984
0.0139475
0.0171848
0.0173993
0.0169487
0.0182447
0.0195408
0.0194634
0.0202031
0.0214441
0.0217861
0.0218198
0.0221819
0.0228966
0.0236869
0.0245196
0.0255482
0.00569734
0.0123253
0.0157586
0.0132764
0.0139949
0.0171728
0.0174578
0.0169827
0.0181711
0.0195349
0.0194832
0.0200656
0.0212821
0.0216962
0.0216599
0.0219035
0.0225405
0.0233225
0.0242589
0.0253713
0.00593624
0.0123417
0.0157123
0.013359
0.0140418
0.0171381
0.0175203
0.0170143
0.0180935
0.0195189
0.0195057
0.0199344
0.0211035
0.0215892
0.0215062
0.0216257
0.0221976
0.0230078
0.0239951
0.0251789
0.00617907
0.012359
0.0156653
0.0134472
0.0140877
0.0171071
0.0175838
0.017052
0.0180142
0.0194836
0.0195286
0.0198202
0.0209094
0.021455
0.0213648
0.0213647
0.0218672
0.0226879
0.0237327
0.0249838
0.00642669
0.012377
0.0156184
0.0135386
0.0141349
0.0170688
0.0176437
0.0171012
0.0179286
0.0194233
0.0195579
0.0197231
0.0206973
0.0212934
0.0212348
0.0211308
0.0215492
0.0223666
0.0234517
0.0247917
0.00667868
0.0123957
0.0155715
0.0136332
0.0141844
0.0170243
0.0177021
0.0171584
0.0178344
0.0193445
0.0195903
0.0196366
0.0204766
0.0211096
0.0211078
0.0209234
0.0212384
0.0220328
0.0231686
0.024603
0.00693458
0.012416
0.0155255
0.0137292
0.0142353
0.0169792
0.0177555
0.0172193
0.0177451
0.0192498
0.0196136
0.0195642
0.0202611
0.0209036
0.0209675
0.0207371
0.0209456
0.0217016
0.02288
0.0244107
0.00719452
0.0124386
0.0154793
0.0138251
0.0142901
0.0169318
0.0177997
0.0172859
0.0176626
0.0191345
0.019622
0.019512
0.0200572
0.0206725
0.0208035
0.0205739
0.0206861
0.0213867
0.022581
0.0242019
0.00745799
0.0124634
0.0154336
0.0139212
0.0143476
0.0168819
0.0178353
0.0173578
0.0175852
0.0190003
0.019617
0.0194788
0.0198623
0.0204201
0.0206192
0.0204327
0.0204612
0.0210823
0.0222738
0.0239746
0.00772482
0.0124913
0.0153645
0.014016
0.0144067
0.016832
0.0178626
0.0174313
0.0175161
0.0188525
0.0195952
0.0194569
0.0196784
0.0201607
0.0204158
0.0202943
0.0202614
0.0207975
0.0219621
0.0237397
0.00799484
0.0125224
0.015321
0.0141094
0.0144674
0.016783
0.01788
0.017504
0.017459
0.0186949
0.0195503
0.0194419
0.019513
0.0199042
0.0201889
0.0201413
0.0200834
0.0205405
0.0216672
0.0235078
0.00826759
0.0125575
0.0152796
0.0142008
0.0145283
0.0167345
0.0178877
0.0175753
0.0174161
0.018531
0.0194788
0.0194319
0.0193694
0.0196524
0.0199393
0.0199689
0.0199228
0.0203164
0.0214009
0.0232841
0.00854288
0.012597
0.0152405
0.0142902
0.0145889
0.0166866
0.0178865
0.0176441
0.0173868
0.0183641
0.0193798
0.0194213
0.0192466
0.0194075
0.0196753
0.0197776
0.01977
0.0201244
0.0211707
0.0230731
0.00882021
0.012641
0.015204
0.0143778
0.0146484
0.0166385
0.0178768
0.0177088
0.0173704
0.0181992
0.019255
0.0194034
0.0191441
0.0191748
0.0194051
0.0195674
0.0196173
0.0199618
0.0209772
0.0228769
0.00909919
0.0126904
0.0151704
0.0144634
0.0147062
0.016589
0.0178581
0.0177686
0.0173677
0.0180427
0.0191072
0.0193703
0.0190607
0.0189594
0.0191334
0.019339
0.0194588
0.019819
0.0208122
0.022698
0.00937941
0.0127454
0.0151401
0.0145472
0.0147621
0.0165372
0.0178297
0.017823
0.0173774
0.0178978
0.0189388
0.0193157
0.0189948
0.0187652
0.018864
0.0190961
0.0192915
0.0196862
0.0206711
0.022542
0.00966023
0.0128066
0.0151135
0.0146296
0.0148154
0.0164816
0.017792
0.0178719
0.0173972
0.0177669
0.0187557
0.0192362
0.0189407
0.0185945
0.0186031
0.0188441
0.0191127
0.0195571
0.0205493
0.0224068
0.00994127
0.0128738
0.0150908
0.0147109
0.0148657
0.0164217
0.0177464
0.0179151
0.0174252
0.0176519
0.0185645
0.0191279
0.0188892
0.0184514
0.0183591
0.0185852
0.0189178
0.0194247
0.0204395
0.0222889
0.0102222
0.0129466
0.0150725
0.0147906
0.014914
0.0163601
0.0176928
0.0179506
0.0174595
0.0175534
0.0183707
0.0189907
0.0188332
0.0183368
0.0181357
0.018322
0.0187071
0.0192837
0.0203365
0.0221864
0.0105027
0.013025
0.0150571
0.0148686
0.0149635
0.0162986
0.0176305
0.0179766
0.0174977
0.01747
0.01818
0.0188283
0.0187629
0.0182429
0.0179382
0.0180657
0.0184832
0.0191288
0.0202321
0.0220911
0.0107821
0.0131087
0.0150442
0.0149453
0.0150159
0.0162381
0.0175588
0.0179913
0.0175376
0.0173999
0.0179971
0.0186458
0.0186699
0.0181617
0.0177722
0.0178254
0.0182485
0.0189557
0.0201157
0.0219959
0.0110598
0.0131978
0.0150342
0.0150205
0.0150716
0.0161798
0.0174778
0.0179925
0.0175769
0.0173419
0.0178242
0.0184494
0.0185528
0.0180857
0.0176346
0.0176062
0.0180111
0.0187653
0.0199824
0.0218971
0.0113355
0.0132921
0.0150273
0.0150936
0.0151304
0.0161253
0.0173883
0.0179779
0.0176138
0.0172954
0.0176632
0.018247
0.0184134
0.0180054
0.0175183
0.0174119
0.0177801
0.0185612
0.0198297
0.0217906
0.0116084
0.0133917
0.0150238
0.0151642
0.0151924
0.0160757
0.0172915
0.0179465
0.0176464
0.0172603
0.0175164
0.0180447
0.018253
0.017914
0.0174166
0.0172419
0.0175603
0.0183475
0.0196612
0.0216766
0.011878
0.0134966
0.0150241
0.0152314
0.0152569
0.0160323
0.0171894
0.0178979
0.0176724
0.0172359
0.0173836
0.0178451
0.0180755
0.0178079
0.0173217
0.0170935
0.0173554
0.018134
0.0194853
0.021554
0.0121438
0.0136067
0.0150284
0.0152945
0.0153235
0.0159963
0.0170837
0.0178318
0.0176888
0.0172201
0.0172635
0.0176524
0.0178863
0.0176842
0.0172281
0.0169638
0.0171695
0.0179283
0.0193023
0.0214194
0.0124053
0.0137218
0.015037
0.0153531
0.0153909
0.0159684
0.0169764
0.0177488
0.0176922
0.0172104
0.0171563
0.0174697
0.0176906
0.0175439
0.0171317
0.0168479
0.0170022
0.0177304
0.0191142
0.0212783
0.0126619
0.0138418
0.0150505
0.015407
0.015458
0.0159485
0.0168689
0.0176508
0.0176797
0.0172041
0.0170619
0.0172986
0.0174938
0.0173891
0.0170263
0.0167394
0.0168515
0.0175441
0.0189305
0.0211361
0.0129133
0.0139662
0.0150689
0.0154562
0.0155237
0.0159363
0.016745
0.0175402
0.0176494
0.0171986
0.0169794
0.01714
0.0173005
0.0172215
0.0169082
0.0166348
0.016717
0.0173745
0.0187557
0.0209923
0.013159
0.0140947
0.0150926
0.0155006
0.0155868
0.015932
0.0166547
0.0174209
0.0176004
0.0171906
0.0169067
0.0169929
0.0171136
0.0170459
0.0167783
0.0165296
0.0165952
0.0172217
0.0185907
0.0208482
0.0133986
0.0142268
0.0151219
0.0155407
0.0156463
0.0159346
0.0165723
0.0172959
0.0175323
0.0171765
0.0168422
0.0168562
0.0169361
0.0168683
0.0166367
0.0164184
0.0164811
0.0170842
0.0184376
0.0207075
0.0136318
0.0143618
0.015157
0.0155767
0.0157013
0.0159426
0.0164984
0.0171681
0.017446
0.0171531
0.0167844
0.0167287
0.016768
0.0166923
0.0164861
0.0162989
0.0163701
0.0169587
0.0182979
0.0205736
0.0138582
0.0144991
0.0151982
0.0156094
0.0157508
0.0159543
0.016431
0.0170413
0.0173436
0.0171171
0.0167314
0.016609
0.0166079
0.0165212
0.0163312
0.0161711
0.0162577
0.0168415
0.0181704
0.0204465
0.0140777
0.0146379
0.0152452
0.0156393
0.0157947
0.0159684
0.0163708
0.0169182
0.0172281
0.0170657
0.0166814
0.0164971
0.0164547
0.0163558
0.0161758
0.0160372
0.0161414
0.0167276
0.0180504
0.0203238
0.0142901
0.0147775
0.015298
0.0156672
0.0158323
0.0159834
0.0163205
0.0168017
0.0171039
0.016997
0.0166307
0.0163935
0.0163071
0.016195
0.0160218
0.0158993
0.0160195
0.0166123
0.0179331
0.020204
0.0144951
0.0149172
0.0153563
0.0156939
0.0158638
0.0159978
0.0162769
0.016693
0.0169753
0.0169111
0.0165751
0.0162974
0.0161652
0.0160372
0.0158687
0.0157585
0.0158922
0.0164936
0.017816
0.0200862
0.0146928
0.0150561
0.0154194
0.0157202
0.0158891
0.0160104
0.0162387
0.0165919
0.0168461
0.0168102
0.0165099
0.0162069
0.0160296
0.0158821
0.0157156
0.0156157
0.0157605
0.0163704
0.0176964
0.0199671
0.014883
0.0151935
0.0154866
0.015747
0.0159091
0.0160199
0.0162046
0.0164977
0.0167192
0.0166984
0.0164314
0.0161182
0.0159007
0.0157307
0.0155629
0.0154711
0.0156242
0.0162412
0.0175715
0.0198444
0.0150657
0.0153288
0.0155573
0.0157745
0.0159243
0.0160251
0.0161736
0.0164098
0.0165956
0.0165807
0.0163396
0.0160266
0.0157766
0.0155827
0.0154104
0.0153238
0.0154829
0.0161055
0.0174404
0.0197172
0.0152409
0.0154612
0.0156305
0.0158035
0.0159358
0.0160255
0.0161442
0.0163281
0.0164751
0.0164602
0.016237
0.0159281
0.0156544
0.0154374
0.015258
0.0151742
0.0153375
0.0159636
0.0173024
0.0195837
0.0154085
0.0155904
0.0157055
0.0158336
0.0159445
0.016021
0.0161153
0.0162528
0.016357
0.0163376
0.0161264
0.0158214
0.0155309
0.0152928
0.0151052
0.0150221
0.0151881
0.0158159
0.0171572
0.0194428
0.0155684
0.0157158
0.0157814
0.015865
0.0159512
0.0160117
0.0160844
0.0161838
0.0162428
0.0162138
0.0160126
0.0157085
0.0154042
0.0151461
0.0149485
0.014864
0.0150314
0.0156597
0.0170027
0.019293
0.0157205
0.0158371
0.0158576
0.0158975
0.0159566
0.0159991
0.0160489
0.016118
0.016133
0.0160869
0.0158964
0.015594
0.0152775
0.0149997
0.0147898
0.0147005
0.0148665
0.0154927
0.0168345
0.0191277
0.0158647
0.0159537
0.0159333
0.015931
0.0159608
0.0159844
0.016009
0.016054
0.016029
0.0159549
0.0157727
0.0154762
0.0151509
0.014854
0.0146304
0.0145352
0.014698
0.0153198
0.0166566
0.0189469
0.0160009
0.0160656
0.0160078
0.015965
0.0159642
0.0159681
0.0159655
0.0159889
0.0159344
0.0158236
0.0156407
0.0153514
0.0150202
0.0147046
0.0144645
0.0143622
0.0145224
0.0151415
0.0164731
0.0187566
0.0161285
0.0161728
0.0160818
0.0159997
0.0159663
0.0159492
0.0159191
0.0159173
0.0158453
0.0156992
0.0155051
0.0152209
0.0148842
0.0145504
0.0142894
0.0141762
0.0143335
0.014952
0.0162787
0.018555
0.0162468
0.0162739
0.0161544
0.0160362
0.0159679
0.0159333
0.0158736
0.0158393
0.015755
0.0155822
0.0153697
0.015086
0.0147435
0.014393
0.0141081
0.0139781
0.014126
0.014739
0.0160615
0.0183337
0.0163562
0.0163713
0.0162253
0.0160719
0.0159669
0.0159208
0.0158296
0.0157594
0.0156615
0.015472
0.0152383
0.0149487
0.0145984
0.0142323
0.013923
0.0137691
0.0138997
0.014502
0.015817
0.0180831
0.0164543
0.0164658
0.016299
0.0161132
0.0159677
0.0158527
0.0157762
0.0156729
0.0155618
0.0153685
0.0151178
0.0148162
0.0144549
0.0140714
0.0137349
0.0135502
0.0136538
0.0142382
0.0155418
0.017799
0.0165213
0.0165489
0.0163711
0.0161516
0.0159773
0.0158907
0.0157373
0.0155891
0.0154649
0.0152791
0.0150164
0.0146976
0.014318
0.0139101
0.0135367
0.0133049
0.0133624
0.013912
0.015184
0.0174081
0.0166571
0.0166322
0.0164366
0.0161884
0.0159701
0.0158179
0.0156709
0.0155275
0.0154043
0.0152401
0.0149903
0.0146741
0.0143009
0.0138986
0.0135118
0.0132334
0.0132088
0.0136405
0.0147899
0.0168956
0.0166234
0.0167062
0.01648
0.0162926
0.0160603
0.0157695
0.015468
0.0153012
0.0151563
0.0150047
0.0147372
0.0144087
0.0140389
0.0136974
0.0134266
0.0133081
0.0134268
0.0139512
0.0151255
0.0172044
0.0168176
0.0167305
0.0165113
0.0162065
0.0159552
0.0157685
0.0156526
0.0155345
0.0153953
0.0152369
0.0149595
0.0145683
0.0140556
0.0134412
0.0127884
0.0122159
0.0119005
0.0120664
0.0130431
0.0148818
0.0170895
0.0166933
0.016368
0.0160782
0.0158389
0.0155744
0.015259
0.0150654
0.0149268
0.01474
0.0145196
0.0142884
0.0142295
0.0144609
0.0150506
0.0159266
0.0169078
0.0176977
0.0178717
0.0172789
0.0171014
0.0167428
0.0163956
0.0161826
0.0160707
0.0159788
0.0158763
0.0156999
0.0155027
0.0152181
0.0147493
0.0140733
0.0132309
0.012323
0.0114497
0.010669
0.0101148
0.0100131
0.0106501
0.0122918
0.0172996
0.016745
0.016351
0.0161098
0.0160113
0.0157953
0.0154798
0.015041
0.0146711
0.0145169
0.0143594
0.0140521
0.0137725
0.0136774
0.0138588
0.0143316
0.0150164
0.0156367
0.0158024
0.0151445
0.0173065
0.0167433
0.0163624
0.0162515
0.0163109
0.0163225
0.016294
0.0161479
0.0158807
0.0153728
0.0145442
0.0133389
0.0118293
0.0101977
0.00868864
0.00750782
0.00680977
0.00676132
0.00757476
0.00944288
0.0429497
0.0255048
0.0187605
0.0188828
0.0200063
0.0208732
0.0215987
0.022238
0.0227764
0.0233123
0.024012
0.0248791
0.0256867
0.0263595
0.0271136
0.0279779
0.0288169
0.0296017
0.0304519
0.0313915
0.032344
0.0334033
0.0345164
0.0354429
0.0363628
0.0375684
0.038856
0.0401238
0.0414206
0.0427775
0.0441113
0.0454953
0.0469756
0.0485385
0.0501307
0.0517475
0.0534547
0.0552108
0.0570844
0.0589911
0.0609905
0.0630041
0.0650919
0.0672714
0.0694508
0.07177
0.0740022
0.0764203
0.0784531
0.0804303
0.042419
0.0255573
0.0188051
0.0189
0.0200149
0.0208788
0.021603
0.0222415
0.0227794
0.0233146
0.0240138
0.0248806
0.025688
0.0263606
0.0271146
0.0279788
0.0288178
0.0296025
0.0304526
0.0313922
0.0323447
0.0334038
0.0345169
0.0354433
0.0363632
0.0375688
0.0388564
0.0401241
0.0414208
0.0427778
0.0441116
0.0454955
0.0469758
0.0485387
0.0501309
0.0517477
0.0534548
0.055211
0.0570845
0.0589912
0.0609906
0.0630042
0.065092
0.0672715
0.0694509
0.0717701
0.0740022
0.0764204
0.0784532
0.0804303
0.0419088
0.0256482
0.0188743
0.0189229
0.0200253
0.0208848
0.0216072
0.0222449
0.0227821
0.0233168
0.0240156
0.024882
0.0256892
0.0263617
0.0271155
0.0279796
0.0288185
0.0296032
0.0304533
0.0313928
0.0323452
0.0334043
0.0345174
0.0354438
0.0363635
0.0375691
0.0388567
0.0401244
0.0414211
0.042778
0.0441118
0.0454957
0.046976
0.0485389
0.050131
0.0517478
0.053455
0.0552111
0.0570847
0.0589914
0.0609907
0.0630043
0.0650921
0.0672716
0.069451
0.0717702
0.0740023
0.0764204
0.0784532
0.0804303
0.0414389
0.0257676
0.0189755
0.0189592
0.020041
0.0208931
0.0216122
0.0222486
0.0227851
0.0233193
0.0240176
0.0248836
0.0256906
0.0263627
0.0271164
0.0279804
0.0288193
0.0296039
0.0304539
0.0313934
0.0323458
0.0334048
0.0345179
0.0354442
0.0363639
0.0375694
0.038857
0.0401246
0.0414214
0.0427783
0.044112
0.0454959
0.0469762
0.048539
0.0501312
0.051748
0.0534551
0.0552112
0.0570848
0.0589915
0.0609909
0.0630044
0.0650922
0.0672717
0.069451
0.0717703
0.0740024
0.0764205
0.0784533
0.0804303
0.0409772
0.0259017
0.0191033
0.0190099
0.0200641
0.0209049
0.0216189
0.0222531
0.0227888
0.0233226
0.0240203
0.0248857
0.0256921
0.026364
0.0271175
0.0279813
0.0288201
0.0296046
0.0304545
0.0313941
0.0323464
0.0334054
0.0345184
0.0354447
0.0363642
0.0375697
0.0388574
0.0401249
0.0414216
0.0427785
0.0441122
0.0454961
0.0469764
0.0485392
0.0501314
0.0517481
0.0534552
0.0552114
0.0570849
0.0589916
0.060991
0.0630046
0.0650923
0.0672717
0.0694511
0.0717703
0.0740025
0.0764206
0.0784534
0.0804303
0.0405057
0.0260411
0.0192465
0.0190704
0.0200934
0.0209205
0.0216277
0.0222589
0.0227935
0.0233268
0.0240239
0.0248884
0.0256941
0.0263655
0.0271188
0.0279824
0.0288209
0.0296053
0.0304552
0.0313947
0.032347
0.033406
0.0345191
0.0354452
0.0363645
0.0375701
0.0388578
0.0401253
0.0414219
0.0427788
0.0441125
0.0454963
0.0469766
0.0485394
0.0501315
0.0517483
0.0534554
0.0552115
0.057085
0.0589917
0.0609911
0.0630047
0.0650924
0.0672718
0.0694512
0.0717704
0.0740025
0.0764207
0.0784535
0.0804304
0.0400234
0.0261813
0.019398
0.0191361
0.0201266
0.0209389
0.0216383
0.0222659
0.0227992
0.0233321
0.0240286
0.0248919
0.0256966
0.0263675
0.0271204
0.0279836
0.0288219
0.0296062
0.0304559
0.0313953
0.0323476
0.0334067
0.0345198
0.0354459
0.0363649
0.0375705
0.0388582
0.0401257
0.0414223
0.0427791
0.0441128
0.0454966
0.0469768
0.0485396
0.0501317
0.0517484
0.0534555
0.0552116
0.0570852
0.0589918
0.0609912
0.0630048
0.0650925
0.0672719
0.0694513
0.0717705
0.0740026
0.0764208
0.0784538
0.0804304
0.0395343
0.0263203
0.0195551
0.0192049
0.020162
0.0209591
0.0216502
0.0222741
0.0228059
0.0233384
0.0240341
0.0248959
0.0256994
0.0263698
0.0271224
0.0279851
0.028823
0.0296071
0.0304567
0.031396
0.0323482
0.0334074
0.0345207
0.0354466
0.0363654
0.0375709
0.0388586
0.0401261
0.0414226
0.0427795
0.0441131
0.0454968
0.046977
0.0485398
0.0501319
0.0517486
0.0534557
0.0552118
0.0570853
0.058992
0.0609914
0.0630049
0.0650926
0.0672721
0.0694514
0.0717706
0.0740028
0.0764209
0.078454
0.0804305
0.0390421
0.0264568
0.0197172
0.0192759
0.0201986
0.0209805
0.0216631
0.0222831
0.0228134
0.0233454
0.0240402
0.0249004
0.0257026
0.0263726
0.0271247
0.0279868
0.0288243
0.0296084
0.0304577
0.0313967
0.0323488
0.0334081
0.0345216
0.0354474
0.036366
0.0375715
0.0388591
0.0401265
0.0414231
0.0427799
0.0441135
0.0454972
0.0469773
0.0485401
0.0501322
0.0517488
0.0534559
0.055212
0.0570855
0.0589921
0.0609915
0.063005
0.0650927
0.0672722
0.0694515
0.0717708
0.0740029
0.0764211
0.0784544
0.0804306
0.0385488
0.0265901
0.0198845
0.019349
0.0202359
0.0210027
0.0216767
0.0222928
0.0228217
0.0233531
0.0240468
0.0249052
0.0257061
0.0263756
0.0271274
0.0279888
0.0288258
0.0296098
0.0304589
0.0313975
0.0323494
0.0334087
0.0345225
0.0354484
0.0363667
0.0375722
0.0388597
0.040127
0.0414235
0.0427803
0.0441139
0.0454975
0.0469776
0.0485404
0.0501324
0.051749
0.0534561
0.0552121
0.0570856
0.0589923
0.0609917
0.0630052
0.0650929
0.0672723
0.0694517
0.0717709
0.074003
0.0764213
0.0784548
0.0804307
0.0380559
0.0267195
0.0200569
0.0194242
0.0202735
0.0210253
0.0216909
0.022303
0.0228304
0.0233611
0.0240537
0.0249102
0.0257097
0.0263789
0.0271304
0.0279909
0.0288274
0.0296115
0.0304605
0.0313986
0.03235
0.0334093
0.0345233
0.0354493
0.0363676
0.037573
0.0388604
0.0401275
0.041424
0.0427809
0.0441144
0.0454979
0.046978
0.0485407
0.0501327
0.0517493
0.0534563
0.0552123
0.0570858
0.0589925
0.0609918
0.0630054
0.065093
0.0672725
0.0694518
0.071771
0.0740032
0.0764216
0.0784554
0.0804309
0.0375647
0.0268442
0.0202341
0.0195013
0.0203112
0.0210483
0.0217056
0.0223136
0.0228396
0.0233695
0.0240608
0.0249153
0.0257133
0.0263822
0.0271335
0.0279931
0.0288292
0.0296134
0.0304624
0.0314001
0.0323507
0.0334096
0.0345239
0.0354502
0.0363686
0.0375741
0.0388613
0.0401281
0.0414245
0.0427814
0.0441149
0.0454985
0.0469784
0.0485411
0.0501331
0.0517496
0.0534566
0.0552125
0.057086
0.0589926
0.060992
0.0630055
0.0650932
0.0672726
0.069452
0.0717712
0.0740034
0.0764219
0.0784561
0.0804312
0.0370758
0.0269634
0.0204159
0.0195805
0.0203487
0.0210715
0.0217208
0.0223247
0.0228491
0.0233783
0.0240681
0.0249205
0.0257171
0.0263857
0.0271368
0.0279955
0.028831
0.0296154
0.0304646
0.0314019
0.0323517
0.0334098
0.0345242
0.0354509
0.0363697
0.0375754
0.0388623
0.0401287
0.041425
0.0427819
0.0441155
0.045499
0.0469789
0.0485415
0.0501335
0.05175
0.0534569
0.0552128
0.0570862
0.0589928
0.0609922
0.0630057
0.0650934
0.0672728
0.0694522
0.0717714
0.0740037
0.0764223
0.0784569
0.0804316
0.03659
0.0270764
0.0206024
0.019662
0.020386
0.0210947
0.0217365
0.0223363
0.0228591
0.0233873
0.0240756
0.0249258
0.025721
0.0263894
0.0271402
0.027998
0.0288328
0.0296174
0.0304668
0.0314038
0.0323528
0.0334099
0.034524
0.0354512
0.0363706
0.0375768
0.0388636
0.0401295
0.0414255
0.0427824
0.0441161
0.0454997
0.0469795
0.048542
0.0501339
0.0517504
0.0534572
0.055213
0.0570864
0.058993
0.0609924
0.0630059
0.0650935
0.067273
0.0694524
0.0717717
0.0740039
0.0764227
0.0784579
0.080432
0.0361083
0.0271825
0.0207936
0.0197462
0.0204229
0.0211179
0.0217527
0.0223485
0.0228694
0.0233967
0.0240834
0.0249313
0.0257251
0.0263931
0.0271437
0.0280005
0.0288347
0.0296195
0.0304691
0.031406
0.0323541
0.0334099
0.0345235
0.0354511
0.0363714
0.0375784
0.0388651
0.0401304
0.041426
0.0427828
0.0441167
0.0455004
0.0469802
0.0485425
0.0501344
0.0517509
0.0534577
0.0552134
0.0570866
0.0589932
0.0609926
0.0630061
0.0650937
0.0672732
0.0694526
0.071772
0.0740043
0.0764233
0.0784591
0.0804327
0.0356315
0.0272812
0.0209897
0.0198337
0.0204597
0.0211409
0.0217693
0.0223612
0.0228802
0.0234065
0.0240915
0.0249371
0.0257293
0.0263969
0.0271474
0.0280032
0.0288367
0.0296216
0.0304714
0.0314081
0.0323554
0.0334097
0.0345225
0.0354506
0.0363719
0.03758
0.0388668
0.0401315
0.0414266
0.0427832
0.0441172
0.0455012
0.046981
0.0485431
0.0501349
0.0517515
0.0534583
0.0552138
0.0570869
0.0589934
0.0609928
0.0630063
0.0650939
0.0672734
0.0694528
0.0717723
0.0740047
0.0764239
0.0784605
0.0804334
0.0351608
0.027372
0.0211904
0.0199249
0.0204962
0.0211636
0.0217864
0.0223744
0.0228915
0.0234166
0.0240999
0.0249431
0.0257338
0.026401
0.0271512
0.028006
0.0288387
0.0296237
0.0304737
0.0314103
0.0323567
0.0334093
0.034521
0.0354497
0.0363722
0.0375816
0.0388686
0.0401326
0.0414273
0.0427835
0.0441176
0.0455019
0.0469819
0.0485438
0.0501355
0.0517521
0.0534589
0.0552143
0.0570872
0.0589936
0.060993
0.0630065
0.0650941
0.0672736
0.0694531
0.0717726
0.0740052
0.0764246
0.0784622
0.0804343
0.0346972
0.0274543
0.0213956
0.0200204
0.0205326
0.021186
0.021804
0.0223882
0.0229032
0.0234271
0.0241086
0.0249494
0.0257384
0.0264052
0.0271551
0.0280089
0.0288409
0.029626
0.0304761
0.0314125
0.0323579
0.0334088
0.034519
0.0354485
0.0363723
0.037583
0.0388704
0.0401339
0.041428
0.0427838
0.044118
0.0455026
0.0469828
0.0485446
0.050136
0.0517528
0.0534596
0.0552149
0.0570876
0.0589938
0.0609932
0.0630067
0.0650943
0.0672738
0.0694533
0.071773
0.0740057
0.0764255
0.0784641
0.0804354
0.0342416
0.0275276
0.021605
0.0201209
0.0205692
0.021208
0.021822
0.0224027
0.0229154
0.0234381
0.0241176
0.024956
0.0257433
0.0264096
0.0271591
0.028012
0.0288432
0.0296282
0.0304785
0.0314146
0.0323592
0.0334081
0.0345167
0.035447
0.0363725
0.0375843
0.0388722
0.0401352
0.0414288
0.0427842
0.0441183
0.0455033
0.0469837
0.0485454
0.0501365