/*--------------------------------*- C++ -*----------------------------------*\
| =========                 |                                                 |
| \\      /  F ield         | OpenFOAM: The Open Source CFD Toolbox           |
|  \\    /   O peration     | Version:  v2012                                 |
|   \\  /    A nd           | Website:  www.openfoam.com                      |
|    \\/     M anipulation  |                                                 |
\*---------------------------------------------------------------------------*/
FoamFile
{
    version     2.0;
    format      ascii;
    class       surfaceScalarField;
    location    "2.3";
    object      phi;
}
// * * * * * * * * * * * * * * * * * * * * * * * * * * * * * * * * * * * * * //

dimensions      [0 3 -1 0 0 0 0];
oriented        oriented;


internalField   nonuniform List<scalar> 
13830
(
1.02838e-06
-1.56586e-06
9.42497e-07
2.0274e-06
8.7167e-07
-6.32609e-07
9.89003e-07
-1.94556e-06
1.01429e-06
-6.33658e-07
9.00192e-07
4.91219e-07
9.63226e-07
3.31004e-07
9.32532e-07
-1.35696e-07
9.64798e-07
-2.34039e-07
9.67574e-07
2.17336e-07
9.43442e-07
1.31701e-07
9.49749e-07
4.27832e-07
9.35677e-07
8.74738e-08
9.39146e-07
2.16836e-07
9.38047e-07
2.1262e-08
9.37026e-07
5.76947e-08
9.40571e-07
-2.57487e-08
9.40375e-07
-3.24287e-09
9.40707e-07
-2.56327e-08
-2.55175e-08
9.2908e-07
1.06953e-06
-1.66286e-06
1.01331e-06
2.08362e-06
9.33231e-07
-5.52527e-07
1.02624e-06
-2.03857e-06
1.05466e-06
-6.62077e-07
9.42293e-07
6.03588e-07
1.00433e-06
2.68967e-07
9.74221e-07
-1.05587e-07
1.00661e-06
-2.66428e-07
1.01219e-06
2.11758e-07
9.83031e-07
1.60858e-07
9.97127e-07
4.13736e-07
9.76528e-07
1.08073e-07
9.87124e-07
2.0624e-07
9.77414e-07
3.09722e-08
9.84877e-07
5.02321e-08
9.77162e-07
-1.80342e-08
9.86724e-07
-1.28051e-08
9.73357e-07
-1.22659e-08
-3.19869e-08
9.79827e-07
1.10931e-06
-1.76272e-06
1.09185e-06
2.10108e-06
9.9843e-07
-4.59108e-07
1.06235e-06
-2.10249e-06
1.09636e-06
-6.96087e-07
9.98554e-07
7.01395e-07
1.0502e-06
2.1732e-07
1.02938e-06
-8.47604e-08
1.0503e-06
-2.87356e-07
1.06743e-06
1.94634e-07
1.02555e-06
2.02734e-07
1.04817e-06
3.91121e-07
1.01996e-06
1.36282e-07
1.035e-06
1.91193e-07
1.01892e-06
4.70576e-08
1.02928e-06
3.98702e-08
1.01705e-06
-5.80626e-09
1.02651e-06
-2.22607e-08
1.01355e-06
6.8722e-10
-3.44568e-08
1.01602e-06
1.14824e-06
-1.86319e-06
1.16744e-06
2.08188e-06
1.05903e-06
-3.50704e-07
1.09692e-06
-2.14038e-06
1.13801e-06
-7.37173e-07
1.06444e-06
7.74958e-07
1.10063e-06
1.81132e-07
1.09053e-06
-7.46597e-08
1.09541e-06
-2.9223e-07
1.12158e-06
1.68463e-07
1.0732e-06
2.51107e-07
1.09386e-06
3.70464e-07
1.06764e-06
1.62505e-07
1.07803e-06
1.80802e-07
1.06391e-06
6.11739e-08
1.07043e-06
3.33537e-08
1.05972e-06
4.89751e-09
1.06545e-06
-2.79874e-08
1.05536e-06
1.0775e-08
-3.37554e-08
1.05466e-06
1.18577e-06
-1.9614e-06
1.23453e-06
2.03312e-06
1.11325e-06
-2.29417e-07
1.13051e-06
-2.15764e-06
1.17877e-06
-7.85433e-07
1.13468e-06
8.19041e-07
1.15299e-06
1.62822e-07
1.14966e-06
-7.13327e-08
1.14001e-06
-2.82573e-07
1.16832e-06
1.40149e-07
1.12561e-06
2.93818e-07
1.13752e-06
3.58553e-07
1.11896e-06
1.8107e-07
1.12249e-06
1.7727e-07
1.11146e-06
7.21992e-08
1.11407e-06
3.07498e-08
1.1042e-06
1.476e-08
1.10704e-06
-3.0828e-08
1.09824e-06
1.95795e-08
-3.11092e-08
1.09559e-06
1.22153e-06
-2.05409e-06
1.2898e-06
1.96485e-06
1.16184e-06
-1.01456e-07
1.16405e-06
-2.15985e-06
1.21855e-06
-8.3993e-07
1.20373e-06
8.33865e-07
1.20524e-06
1.61308e-07
1.20186e-06
-6.79492e-08
1.18339e-06
-2.64102e-07
1.20833e-06
1.15204e-07
1.17995e-06
3.222e-07
1.18367e-06
3.54832e-07
1.17151e-06
1.93234e-07
1.17062e-06
1.78157e-07
1.16017e-06
8.26529e-08
1.16044e-06
3.04775e-08
1.14978e-06
2.54214e-08
1.15054e-06
-3.15936e-08
1.14186e-06
2.82609e-08
-2.71049e-08
1.13786e-06
1.25539e-06
-2.13778e-06
1.33243e-06
1.88781e-06
1.20699e-06
2.39902e-08
1.19866e-06
-2.15152e-06
1.25768e-06
-8.98952e-07
1.26783e-06
8.23717e-07
1.25604e-06
1.73094e-07
1.24692e-06
-5.88314e-08
1.22518e-06
-2.42358e-07
1.245e-06
9.5387e-08
1.23209e-06
3.35108e-07
1.23214e-06
3.54784e-07
1.22264e-06
2.02726e-07
1.22019e-06
1.80615e-07
1.20842e-06
9.44227e-08
1.20745e-06
3.14486e-08
1.19546e-06
3.74108e-08
1.1945e-06
-3.0635e-08
1.18567e-06
3.70919e-08
-2.19757e-08
1.18054e-06
1.2876e-06
-2.2092e-06
1.36403e-06
1.81138e-06
1.25095e-06
1.37063e-07
1.23534e-06
-2.1359e-06
1.2962e-06
-9.59809e-07
1.32511e-06
7.94804e-07
1.30422e-06
1.93986e-07
1.28722e-06
-4.1831e-08
1.26487e-06
-2.20004e-07
1.28047e-06
7.97818e-08
1.2792e-06
3.36383e-07
1.27973e-06
3.54254e-07
1.2705e-06
2.11957e-07
1.26819e-06
1.82915e-07
1.2549e-06
1.07713e-07
1.25329e-06
3.30605e-08
1.24054e-06
5.01599e-08
1.23808e-06
-2.81699e-08
1.22941e-06
4.57618e-08
-1.58795e-08
1.22331e-06
1.31883e-06
-2.26568e-06
1.38798e-06
1.74223e-06
1.29526e-06
2.29782e-07
1.27487e-06
-2.11551e-06
1.33375e-06
-1.01869e-06
1.37478e-06
7.53775e-07
1.34868e-06
2.20085e-07
1.32524e-06
-1.83971e-08
1.3024e-06
-1.97157e-07
1.31524e-06
6.69433e-08
1.32072e-06
3.30901e-07
1.32372e-06
3.51255e-07
1.31428e-06
2.21394e-07
1.31306e-06
1.84131e-07
1.29923e-06
1.21547e-07
1.29743e-06
3.48602e-08
1.28504e-06
6.25459e-08
1.28138e-06
-2.451e-08
1.27338e-06
5.37666e-08
-9.07067e-09
1.26657e-06
1.35029e-06
-2.30569e-06
1.40867e-06
1.68385e-06
1.34065e-06
2.97804e-07
1.31766e-06
-2.09253e-06
1.37011e-06
-1.07114e-06
1.4169e-06
7.06989e-07
1.38899e-06
2.47991e-07
1.36276e-06
7.8355e-09
1.33876e-06
-1.73153e-07
1.34948e-06
5.62178e-08
1.35783e-06
3.22553e-07
1.36357e-06
3.45521e-07
1.35454e-06
2.30422e-07
1.35502e-06
1.83648e-07
1.34205e-06
1.34519e-07
1.34049e-06
3.64161e-08
1.32959e-06
7.34517e-08
1.32516e-06
-2.00814e-08
1.31824e-06
6.06818e-08
-1.9081e-09
1.31108e-06
1.38353e-06
-2.3292e-06
1.43054e-06
1.63684e-06
1.38752e-06
3.40829e-07
1.36375e-06
-2.06877e-06
1.40583e-06
-1.11321e-06
1.45289e-06
6.59924e-07
1.42601e-06
2.74872e-07
1.40101e-06
3.28355e-08
1.37567e-06
-1.47811e-07
1.38413e-06
4.77579e-08
1.39274e-06
3.13943e-07
1.40079e-06
3.37476e-07
1.39302e-06
2.38184e-07
1.39561e-06
1.81062e-07
1.38474e-06
1.45388e-07
1.38377e-06
3.73848e-08
1.37509e-06
8.21292e-08
1.37033e-06
-1.53178e-08
1.36473e-06
6.62834e-08
5.2375e-09
1.35758e-06
1.42017e-06
-2.33771e-06
1.45728e-06
1.59973e-06
1.43627e-06
3.61838e-07
1.41289e-06
-2.04538e-06
1.44225e-06
-1.14257e-06
1.48563e-06
6.16549e-07
1.46179e-06
2.98711e-07
1.44109e-06
5.35316e-08
1.41494e-06
-1.21659e-07
1.42082e-06
4.18742e-08
1.42813e-06
3.06631e-07
1.43797e-06
3.27643e-07
1.43209e-06
2.4406e-07
1.43688e-06
1.76278e-07
1.42885e-06
1.53414e-07
1.4286e-06
3.76319e-08
1.42242e-06
8.83133e-08
1.41764e-06
-1.05405e-08
1.41338e-06
7.05478e-08
1.20874e-08
1.40653e-06
1.46143e-06
-2.3339e-06
1.49118e-06
1.56998e-06
1.48731e-06
3.65707e-07
1.46465e-06
-2.02272e-06
1.48106e-06
-1.15899e-06
1.51869e-06
5.78915e-07
1.49887e-06
3.18532e-07
1.484e-06
6.84025e-08
1.45789e-06
-9.55512e-08
1.46126e-06
3.85069e-08
1.46653e-06
3.01359e-07
1.47768e-06
3.16494e-07
1.47393e-06
2.47812e-07
1.48063e-06
1.69578e-07
1.47563e-06
1.58415e-07
1.47597e-06
3.72861e-08
1.47214e-06
9.2142e-08
1.46751e-06
-5.90416e-09
1.46445e-06
7.36071e-08
1.84901e-08
1.45805e-06
1.50787e-06
-2.32089e-06
1.53297e-06
1.54487e-06
1.5409e-06
3.57782e-07
1.51863e-06
-2.00045e-06
1.52361e-06
-1.16396e-06
1.55527e-06
5.47252e-07
1.53951e-06
3.34291e-07
1.53055e-06
7.73652e-08
1.50522e-06
-7.02294e-08
1.5066e-06
3.7127e-08
1.50972e-06
2.98241e-07
1.52172e-06
3.04492e-07
1.51998e-06
2.49551e-07
1.52799e-06
1.61578e-07
1.52576e-06
1.60637e-07
1.52639e-06
3.66613e-08
1.52452e-06
9.40089e-08
1.52004e-06
-1.42286e-09
1.51797e-06
7.56759e-08
2.44124e-08
1.51205e-06
1.55939e-06
-2.30167e-06
1.58219e-06
1.52207e-06
1.59713e-06
3.42841e-07
1.57457e-06
-1.97789e-06
1.57053e-06
-1.15993e-06
1.59726e-06
5.20524e-07
1.58508e-06
3.46475e-07
1.5812e-06
8.12456e-08
1.55707e-06
-4.61039e-08
1.55724e-06
3.6963e-08
1.5585e-06
2.9698e-07
1.57085e-06
2.92139e-07
1.57082e-06
2.49582e-07
1.57932e-06
1.5308e-07
1.57942e-06
1.60533e-07
1.57996e-06
3.61187e-08
1.57957e-06
9.44014e-08
1.57518e-06
2.96778e-09
1.57387e-06
7.69857e-08
2.98994e-08
1.56838e-06
1.61548e-06
-2.27861e-06
1.63772e-06
1.49983e-06
1.65598e-06
3.24577e-07
1.63242e-06
-1.95432e-06
1.62182e-06
-1.14933e-06
1.64522e-06
4.97126e-07
1.63605e-06
3.55644e-07
1.63612e-06
8.1172e-08
1.61327e-06
-2.32523e-08
1.61293e-06
3.73047e-08
1.61284e-06
2.97073e-07
1.62501e-06
2.79966e-07
1.62633e-06
2.48259e-07
1.6345e-06
1.44914e-07
1.63643e-06
1.58598e-07
1.6366e-06
3.59507e-08
1.63722e-06
9.37838e-08
1.63284e-06
7.34774e-09
1.63208e-06
7.77462e-08
3.50306e-08
1.62695e-06
1.67556e-06
-2.25342e-06
1.69835e-06
1.47704e-06
1.71737e-06
3.05559e-07
1.69225e-06
-1.9292e-06
1.67709e-06
-1.13417e-06
1.69878e-06
4.75439e-07
1.69226e-06
3.6216e-07
1.69529e-06
7.8149e-08
1.67357e-06
-1.53371e-09
1.67316e-06
3.77116e-08
1.67227e-06
2.97964e-07
1.68374e-06
2.68499e-07
1.68613e-06
2.45867e-07
1.69326e-06
1.37787e-07
1.69656e-06
1.55295e-07
1.69618e-06
3.63322e-08
1.69742e-06
9.25429e-08
1.69299e-06
1.1776e-08
1.69261e-06
7.81299e-08
3.98861e-08
1.68775e-06
1.73909e-06
-2.22719e-06
1.7631e-06
1.45303e-06
1.78123e-06
2.87429e-07
1.75423e-06
-1.9022e-06
1.73598e-06
-1.11591e-06
1.7573e-06
4.5412e-07
1.75331e-06
3.6615e-07
1.75856e-06
7.28935e-08
1.73775e-06
1.928e-08
1.73738e-06
3.80768e-08
1.73623e-06
2.99114e-07
1.74651e-06
2.58218e-07
1.7498e-06
2.4258e-07
1.75539e-06
1.32195e-07
1.75964e-06
1.51044e-07
1.75864e-06
3.73305e-08
1.76021e-06
9.09779e-08
1.7557e-06
1.62824e-08
1.75556e-06
7.82714e-08
4.45244e-08
1.75092e-06
1.80572e-06
-2.20057e-06
1.83127e-06
1.42748e-06
1.84754e-06
2.71157e-07
1.81859e-06
-1.87325e-06
1.79826e-06
-1.09559e-06
1.82021e-06
4.32172e-07
1.81874e-06
3.6762e-07
1.82577e-06
6.58647e-08
1.80565e-06
3.93992e-08
1.80514e-06
3.85837e-08
1.80421e-06
3.00044e-07
1.81288e-06
2.4955e-07
1.81696e-06
2.38503e-07
1.82079e-06
1.28364e-07
1.82562e-06
1.46216e-07
1.82401e-06
3.89406e-08
1.82567e-06
8.93183e-08
1.82108e-06
2.08711e-08
1.82107e-06
7.82773e-08
4.89709e-08
1.81663e-06
1.8752e-06
-2.17387e-06
1.90241e-06
1.40027e-06
1.91635e-06
2.57213e-07
1.88554e-06
-1.84244e-06
1.86391e-06
-1.07396e-06
1.88715e-06
4.08926e-07
1.88817e-06
3.66601e-07
1.89667e-06
5.73729e-08
1.87713e-06
5.89384e-08
1.8761e-06
3.96107e-08
1.8758e-06
3.00348e-07
1.88249e-06
2.42855e-07
1.88734e-06
2.33656e-07
1.8894e-06
1.26301e-07
1.89447e-06
1.41143e-07
1.89232e-06
4.10975e-08
1.89388e-06
8.77531e-08
1.88923e-06
2.55241e-08
1.88927e-06
7.82324e-08
5.32172e-08
1.88503e-06
1.94736e-06
-2.14713e-06
1.97624e-06
1.37139e-06
1.98775e-06
2.45704e-07
1.95528e-06
-1.80997e-06
1.93295e-06
-1.05163e-06
1.95787e-06
3.84006e-07
1.96123e-06
3.63246e-07
1.97092e-06
4.76815e-08
1.95199e-06
7.78651e-08
1.94998e-06
4.16228e-08
1.95061e-06
2.99715e-07
1.95511e-06
2.38356e-07
1.96071e-06
2.28057e-07
1.96117e-06
1.25846e-07
1.96619e-06
1.36123e-07
1.9636e-06
4.36836e-08
1.96492e-06
8.64335e-08
1.96022e-06
3.02229e-08
1.96026e-06
7.81967e-08
5.72315e-08
1.95624e-06
2.02211e-06
-2.12019e-06
2.05267e-06
1.34084e-06
2.06189e-06
2.36478e-07
2.02803e-06
-1.77611e-06
2.00545e-06
-1.02905e-06
2.03214e-06
3.57317e-07
2.03753e-06
3.57853e-07
2.04814e-06
3.70701e-08
2.03003e-06
9.59789e-08
2.02657e-06
4.50784e-08
2.02836e-06
2.97929e-07
2.03062e-06
2.36096e-07
2.03691e-06
2.21769e-07
2.03604e-06
1.26717e-07
2.04073e-06
1.31427e-07
2.03787e-06
4.65507e-08
2.03884e-06
8.54584e-08
2.03409e-06
3.49693e-08
2.03408e-06
7.82118e-08
6.0969e-08
2.03034e-06
2.09949e-06
-2.09284e-06
2.13173e-06
1.3086e-06
2.13895e-06
2.29255e-07
2.10398e-06
-1.74114e-06
2.08144e-06
-1.00651e-06
2.10974e-06
3.29015e-07
2.11676e-06
3.50831e-07
2.12797e-06
2.58663e-08
2.11102e-06
1.1292e-07
2.10579e-06
5.03145e-08
2.1089e-06
2.94817e-07
2.10899e-06
2.36005e-07
2.11586e-06
2.14899e-07
2.11402e-06
1.28558e-07
2.11813e-06
1.27319e-07
2.11513e-06
4.95456e-08
2.11572e-06
8.48729e-08
2.11089e-06
3.97988e-08
2.11079e-06
7.83075e-08
6.43802e-08
2.10738e-06
2.1796e-06
-2.06486e-06
2.21355e-06
1.27465e-06
2.21907e-06
2.23729e-07
2.18327e-06
-1.70533e-06
2.16096e-06
-9.84203e-07
2.1905e-06
2.99477e-07
2.19869e-06
3.42645e-07
2.2101e-06
1.44567e-08
2.19482e-06
1.28197e-07
2.18763e-06
5.74984e-08
2.19223e-06
2.90222e-07
2.19036e-06
2.37877e-07
2.19764e-06
2.07618e-07
2.1952e-06
1.30995e-07
2.19848e-06
1.24041e-07
2.19546e-06
5.25658e-08
2.19566e-06
8.46762e-08
2.19069e-06
4.47637e-08
2.19047e-06
7.85237e-08
6.74264e-08
2.18743e-06
2.26262e-06
-2.03609e-06
2.29828e-06
1.239e-06
2.30239e-06
2.19619e-07
2.26605e-06
-1.66899e-06
2.24408e-06
-9.62234e-07
2.27431e-06
2.69245e-07
2.28321e-06
3.33748e-07
2.29438e-06
3.28137e-09
2.28132e-06
1.41267e-07
2.27221e-06
6.66044e-08
2.27843e-06
2.83997e-07
2.27495e-06
2.41359e-07
2.28242e-06
2.00153e-07
2.27972e-06
1.33693e-07
2.28198e-06
1.2178e-07
2.27893e-06
5.56206e-08
2.27878e-06
8.48244e-08
2.27363e-06
4.99155e-08
2.27324e-06
7.89129e-08
7.01051e-08
2.27056e-06
2.34871e-06
-2.00642e-06
2.38604e-06
1.20166e-06
2.38899e-06
2.16676e-07
2.35243e-06
-1.63244e-06
2.33085e-06
-9.40657e-07
2.36114e-06
2.38962e-07
2.37037e-06
3.24521e-07
2.38083e-06
-7.18134e-09
2.37047e-06
1.51629e-07
2.35967e-06
7.74015e-08
2.36764e-06
2.76028e-07
2.36303e-06
2.45964e-07
2.37043e-06
1.92754e-07
2.36772e-06
1.36409e-07
2.3689e-06
1.20597e-07
2.36565e-06
5.88679e-08
2.36514e-06
8.53319e-08
2.3599e-06
5.51552e-08
2.35925e-06
7.95676e-08
7.24673e-08
2.35689e-06
2.43801e-06
-1.97575e-06
2.47695e-06
1.16272e-06
2.47898e-06
2.14644e-07
2.44252e-06
-1.59598e-06
2.42135e-06
-9.19486e-07
2.451e-06
2.09315e-07
2.4603e-06
3.15223e-07
2.46956e-06
-1.64405e-08
2.46231e-06
1.58876e-07
2.4502e-06
8.95095e-08
2.45995e-06
2.66282e-07
2.45479e-06
2.51117e-07
2.46189e-06
1.85661e-07
2.4593e-06
1.39e-07
2.45947e-06
1.20419e-07
2.45577e-06
6.25733e-08
2.45488e-06
8.62193e-08
2.44988e-06
6.01539e-08
2.44871e-06
8.07366e-08
7.46141e-08
2.44657e-06
2.53063e-06
-1.94398e-06
2.5711e-06
1.12226e-06
2.57249e-06
2.1325e-07
2.53642e-06
-1.55991e-06
2.51563e-06
-8.98697e-07
2.54396e-06
1.8099e-07
2.55323e-06
3.05955e-07
2.56082e-06
-2.40307e-08
2.55695e-06
1.62742e-07
2.544e-06
1.02464e-07
2.55543e-06
2.5485e-07
2.55036e-06
2.56189e-07
2.55688e-06
1.79139e-07
2.55456e-06
1.4132e-07
2.55383e-06
1.21148e-07
2.54929e-06
6.71156e-08
2.55075e-06
8.4754e-08
2.54419e-06
6.67171e-08
2.54185e-06
8.30805e-08
7.66805e-08
2.53978e-06
2.6267e-06
-1.911e-06
2.66862e-06
1.08034e-06
2.66967e-06
2.12196e-07
2.6342e-06
-1.52444e-06
2.61376e-06
-8.7825e-07
2.64012e-06
1.54628e-07
2.64942e-06
2.96653e-07
2.65494e-06
-2.9551e-08
2.65454e-06
1.63148e-07
2.64123e-06
1.1577e-07
2.65407e-06
2.42007e-07
2.64981e-06
2.60456e-07
2.65537e-06
1.73575e-07
2.65365e-06
1.43036e-07
2.65218e-06
1.22619e-07
2.64569e-06
7.36068e-08
2.64364e-06
8.68046e-08
2.63891e-06
7.145e-08
2.63886e-06
8.31296e-08
7.88417e-08
2.6367e-06
2.72635e-06
-1.8767e-06
2.76964e-06
1.03704e-06
2.77066e-06
2.11179e-07
2.73592e-06
-1.4897e-06
2.71576e-06
-8.58093e-07
2.73964e-06
1.30753e-07
2.74915e-06
2.8714e-07
2.75235e-06
-3.27528e-08
2.75523e-06
1.60266e-07
2.74211e-06
1.28895e-07
2.75582e-06
2.28292e-07
2.75327e-06
2.63004e-07
2.75719e-06
1.69655e-07
2.75692e-06
1.43309e-07
2.75443e-06
1.25111e-07
2.74644e-06
8.15934e-08
2.74268e-06
9.05706e-08
2.73757e-06
7.65529e-08
2.7401e-06
8.06061e-08
8.14968e-08
2.73744e-06
2.82972e-06
-1.84096e-06
2.87434e-06
9.9242e-07
2.87561e-06
2.09916e-07
2.84159e-06
-1.45569e-06
2.8217e-06
-8.38199e-07
2.84268e-06
1.09765e-07
2.85268e-06
2.77147e-07
2.85351e-06
-3.35895e-08
2.85927e-06
1.54511e-07
2.84678e-06
1.4138e-07
2.86071e-06
2.14363e-07
2.86079e-06
2.62926e-07
2.86234e-06
1.68107e-07
2.8647e-06
1.40947e-07
2.862e-06
1.27815e-07
2.86011e-06
8.3481e-08
2.86018e-06
9.04972e-08
2.85784e-06
7.89016e-08
2.84583e-06
9.26137e-08
8.51468e-08
2.84218e-06
2.937e-06
-1.80371e-06
2.98288e-06
9.46537e-07
2.98464e-06
2.08162e-07
2.95122e-06
-1.42227e-06
2.93161e-06
-8.18592e-07
2.9495e-06
9.18816e-08
2.96027e-06
2.66378e-07
2.95883e-06
-3.21523e-08
2.96695e-06
1.46393e-07
2.95537e-06
1.52952e-07
2.96897e-06
2.00767e-07
2.9721e-06
2.59792e-07
2.9713e-06
1.68915e-07
2.97574e-06
1.36508e-07
2.97362e-06
1.29934e-07
2.9725e-06
8.45989e-08
2.9673e-06
9.56944e-08
2.95509e-06
9.1111e-08
2.95517e-06
9.25358e-08
8.9113e-08
2.9512e-06
3.04837e-06
-1.76492e-06
3.09545e-06
8.99461e-07
3.09786e-06
2.05747e-07
3.06483e-06
-1.38924e-06
3.0456e-06
-7.99361e-07
3.06034e-06
7.71403e-08
3.07211e-06
2.54603e-07
3.06865e-06
-2.86912e-08
3.07857e-06
1.36473e-07
3.06796e-06
1.63567e-07
3.08102e-06
1.87708e-07
3.08651e-06
2.54302e-07
3.08529e-06
1.70133e-07
3.0895e-06
1.32299e-07
3.08819e-06
1.3124e-07
3.08829e-06
8.44987e-08
3.08737e-06
9.6617e-08
3.08548e-06
9.30036e-08
3.06867e-06
1.09345e-07
9.31515e-08
3.06463e-06
3.16403e-06
-1.72459e-06
3.21221e-06
8.5128e-07
3.2154e-06
2.02556e-07
3.18244e-06
-1.35627e-06
3.16378e-06
-7.80705e-07
3.17549e-06
6.54284e-08
3.18849e-06
2.41609e-07
3.18313e-06
-2.33371e-08
3.19454e-06
1.25064e-07
3.1846e-06
1.73505e-07
3.19745e-06
1.74866e-07
3.20334e-06
2.48404e-07
3.20464e-06
1.68842e-07
3.20673e-06
1.30208e-07
3.20641e-06
1.31561e-07
3.19032e-06
1.00586e-07
3.18317e-06
1.03768e-07
3.17982e-06
9.63492e-08
3.18511e-06
1.04055e-07
9.55376e-08
3.18273e-06
3.28419e-06
-1.68277e-06
3.33338e-06
8.02085e-07
3.33737e-06
1.98566e-07
3.30416e-06
-1.32305e-06
3.28627e-06
-7.62817e-07
3.2953e-06
5.63963e-08
3.30941e-06
2.27499e-07
3.30272e-06
-1.66434e-08
3.31479e-06
1.12988e-07
3.30603e-06
1.82264e-07
3.3177e-06
1.63201e-07
3.32548e-06
2.40622e-07
3.32619e-06
1.68135e-07
3.32265e-06
1.3375e-07
3.31931e-06
1.34894e-07
3.31027e-06
1.09629e-07
3.30419e-06
1.09848e-07
3.30023e-06
1.0031e-07
3.30703e-06
9.72588e-08
9.75912e-08
3.30497e-06
3.40906e-06
-1.63954e-06
3.45916e-06
7.51984e-07
3.46392e-06
1.93805e-07
3.43017e-06
-1.28931e-06
3.41315e-06
-7.45798e-07
3.42009e-06
4.94554e-08
3.43485e-06
2.1274e-07
3.42779e-06
-9.58261e-09
3.43929e-06
1.01484e-07
3.43285e-06
1.88709e-07
3.44176e-06
1.54286e-07
3.45303e-06
2.29353e-07
3.45009e-06
1.71081e-07
3.45528e-06
1.28557e-07
3.4567e-06
1.33474e-07
3.45993e-06
1.06403e-07
3.46061e-06
1.09162e-07
3.45661e-06
1.04318e-07
3.43503e-06
1.18836e-07
1.01161e-07
3.43146e-06
3.53886e-06
-1.59506e-06
3.58974e-06
7.01102e-07
3.59525e-06
1.88298e-07
3.56057e-06
-1.25463e-06
3.54474e-06
-7.29964e-07
3.54982e-06
4.43718e-08
3.5654e-06
1.9716e-07
3.55774e-06
-1.9185e-09
3.56932e-06
8.99044e-08
3.56326e-06
1.94767e-07
3.57242e-06
1.45122e-07
3.58162e-06
2.2015e-07
3.58425e-06
1.68452e-07
3.58087e-06
1.31939e-07
3.57661e-06
1.37735e-07
3.56472e-06
1.1829e-07
3.55894e-06
1.14943e-07
3.55636e-06
1.06898e-07
3.56447e-06
1.10727e-07
1.0224e-07
3.56339e-06
3.6738e-06
-1.54947e-06
3.72534e-06
6.4956e-07
3.73152e-06
1.82119e-07
3.6957e-06
-1.21881e-06
3.68107e-06
-7.15337e-07
3.68493e-06
4.05075e-08
3.70069e-06
1.81398e-07
3.69347e-06
5.30751e-09
3.70385e-06
7.95248e-08
3.69959e-06
1.99025e-07
3.70722e-06
1.37489e-07
3.71408e-06
2.13297e-07
3.71561e-06
1.66914e-07
3.71113e-06
1.36423e-07
3.70889e-06
1.39978e-07
3.69931e-06
1.27867e-07
3.69344e-06
1.20814e-07
3.69061e-06
1.09731e-07
3.70061e-06
1.00719e-07
1.03214e-07
3.69964e-06
3.81406e-06
-1.50294e-06
3.86613e-06
5.97489e-07
3.87291e-06
1.75338e-07
3.83592e-06
-1.18181e-06
3.82226e-06
-7.01679e-07
3.82584e-06
3.69215e-08
3.84032e-06
1.66919e-07
3.83587e-06
9.75684e-09
3.84221e-06
7.31928e-08
3.84304e-06
1.9819e-07
3.84323e-06
1.37297e-07
3.85867e-06
1.97861e-07
3.85064e-06
1.7494e-07
3.85506e-06
1.32011e-07
3.86313e-06
1.31899e-07
3.87327e-06
1.1773e-07
3.87541e-06
1.18674e-07
3.86956e-06
1.15587e-07
3.84438e-06
1.25898e-07
1.07353e-07
3.84024e-06
3.95987e-06
-1.45565e-06
4.01227e-06
5.4509e-07
4.01978e-06
1.67824e-07
3.98124e-06
-1.14326e-06
3.96892e-06
-6.89362e-07
3.97192e-06
3.392e-08
3.98628e-06
1.52559e-07
3.98174e-06
1.43024e-08
3.98893e-06
6.59991e-08
3.98719e-06
1.99932e-07
3.99136e-06
1.33119e-07
3.99684e-06
1.92385e-07
3.99956e-06
1.72216e-07
3.99361e-06
1.3797e-07
3.99322e-06
1.32285e-07
3.98349e-06
1.27463e-07
3.97868e-06
1.23478e-07
3.9779e-06
1.16366e-07
3.98785e-06
1.15947e-07
1.07759e-07
3.98745e-06
4.11139e-06
-1.40776e-06
4.16395e-06
4.92532e-07
4.17221e-06
1.59568e-07
4.13225e-06
-1.10331e-06
4.12091e-06
-6.78019e-07
4.12404e-06
3.07883e-08
4.13716e-06
1.39444e-07
4.13384e-06
1.76204e-08
4.14027e-06
5.95665e-08
4.13838e-06
2.0182e-07
4.14256e-06
1.2894e-07
4.14768e-06
1.8727e-07
4.14834e-06
1.71558e-07
4.1442e-06
1.42102e-07
4.14497e-06
1.31515e-07
4.1338e-06
1.38639e-07
4.12941e-06
1.2787e-07
4.12847e-06
1.17304e-07
4.13999e-06
1.04425e-07
1.08512e-07
4.13924e-06
4.26881e-06
-1.35939e-06
4.32133e-06
4.40008e-07
4.33034e-06
1.5056e-07
4.28937e-06
-1.06233e-06
4.27827e-06
-6.66929e-07
4.28284e-06
2.62212e-08
4.29234e-06
1.29941e-07
4.2933e-06
1.66689e-08
4.29485e-06
5.80095e-08
4.29989e-06
1.96787e-07
4.29223e-06
1.36597e-07
4.30789e-06
1.71612e-07
4.30134e-06
1.781e-07
4.30317e-06
1.40276e-07
4.30744e-06
1.2725e-07
4.33244e-06
1.13636e-07
4.33898e-06
1.21333e-07
4.33176e-06
1.24518e-07
4.30186e-06
1.34332e-07
1.14851e-07
4.29552e-06
4.4324e-06
-1.3107e-06
4.48457e-06
3.87838e-07
4.49468e-06
1.40445e-07
4.45236e-06
-1.02001e-06
4.44189e-06
-6.56457e-07
4.44684e-06
2.12764e-08
4.45576e-06
1.21014e-07
4.45532e-06
1.71112e-08
4.45953e-06
5.38046e-08
4.46053e-06
1.95786e-07
4.45648e-06
1.40646e-07
4.46621e-06
1.6188e-07
4.46583e-06
1.78476e-07
4.46416e-06
1.41956e-07
4.46125e-06
1.30157e-07
4.45528e-06
1.196e-07
4.44967e-06
1.26946e-07
4.44909e-06
1.25098e-07
4.46104e-06
1.22377e-07
1.15765e-07
4.46013e-06
4.60229e-06
-1.26178e-06
4.654e-06
3.3613e-07
4.66509e-06
1.29355e-07
4.62204e-06
-9.76968e-07
4.61139e-06
-6.45806e-07
4.61751e-06
1.51611e-08
4.62506e-06
1.13462e-07
4.62351e-06
1.86682e-08
4.63037e-06
4.69375e-08
4.62811e-06
1.98051e-07
4.62722e-06
1.41529e-07
4.63189e-06
1.57219e-07
4.63655e-06
1.73809e-07
4.63056e-06
1.47944e-07
4.6295e-06
1.31222e-07
4.62481e-06
1.24289e-07
4.62427e-06
1.27491e-07
4.62496e-06
1.24409e-07
4.62896e-06
1.18371e-07
1.14305e-07
4.63042e-06
4.77875e-06
-1.21275e-06
4.82976e-06
2.85119e-07
4.84184e-06
1.17277e-07
4.79863e-06
-9.33758e-07
4.78688e-06
-6.34056e-07
4.79522e-06
6.82025e-09
4.8001e-06
1.0859e-07
4.79955e-06
1.92107e-08
4.80484e-06
4.16462e-08
4.80529e-06
1.97608e-07
4.80114e-06
1.45677e-07
4.80644e-06
1.5192e-07
4.81109e-06
1.69153e-07
4.80641e-06
1.52627e-07
4.80358e-06
1.34058e-07
4.80264e-06
1.25228e-07
4.80551e-06
1.24619e-07
4.80908e-06
1.2084e-07
4.80506e-06
1.22389e-07
1.1285e-07
4.80651e-06
4.96205e-06
-1.16373e-06
5.01209e-06
2.35086e-07
5.0253e-06
1.04066e-07
4.98199e-06
-8.90448e-07
4.96916e-06
-6.21228e-07
4.97906e-06
-3.07803e-09
4.9827e-06
1.04949e-07
4.98143e-06
2.04758e-08
4.98634e-06
3.67392e-08
4.98843e-06
1.95521e-07
4.98276e-06
1.51346e-07
4.98769e-06
1.46987e-07
4.99225e-06
1.64589e-07
4.98924e-06
1.55643e-07
4.98581e-06
1.37483e-07
4.98633e-06
1.24707e-07
4.9856e-06
1.25348e-07
4.9824e-06
1.24048e-07
4.98799e-06
1.16798e-07
1.11529e-07
4.98931e-06
5.15241e-06
-1.11483e-06
5.20135e-06
1.86146e-07
5.21538e-06
9.00345e-08
5.17274e-06
-8.47808e-07
5.15813e-06
-6.06618e-07
5.16964e-06
-1.45835e-08
5.17234e-06
1.02251e-07
5.17022e-06
2.2589e-08
5.17432e-06
3.26458e-08
5.17816e-06
1.9168e-07
5.17166e-06
1.57841e-07
5.17592e-06
1.42736e-07
5.18026e-06
1.60246e-07
5.17915e-06
1.56753e-07
5.17553e-06
1.41101e-07
5.17599e-06
1.24251e-07
5.17771e-06
1.2363e-07
5.18197e-06
1.19788e-07
5.17832e-06
1.20441e-07
1.10769e-07
5.17908e-06
5.35012e-06
-1.06617e-06
5.39776e-06
1.38505e-07
5.41255e-06
7.52423e-08
5.37093e-06
-8.06183e-07
5.35436e-06
-5.90053e-07
5.36701e-06
-2.72255e-08
5.36938e-06
9.98777e-08
5.36611e-06
2.58568e-08
5.36916e-06
2.95958e-08
5.37473e-06
1.86114e-07
5.36833e-06
1.64237e-07
5.37127e-06
1.39794e-07
5.37555e-06
1.55964e-07
5.37622e-06
1.56088e-07
5.37298e-06
1.44338e-07
5.37237e-06
1.24859e-07
5.37234e-06
1.23661e-07
5.37058e-06
1.21547e-07
5.37552e-06
1.15503e-07
1.10002e-07
5.37629e-06
5.55545e-06
-1.01789e-06
5.60164e-06
9.23133e-08
5.61701e-06
5.98765e-08
5.57677e-06
-7.65947e-07
5.55832e-06
-5.71605e-07
5.57137e-06
-4.02722e-08
5.57402e-06
9.72313e-08
5.56944e-06
3.04385e-08
5.57141e-06
2.76252e-08
5.57868e-06
1.7884e-07
5.57283e-06
1.70088e-07
5.57424e-06
1.38382e-07
5.57851e-06
1.5169e-07
5.58047e-06
1.54128e-07
5.57802e-06
1.46797e-07
5.57625e-06
1.26629e-07
5.57748e-06
1.22427e-07
5.57891e-06
1.20114e-07
5.58035e-06
1.14069e-07
1.09227e-07
5.58112e-06
5.76868e-06
-9.70082e-07
5.81329e-06
4.76985e-08
5.82903e-06
4.41419e-08
5.79054e-06
-7.27463e-07
5.77034e-06
-5.514e-07
5.78317e-06
-5.31029e-08
5.78632e-06
9.40764e-08
5.78066e-06
3.61036e-08
5.78152e-06
2.67609e-08
5.79025e-06
1.70116e-07
5.78527e-06
1.75059e-07
5.78527e-06
1.38388e-07
5.78943e-06
1.47533e-07
5.79211e-06
1.5144e-07
5.79078e-06
1.48133e-07
5.78844e-06
1.28969e-07
5.79052e-06
1.20343e-07
5.79348e-06
1.17152e-07
5.79285e-06
1.14705e-07
1.08295e-07
5.79378e-06
5.9901e-06
-9.2288e-07
6.03299e-06
4.80118e-09
6.04899e-06
2.81493e-08
6.01226e-06
-6.9074e-07
5.99094e-06
-5.30076e-07
6.00265e-06
-6.48135e-08
6.00669e-06
9.00351e-08
6.00014e-06
4.26522e-08
5.99997e-06
2.69296e-08
6.00955e-06
1.60541e-07
6.00595e-06
1.78657e-07
6.00461e-06
1.39728e-07
6.00857e-06
1.43571e-07
6.01151e-06
1.48506e-07
6.01156e-06
1.48076e-07
6.00907e-06
1.31465e-07
6.00953e-06
1.19878e-07
6.00811e-06
1.1857e-07
6.01327e-06
1.09545e-07
1.07021e-07
6.01455e-06
6.22001e-06
-8.76394e-07
6.26109e-06
-3.62735e-08
6.27712e-06
1.21213e-08
6.2423e-06
-6.55923e-07
6.22024e-06
-5.08012e-07
6.23054e-06
-7.5115e-08
6.23527e-06
8.53009e-08
6.22837e-06
4.95521e-08
6.22695e-06
2.83522e-08
6.23697e-06
1.50523e-07
6.23507e-06
1.80552e-07
6.23268e-06
1.42126e-07
6.23621e-06
1.40041e-07
6.23911e-06
1.456e-07
6.24044e-06
1.46746e-07
6.23814e-06
1.3377e-07
6.2392e-06
1.18817e-07
6.24286e-06
1.14911e-07
6.24213e-06
1.10273e-07
1.05417e-07
6.24373e-06
6.45874e-06
-8.3073e-07
6.49785e-06
-7.53809e-08
6.51387e-06
-3.90235e-09
6.48083e-06
-6.22883e-07
6.45859e-06
-4.85773e-07
6.46716e-06
-8.36856e-08
6.4725e-06
7.99632e-08
6.46553e-06
5.6523e-08
6.46282e-06
3.1063e-08
6.4729e-06
1.40445e-07
6.47291e-06
1.8054e-07
6.46972e-06
1.45312e-07
6.47262e-06
1.37139e-07
6.4754e-06
1.42826e-07
6.47777e-06
1.44379e-07
6.47615e-06
1.35385e-07
6.4758e-06
1.19172e-07
6.47503e-06
1.1568e-07
6.47949e-06
1.05806e-07
1.0324e-07
6.48167e-06
6.70661e-06
-7.86001e-07
6.74362e-06
-1.12393e-07
6.75957e-06
-1.98545e-08
6.72819e-06
-5.91495e-07
6.70621e-06
-4.638e-07
6.71302e-06
-9.04899e-08
6.71868e-06
7.42966e-08
6.71188e-06
6.33233e-08
6.70801e-06
3.49414e-08
6.71772e-06
1.3073e-07
6.7197e-06
1.78561e-07
6.71603e-06
1.48985e-07
6.7182e-06
1.3497e-07
6.72084e-06
1.40177e-07
6.72384e-06
1.41388e-07
6.72315e-06
1.36076e-07
6.72289e-06
1.19427e-07
6.72568e-06
1.12887e-07
6.72593e-06
1.0556e-07
1.00618e-07
6.72855e-06
6.96395e-06
-7.42301e-07
6.99869e-06
-1.47137e-07
7.01459e-06
-3.57561e-08
6.9848e-06
-5.61701e-07
6.96343e-06
-4.42427e-07
6.96858e-06
-9.56455e-08
6.97417e-06
6.87088e-08
6.96772e-06
6.97713e-08
6.96285e-06
3.98175e-08
6.97181e-06
1.21768e-07
6.97565e-06
1.74723e-07
6.97194e-06
1.52697e-07
6.97325e-06
1.33658e-07
6.97587e-06
1.37553e-07
6.97906e-06
1.38204e-07
6.97946e-06
1.35667e-07
6.97881e-06
1.20086e-07
6.97894e-06
1.12756e-07
6.98186e-06
1.02641e-07
9.77766e-08
6.9847e-06
7.23112e-06
-6.99727e-07
7.26339e-06
-1.79407e-07
7.27932e-06
-5.16878e-08
7.251e-06
-5.33383e-07
7.23061e-06
-4.22039e-07
7.23424e-06
-9.92765e-08
7.23939e-06
6.35644e-08
7.23336e-06
7.57977e-08
7.22773e-06
4.54482e-08
7.23561e-06
1.13889e-07
7.2411e-06
1.69227e-07
7.23784e-06
1.55958e-07
7.2382e-06
1.33297e-07
7.2408e-06
1.34958e-07
7.24388e-06
1.35128e-07
7.24533e-06
1.34212e-07
7.24498e-06
1.20439e-07
7.24667e-06
1.11063e-07
7.24763e-06
1.01676e-07
9.5025e-08
7.25039e-06
7.50846e-06
-6.58359e-07
7.53807e-06
-2.09015e-07
7.55405e-06
-6.7672e-08
7.52721e-06
-5.06537e-07
7.50785e-06
-4.02684e-07
7.51043e-06
-1.01857e-07
7.5147e-06
5.92982e-08
7.50912e-06
8.13759e-08
7.50301e-06
5.1562e-08
7.50957e-06
1.07325e-07
7.51636e-06
1.62436e-07
7.51402e-06
1.58299e-07
7.51338e-06
1.33937e-07
7.51593e-06
1.32411e-07
7.51879e-06
1.32263e-07
7.5211e-06
1.31909e-07
7.52102e-06
1.20518e-07
7.52204e-06
1.10045e-07
7.52357e-06
1.0014e-07
9.25745e-08
7.52602e-06
7.79636e-06
-6.18266e-07
7.8232e-06
-2.35856e-07
7.83922e-06
-8.36852e-08
7.81375e-06
-4.81076e-07
7.79547e-06
-3.84399e-07
7.79743e-06
-1.03818e-07
7.80041e-06
5.63231e-08
7.79533e-06
8.64573e-08
7.78904e-06
5.78471e-08
7.79417e-06
1.02196e-07
7.80179e-06
1.54813e-07
7.80081e-06
1.59279e-07
7.79929e-06
1.35458e-07
7.80164e-06
1.3006e-07
7.80429e-06
1.29619e-07
7.80718e-06
1.29013e-07
7.80757e-06
1.20127e-07
7.8088e-06
1.08816e-07
7.81003e-06
9.89142e-08
9.04329e-08
7.81217e-06
8.0952e-06
-5.79503e-07
8.11935e-06
-2.60006e-07
8.13519e-06
-9.95236e-08
8.111e-06
-4.56889e-07
8.09399e-06
-3.67395e-07
8.09497e-06
-1.04797e-07
8.09675e-06
5.45461e-08
8.09239e-06
9.08208e-08
8.08618e-06
6.40522e-08
8.08992e-06
9.84576e-08
8.09782e-06
1.4691e-07
8.09845e-06
1.58656e-07
8.09632e-06
1.37585e-07
8.09829e-06
1.28089e-07
8.10078e-06
1.27132e-07
8.10403e-06
1.25763e-07
8.105e-06
1.19149e-07
8.10655e-06
1.07268e-07
8.10736e-06
9.81108e-08
8.86291e-08
8.10916e-06
8.40536e-06
-5.42103e-07
8.42699e-06
-2.81637e-07
8.44215e-06
-1.14682e-07
8.41921e-06
-4.33953e-07
8.40327e-06
-3.51454e-07
8.40171e-06
-1.03237e-07
8.40414e-06
5.21211e-08
8.40073e-06
9.42281e-08
8.39477e-06
7.00086e-08
8.39728e-06
9.59523e-08
8.40489e-06
1.39303e-07
8.4072e-06
1.56342e-07
8.40495e-06
1.39837e-07
8.40636e-06
1.26682e-07
8.40869e-06
1.24794e-07
8.41206e-06
1.22396e-07
8.41357e-06
1.17645e-07
8.41491e-06
1.05923e-07
8.41596e-06
9.70607e-08
8.7124e-08
8.41747e-06
8.72728e-06
-5.061e-07
8.74651e-06
-3.00865e-07
8.75977e-06
-1.27947e-07
8.73754e-06
-4.11723e-07
8.71824e-06
-3.32148e-07
8.71905e-06
-1.04046e-07
8.72326e-06
4.79101e-08
8.72083e-06
9.66552e-08
8.71516e-06
7.5677e-08
8.71668e-06
9.44398e-08
8.72356e-06
1.32417e-07
8.7274e-06