/*--------------------------------*- C++ -*----------------------------------*\
| =========                 |                                                 |
| \\      /  F ield         | OpenFOAM: The Open Source CFD Toolbox           |
|  \\    /   O peration     | Version:  v2012                                 |
|   \\  /    A nd           | Website:  www.openfoam.com                      |
|    \\/     M anipulation  |                                                 |
\*---------------------------------------------------------------------------*/
FoamFile
{
    version     2.0;
    format      ascii;
    class       volVectorField;
    location    "2.3";
    object      U;
}
// * * * * * * * * * * * * * * * * * * * * * * * * * * * * * * * * * * * * * //

dimensions      [0 1 -1 0 0 0 0];


internalField   nonuniform List<vector> 
7000
(
(0.716033 -0.0119585 0)
(1.44023 0.0179099 0)
(0.622575 -0.00707315 0)
(1.19955 -0.0213428 0)
(0.928411 -0.00791784 0)
(1.22313 0.00605456 0)
(0.719844 0.0061905 0)
(1.30881 -0.00292352 0)
(0.709881 -0.00441983 0)
(1.32011 0.0053 0)
(0.772888 0.00305893 0)
(1.21836 0.0130418 0)
(0.82865 0.00260456 0)
(1.15403 0.00845179 0)
(0.861035 0.000835256 0)
(1.13268 0.0029015 0)
(0.873383 -0.00140594 0)
(1.12857 -0.00010422 0)
(0.878488 -0.00195485 0)
(1.12467 -0.00213133 0)
(0.727967 -0.0128516 0)
(1.43113 0.0182982 0)
(0.699057 -0.00605264 0)
(1.18686 -0.0229695 0)
(0.938549 -0.00844014 0)
(1.21776 0.00783876 0)
(0.743422 0.00502025 0)
(1.29338 -0.00229552 0)
(0.739212 -0.00526427 0)
(1.30025 0.00507011 0)
(0.809102 0.00378565 0)
(1.1904 0.0128037 0)
(0.878133 0.00326265 0)
(1.11741 0.00827852 0)
(0.921024 0.00106794 0)
(1.08299 0.00274972 0)
(0.945772 -0.00127428 0)
(1.06168 -0.000413714 0)
(0.965605 -0.00137621 0)
(1.03806 -0.00267482 0)
(0.748422 -0.0137192 0)
(1.41161 0.0188636 0)
(0.791191 -0.00511018 0)
(1.16078 -0.0238882 0)
(0.956373 -0.00883629 0)
(1.20516 0.00960802 0)
(0.792643 0.00393374 0)
(1.26454 -0.00171995 0)
(0.798446 -0.00594301 0)
(1.25819 0.00487865 0)
(0.877618 0.00486219 0)
(1.13957 0.0122502 0)
(0.94762 0.00420003 0)
(1.06792 0.00769178 0)
(0.984086 0.00169961 0)
(1.03552 0.0021808 0)
(1.00077 -0.00061849 0)
(1.01821 -0.00121556 0)
(1.00889 -0.000328962 0)
(1.0052 -0.00291989 0)
(0.775858 -0.0145216 0)
(1.38173 0.0190175 0)
(0.879048 -0.00408701 0)
(1.12375 -0.024446 0)
(0.978864 -0.00929544 0)
(1.18533 0.0109054 0)
(0.860341 0.00319541 0)
(1.22388 -0.0014283 0)
(0.873939 -0.0062035 0)
(1.2009 0.0043926 0)
(0.952744 0.00613117 0)
(1.08888 0.0115116 0)
(1.00294 0.00515873 0)
(1.03524 0.00710947 0)
(1.01952 0.00238187 0)
(1.01566 0.00173538 0)
(1.02202 -5.17706e-06 0)
(1.00662 -0.0016781 0)
(1.01971 0.000436486 0)
(1.00092 -0.00281454 0)
(0.808401 -0.0153084 0)
(1.34258 0.0187049 0)
(0.953132 -0.00291738 0)
(1.08237 -0.0247483 0)
(1.00161 -0.00986565 0)
(1.16099 0.0117729 0)
(0.93341 0.00275783 0)
(1.17778 -0.00134525 0)
(0.945264 -0.00609679 0)
(1.14311 0.00366928 0)
(1.01101 0.00738321 0)
(1.05769 0.0109677 0)
(1.03404 0.00591183 0)
(1.02662 0.00684009 0)
(1.03307 0.00291262 0)
(1.0162 0.00153325 0)
(1.02674 0.000543775 0)
(1.00964 -0.00190879 0)
(1.0197 0.00107357 0)
(1.00509 -0.00258559 0)
(0.843442 -0.0160699 0)
(1.29627 0.0181215 0)
(1.00806 -0.00164279 0)
(1.04429 -0.0248545 0)
(1.01977 -0.0105254 0)
(1.13663 0.0122128 0)
(0.998164 0.00261705 0)
(1.13486 -0.00132 0)
(0.997325 -0.00575762 0)
(1.0973 0.00297584 0)
(1.04418 0.00835544 0)
(1.04791 0.0107598 0)
(1.0474 0.00642082 0)
(1.03182 0.00682764 0)
(1.0375 0.00336844 0)
(1.02322 0.00148229 0)
(1.02741 0.00110992 0)
(1.01488 -0.00200642 0)
(1.01823 0.00168381 0)
(1.00894 -0.00230728 0)
(0.87805 -0.0167732 0)
(1.24571 0.0174247 0)
(1.04247 -0.000347855 0)
(1.01548 -0.0248141 0)
(1.02995 -0.0112542 0)
(1.11614 0.0122402 0)
(1.04574 0.00272881 0)
(1.10111 -0.00122108 0)
(1.02611 -0.00531963 0)
(1.06687 0.0024391 0)
(1.05617 0.00890604 0)
(1.04932 0.0107529 0)
(1.05157 0.00678262 0)
(1.03904 0.00691878 0)
(1.03921 0.0038567 0)
(1.02848 0.00150906 0)
(1.02768 0.00174671 0)
(1.01755 -0.00199858 0)
(1.0171 0.0023004 0)
(1.01007 -0.00195287 0)
(0.9096 -0.0173876 0)
(1.19404 0.0167001 0)
(1.05857 0.000867521 0)
(0.9984 -0.0246662 0)
(1.03151 -0.0120367 0)
(1.10043 0.0119275 0)
(1.07367 0.0030193 0)
(1.07739 -0.000974633 0)
(1.03602 -0.00485728 0)
(1.0476 0.00203922 0)
(1.05482 0.00907077 0)
(1.05124 0.0107697 0)
(1.05089 0.00710028 0)
(1.04203 0.00702217 0)
(1.03909 0.0044129 0)
(1.02946 0.0015763 0)
(1.02711 0.00244847 0)
(1.01716 -0.00188695 0)
(1.01553 0.00292109 0)
(1.00891 -0.00150689 0)
(0.936277 -0.0178905 0)
(1.1443 0.0160142 0)
(1.06079 0.00191355 0)
(0.991763 -0.0244437 0)
(1.02649 -0.0128318 0)
(1.08741 0.0113789 0)
(1.08409 0.00341974 0)
(1.06084 -0.000579656 0)
(1.03432 -0.00438643 0)
(1.03351 0.00171917 0)
(1.0465 0.00898264 0)
(1.04829 0.0107152 0)
(1.04642 0.00742099 0)
(1.03945 0.00709424 0)
(1.03647 0.00501453 0)
(1.02666 0.0016645 0)
(1.02481 0.00316097 0)
(1.01479 -0.00168427 0)
(1.01295 0.00351354 0)
(1.00664 -0.000987533 0)
(0.957263 -0.0182673 0)
(1.09919 0.0154194 0)
(1.05438 0.00272873 0)
(0.992108 -0.0241769 0)
(1.01823 -0.0135731 0)
(1.07413 0.0107 0)
(1.08122 0.00387456 0)
(1.04792 -9.37156e-05 0)
(1.02721 -0.00389477 0)
(1.02102 0.00144719 0)
(1.0349 0.00877285 0)
(1.03999 0.01057 0)
(1.03861 0.00774096 0)
(1.03256 0.0071081 0)
(1.03129 0.00561034 0)
(1.02164 0.00174902 0)
(1.0208 0.00381809 0)
(1.01164 -0.00141445 0)
(1.00957 0.00404445 0)
(1.0042 -0.000427002 0)
(0.972627 -0.0185132 0)
(1.06087 0.0149379 0)
(1.04415 0.00328879 0)
(0.99574 -0.0238933 0)
(1.00968 -0.0141973 0)
(1.05902 0.0099855 0)
(1.06981 0.00433178 0)
(1.03644 0.000402508 0)
(1.01857 -0.00337343 0)
(1.00941 0.0012217 0)
(1.02212 0.00853155 0)
(1.02837 0.0103481 0)
(1.02859 0.00803288 0)
(1.02347 0.0070465 0)
(1.02444 0.00613926 0)
(1.01591 0.00181141 0)
(1.01586 0.0043647 0)
(1.00851 -0.00110807 0)
(1.00602 0.00448581 0)
(1.00204 0.000153972 0)
(0.983061 -0.0186353 0)
(1.03069 0.0145621 0)
(1.03367 0.00360573 0)
(0.999978 -0.023614 0)
(1.00251 -0.0146617 0)
(1.04262 0.00930945 0)
(1.05428 0.0047489 0)
(1.02584 0.000837325 0)
(1.01035 -0.0028272 0)
(0.999366 0.00105352 0)
(1.0098 0.00831245 0)
(1.01603 0.0100691 0)
(1.01808 0.00826896 0)
(1.01423 0.00690024 0)
(1.01722 0.00655517 0)
(1.01056 0.00184141 0)
(1.01092 0.0047709 0)
(1.00574 -0.000797295 0)
(1.00288 0.00482871 0)
(1.0003 0.000723689 0)
(0.989576 -0.0186507 0)
(1.00893 0.0142682 0)
(1.02496 0.00372185 0)
(1.00343 -0.0233478 0)
(0.997153 -0.0149525 0)
(1.02672 0.0087135 0)
(1.03824 0.00510746 0)
(1.01651 0.00116899 0)
(1.00337 -0.00227329 0)
(0.991663 0.000946422 0)
(0.999244 0.00814447 0)
(1.00505 0.00974556 0)
(1.00865 0.00843556 0)
(1.00626 0.00667187 0)
(1.01073 0.00683697 0)
(1.00616 0.00183809 0)
(1.00665 0.00503379 0)
(1.00343 -0.000498448 0)
(1.00043 0.00508223 0)
(0.998928 0.00125233 0)
(0.993242 -0.0185822 0)
(0.994762 0.0140287 0)
(1.0187 0.00369223 0)
(1.00566 -0.0230926 0)
(0.993272 -0.0150832 0)
(1.01307 0.00821055 0)
(1.02412 0.00539967 0)
(1.00897 0.00138688 0)
(0.997868 -0.00173022 0)
(0.986528 0.000892883 0)
(0.991274 0.00803637 0)
(0.9966 0.00938971 0)
(1.00127 0.00853213 0)
(1.00023 0.0063779 0)
(1.00556 0.00698819 0)
(1.00284 0.00181437 0)
(1.00331 0.00517522 0)
(1.00152 -0.00021223 0)
(0.998642 0.00525954 0)
(0.997783 0.00173991 0)
(0.995014 -0.0184535 0)
(0.986653 0.0138186 0)
(1.0147 0.00356929 0)
(1.00678 -0.0228397 0)
(0.990346 -0.0150822 0)
(1.00248 0.00779094 0)
(1.01308 0.00562912 0)
(1.00349 0.00150088 0)
(0.993819 -0.00120988 0)
(0.983676 0.000877312 0)
(0.986055 0.00798276 0)
(0.990909 0.00901611 0)
(0.996156 0.00856462 0)
(0.996129 0.0060494 0)
(1.00177 0.00702658 0)
(1.00045 0.00178831 0)
(1.00086 0.00522382 0)
(0.9999 6.25734e-05 0)
(0.997351 0.00537776 0)
(0.996757 0.00218995 0)
(0.995648 -0.0182852 0)
(0.982825 0.0136193 0)
(1.0124 0.00339635 0)
(1.00706 -0.0225786 0)
(0.987964 -0.0149817 0)
(0.994848 0.00743232 0)
(1.00519 0.00580551 0)
(0.999961 0.00153045 0)
(0.991105 -0.00071718 0)
(0.982569 0.000880043 0)
(0.983254 0.00797338 0)
(0.987629 0.00863879 0)
(0.993038 0.0085432 0)
(0.993604 0.00572344 0)
(0.999166 0.00697014 0)
(0.998736 0.0017725 0)
(0.999098 0.00520466 0)
(0.998487 0.000332053 0)
(0.996364 0.00545268 0)
(0.995795 0.00260918 0)
(0.995685 -0.0180931 0)
(0.981701 0.0134182 0)
(1.0112 0.00320441 0)
(1.00679 -0.0223009 0)
(0.98591 -0.0148102 0)
(0.989533 0.00710949 0)
(1 0.00593618 0)
(0.998077 0.00149633 0)
(0.98958 -0.000249178 0)
(0.982657 0.000886815 0)
(0.982301 0.00799434 0)
(0.986176 0.00827463 0)
(0.991438 0.00847707 0)
(0.992201 0.00542956 0)
(0.997452 0.00684076 0)
(0.997486 0.00177916 0)
(0.997828 0.0051436 0)
(0.997258 0.000605744 0)
(0.995553 0.00549903 0)
(0.994903 0.00300384 0)
(0.995486 -0.0178883 0)
(0.982099 0.0132078 0)
(1.01066 0.003014 0)
(1.00617 -0.0220019 0)
(0.984126 -0.0145896 0)
(0.98585 0.00680019 0)
(0.996867 0.00602456 0)
(0.997459 0.00141496 0)
(0.989092 0.000198257 0)
(0.983506 0.000892161 0)
(0.982616 0.00802885 0)
(0.98598 0.00794185 0)
(0.990908 0.00837478 0)
(0.99155 0.0051891 0)
(0.996392 0.006663 0)
(0.996572 0.00181458 0)
(0.996898 0.00505912 0)
(0.996231 0.000881708 0)
(0.994858 0.00552714 0)
(0.994122 0.00338252 0)
(0.995269 -0.0176778 0)
(0.983219 0.012984 0)
(1.01045 0.00283796 0)
(1.00533 -0.0216804 0)
(0.982627 -0.0143361 0)
(0.983302 0.0064876 0)
(0.995216 0.00607111 0)
(0.997745 0.00129782 0)
(0.989471 0.000628996 0)
(0.984817 0.000898202 0)
(0.983719 0.00806239 0)
(0.98657 0.00765385 0)
(0.99109 0.00824345 0)
(0.9914 0.0050153 0)
(0.995815 0.00645619 0)
(0.995937 0.00187785 0)
(0.99621 0.00496795 0)
(0.995434 0.00115777 0)
(0.994269 0.00553576 0)
(0.993496 0.00374642 0)
(0.995144 -0.0174654 0)
(0.984543 0.0127454 0)
(1.0104 0.00268345 0)
(1.00438 -0.0213371 0)
(0.981444 -0.0140616 0)
(0.981596 0.0061596 0)
(0.994606 0.00607578 0)
(0.998607 0.00115233 0)
(0.990507 0.00104822 0)
(0.986382 0.000910393 0)
(0.985248 0.00808506 0)
(0.987581 0.00742281 0)
(0.991704 0.00808037 0)
(0.991579 0.00490852 0)
(0.995582 0.00623525 0)
(0.995547 0.00197055 0)
(0.995698 0.0048841 0)
(0.994865 0.00144143 0)
(0.993787 0.00552825 0)
(0.993038 0.0040889 0)
(0.995136 -0.0172523 0)
(0.98576 0.0124917 0)
(1.01039 0.00255349 0)
(1.00342 -0.0209739 0)
(0.980589 -0.0137748 0)
(0.980561 0.00580823 0)
(0.994682 0.00604036 0)
(0.99974 0.000980928 0)
(0.991948 0.00145657 0)
(0.988043 0.000940984 0)
(0.986935 0.00808344 0)
(0.988739 0.00726006 0)
(0.992514 0.00788741 0)
(0.991958 0.00486623 0)
(0.995566 0.00601009 0)
(0.995361 0.00208998 0)
(0.995312 0.00480997 0)
(0.994485 0.00173446 0)
(0.993406 0.00552788 0)
(0.992726 0.00441604 0)
(0.99522 -0.0170382 0)
(0.986723 0.0122231 0)
(1.01037 0.0024479 0)
(1.00254 -0.020593 0)
(0.980055 -0.0134824 0)
(0.980064 0.00543008 0)
(0.995138 0.00596885 0)
(1.00087 0.000788423 0)
(0.993524 0.00184859 0)
(0.989669 0.00100464 0)
(0.988597 0.00804713 0)
(0.989874 0.00716586 0)
(0.99334 0.00767527 0)
(0.992442 0.00488195 0)
(0.995651 0.00579337 0)
(0.995325 0.00222869 0)
(0.995013 0.00475022 0)
(0.994239 0.00202315 0)
(0.993114 0.00553751 0)
(0.992518 0.00473186 0)
(0.995346 -0.0168216 0)
(0.987414 0.01194 0)
(1.01033 0.00236455 0)
(1.0018 -0.0201974 0)
(0.979823 -0.0131896 0)
(0.97998 0.00502584 0)
(0.995721 0.00586593 0)
(1.00179 0.00058311 0)
(0.994992 0.00222058 0)
(0.99115 0.00110777 0)
(0.990125 0.00797556 0)
(0.990913 0.00714056 0)
(0.994079 0.0074427 0)
(0.992978 0.00493886 0)
(0.995763 0.00559843 0)
(0.995391 0.00237682 0)
(0.99478 0.00471813 0)
(0.994074 0.00230904 0)
(0.992896 0.00553905 0)
(0.992372 0.00502366 0)
(0.995475 -0.0166007 0)
(0.987898 0.0116418 0)
(1.01024 0.00230076 0)
(1.00125 -0.019791 0)
(0.97987 -0.0128987 0)
(0.980201 0.00459892 0)
(0.996241 0.00573935 0)
(1.00236 0.000370109 0)
(0.996168 0.0025645 0)
(0.992412 0.00125508 0)
(0.99147 0.00786328 0)
(0.991866 0.0071772 0)
(0.994713 0.00719522 0)
(0.99356 0.00502637 0)
(0.995881 0.00543743 0)
(0.995536 0.00251081 0)
(0.994613 0.00470795 0)
(0.993956 0.00260929 0)
(0.992738 0.00553259 0)
(0.992263 0.00528163 0)
(0.995591 -0.0163742 0)
(0.988254 0.0113281 0)
(1.01009 0.00225316 0)
(1.00088 -0.019377 0)
(0.980174 -0.0126116 0)
(0.980635 0.00415753 0)
(0.996587 0.00559836 0)
(1.00254 0.000154472 0)
(0.996956 0.0028669 0)
(0.993418 0.00145716 0)
(0.992625 0.00770581 0)
(0.992783 0.00726228 0)
(0.995286 0.00693608 0)
(0.994214 0.00513208 0)
(0.996025 0.00532923 0)
(0.995762 0.00263774 0)
(0.994529 0.00470948 0)
(0.993883 0.00292715 0)
(0.992636 0.00552631 0)
(0.992186 0.0055008 0)
(0.995693 -0.0161409 0)
(0.988535 0.0109991 0)
(1.00988 0.00221844 0)
(1.00067 -0.0189586 0)
(0.980712 -0.0123293 0)
(0.981209 0.00370871 0)
(0.99671 0.00545073 0)
(1.00235 -5.04261e-05 0)
(0.99733 0.00310842 0)
(0.994174 0.00170926 0)
(0.993607 0.00750744 0)
(0.993704 0.00739334 0)
(0.995854 0.00667577 0)
(0.994963 0.00522999 0)
(0.996232 0.00527616 0)
(0.996078 0.00278127 0)
(0.994549 0.00472816 0)
(0.993872 0.00327087 0)
(0.992595 0.00554864 0)
(0.99215 0.0056911 0)
(0.995782 -0.0159 0)
(0.988757 0.0106548 0)
(1.00958 0.00219462 0)
(1.00062 -0.0185412 0)
(0.981452 -0.0120489 0)
(0.981859 0.00326319 0)
(0.996611 0.00529302 0)
(1.00184 -0.000229644 0)
(0.997323 0.00328984 0)
(0.994703 0.00198114 0)
(0.994433 0.00726375 0)
(0.994638 0.00755228 0)
(0.996451 0.00643636 0)
(0.995803 0.0053188 0)
(0.996531 0.00526957 0)
(0.99649 0.00294882 0)
(0.994689 0.00474271 0)
(0.993947 0.00361686 0)
(0.992624 0.00561583 0)
(0.992173 0.00587495 0)
(0.99586 -0.015651 0)
(0.988919 0.0102973 0)
(1.0092 0.0021776 0)
(1.0007 -0.0181215 0)
(0.982359 -0.0117857 0)
(0.982533 0.00284649 0)
(0.996323 0.00513747 0)
(1.00112 -0.000397286 0)
(0.996998 0.00341577 0)
(0.99504 0.00228658 0)
(0.995119 0.00696717 0)
(0.995557 0.00770713 0)
(0.997071 0.00621254 0)
(0.996693 0.00540581 0)
(0.996919 0.00529268 0)
(0.996979 0.00317223 0)
(0.994947 0.00475185 0)
(0.994123 0.00393864 0)
(0.99274 0.00570095 0)
(0.992271 0.0060559 0)
(0.995923 -0.0153919 0)
(0.989021 0.00992319 0)
(1.00875 0.00216922 0)
(1.00091 -0.0177182 0)
(0.98338 -0.0115028 0)
(0.983187 0.00241711 0)
(0.99589 0.00500713 0)
(1.00028 -0.000521475 0)
(0.996446 0.00344569 0)
(0.995213 0.00261114 0)
(0.995664 0.00664438 0)
(0.996406 0.00784469 0)
(0.997675 0.00600899 0)
(0.997566 0.00547993 0)
(0.997372 0.00532703 0)
(0.997507 0.00347945 0)
(0.995302 0.00479252 0)
(0.99439 0.00430542 0)
(0.992946 0.00577273 0)
(0.992453 0.00621424 0)
(0.995973 -0.0151242 0)
(0.989065 0.00954149 0)
(1.00826 0.00215469 0)
(1.00121 -0.017307 0)
(0.984454 -0.01126 0)
(0.983793 0.00207769 0)
(0.995371 0.00480891 0)
(0.999427 -0.000573473 0)
(0.995759 0.00340178 0)
(0.995251 0.00293017 0)
(0.99607 0.00625576 0)
(0.997123 0.00799669 0)
(0.99821 0.00578793 0)
(0.998347 0.00556646 0)
(0.997847 0.00533352 0)
(0.998026 0.00384967 0)
(0.995727 0.00489114 0)
(0.994721 0.00476634 0)
(0.993229 0.00585662 0)
(0.992726 0.00635273 0)
(0.996016 -0.0148425 0)
(0.98906 0.00914109 0)
(1.00775 0.00215151 0)
(1.00159 -0.0169282 0)
(0.985519 -0.0109823 0)
(0.984332 0.00172887 0)
(0.994819 0.00467494 0)
(0.998642 -0.000644473 0)
(0.995036 0.00332921 0)
(0.995173 0.0032413 0)
(0.996343 0.00586506 0)
(0.997659 0.00803723 0)
(0.998626 0.00573775 0)
(0.998979 0.0054831 0)
(0.998295 0.00548137 0)
(0.998497 0.00400153 0)
(0.996198 0.00509216 0)
(0.995095 0.00505549 0)
(0.993582 0.00608871 0)
(0.993088 0.00656598 0)
(0.996063 -0.0145528 0)
(0.989018 0.00873516 0)
(1.00724 0.00213076 0)
(1.002 -0.0165306 0)
(0.986515 -0.0107321 0)
(0.984797 0.00144849 0)
(0.99429 0.00450702 0)
(0.997967 -0.000625314 0)
(0.994364 0.00312528 0)
(0.995015 0.00357535 0)
(0.99649 0.00549135 0)
(0.998 0.00794925 0)
(0.998889 0.00574429 0)
(0.999424 0.00535892 0)
(0.998663 0.00560407 0)
(0.998869 0.00414309 0)
(0.996666 0.00512117 0)
(0.99547 0.00535008 0)
(0.993988 0.00659456 0)
(0.993466 0.00695479 0)
(0.996125 -0.0142525 0)
(0.988952 0.00832551 0)
(1.00673 0.00210505 0)
(1.00239 -0.0161329 0)
(0.987407 -0.0105141 0)
(0.985194 0.00126043 0)
(0.993823 0.00425959 0)
(0.997431 -0.000533114 0)
(0.993812 0.00294698 0)
(0.994805 0.00376108 0)
(0.996539 0.00522543 0)
(0.998142 0.00774856 0)
(0.999012 0.00584011 0)
(0.999673 0.00511326 0)
(0.998943 0.00578641 0)
(0.99911 0.00419151 0)
(0.997106 0.00524292 0)
(0.995894 0.00549451 0)
(0.994421 0.00713252 0)
(0.993845 0.0073937 0)
(0.996207 -0.013924 0)
(0.988884 0.00786759 0)
(1.00625 0.00210376 0)
(1.00273 -0.0158107 0)
(0.988168 -0.0101796 0)
(0.985537 0.000955261 0)
(0.993457 0.00416523 0)
(0.99703 -0.000547091 0)
(0.99341 0.0028742 0)
(0.994579 0.00391716 0)
(0.996539 0.00493581 0)
(0.998125 0.00756043 0)
(0.998994 0.00594337 0)
(0.999754 0.00496551 0)
(0.999115 0.00589163 0)
(0.999235 0.00442672 0)
(0.997469 0.00561058 0)
(0.996259 0.0057785 0)
(0.994875 0.00738308 0)
(0.994176 0.0076383 0)
(0.996309 -0.0136083 0)
(0.988834 0.00745281 0)
(1.00579 0.00202889 0)
(1.00298 -0.0153662 0)
(0.988809 -0.0100286 0)
(0.985842 0.000921224 0)
(0.993201 0.00385009 0)
(0.996741 -0.000369964 0)
(0.993191 0.0024146 0)
(0.994344 0.00436876 0)
(0.996525 0.00439654 0)
(0.997994 0.00751901 0)
(0.9989 0.00566509 0)
(0.999689 0.00523294 0)
(0.999231 0.00560095 0)
(0.999289 0.00520751 0)
(0.997776 0.00574004 0)
(0.996552 0.00651306 0)
(0.995238 0.0073478 0)
(0.994509 0.00762768 0)
(0.99642 -0.0132708 0)
(0.98883 0.00701838 0)
(1.00534 0.00199306 0)
(1.00315 -0.0149961 0)
(0.98934 -0.0097913 0)
(0.98613 0.000807106 0)
(0.993054 0.00358303 0)
(0.996542 -0.000183289 0)
(0.993132 0.00215584 0)
(0.994142 0.00445119 0)
(0.99652 0.0042446 0)
(0.997807 0.0071278 0)
(0.998754 0.00574637 0)
(0.999545 0.00507461 0)
(0.999308 0.00583185 0)
(0.999299 0.00531264 0)
(0.998033 0.0060886 0)
(0.996823 0.00638909 0)
(0.995527 0.00758916 0)
(0.994858 0.0079454 0)
(0.996534 -0.0128983 0)
(0.988895 0.00650961 0)
(1.00492 0.00197383 0)
(1.00322 -0.0146634 0)
(0.989779 -0.00950203 0)
(0.986424 0.000582971 0)
(0.992992 0.00348893 0)
(0.996429 -0.000169614 0)
(0.993192 0.00224722 0)
(0.993988 0.00436454 0)
(0.996537 0.00418619 0)
(0.997626 0.00666301 0)
(0.998578 0.00595085 0)
(0.999396 0.0048807 0)
(0.999317 0.00613525 0)
(0.99927 0.00540934 0)
(0.99816 0.00646666 0)
(0.997006 0.00636168 0)
(0.995884 0.00784647 0)
(0.995103 0.00825106 0)
(0.996647 -0.0125596 0)
(0.989029 0.0060868 0)
(1.00453 0.00187172 0)
(1.00321 -0.0141801 0)
(0.990169 -0.00939177 0)
(0.986722 0.000656318 0)
(0.993004 0.00307129 0)
(0.996354 6.41898e-05 0)
(0.99336 0.00162349 0)
(0.993867 0.00484106 0)
(0.996594 0.0036494 0)
(0.997478 0.00670912 0)
(0.998423 0.0056326 0)
(0.999232 0.00521344 0)
(0.999347 0.00576711 0)
(0.999226 0.00621071 0)
(0.998274 0.00637021 0)
(0.99716 0.00721586 0)
(0.996117 0.00768601 0)
(0.995342 0.00808258 0)
(0.996753 -0.0121987 0)
(0.989235 0.00564837 0)
(1.00415 0.00179781 0)
(1.00313 -0.013741 0)
(0.990528 -0.0092476 0)
(0.987037 0.000647484 0)
(0.993046 0.00280406 0)
(0.996293 0.000187222 0)
(0.993617 0.00148892 0)
(0.993803 0.0048128 0)
(0.996673 0.00363501 0)
(0.997391 0.00627021 0)
(0.998279 0.00581938 0)
(0.999086 0.00509477 0)
(0.999405 0.00592255 0)
(0.99921 0.0060902 0)
(0.998391 0.00665848 0)
(0.997317 0.00703735 0)
(0.996231 0.00796172 0)
(0.995589 0.00840506 0)
(0.996852 -0.0117778 0)
(0.989504 0.00506691 0)
(1.00378 0.00181324 0)
(1.00302 -0.0134676 0)
(0.990862 -0.00888098 0)
(0.987383 0.000349406 0)
(0.993104 0.00279592 0)
(0.996278 0.000115299 0)
(0.993871 0.00179126 0)
(0.993786 0.00442879 0)
(0.996754 0.00386644 0)
(0.997383 0.00570154 0)
(0.998166 0.00612534 0)
(0.998991 0.00499113 0)
(0.999413 0.006028 0)
(0.999217 0.00587621 0)
(0.998437 0.00699928 0)
(0.997445 0.00689171 0)
(0.996521 0.00823012 0)
(0.995739 0.00872805 0)
(0.996957 -0.0114571 0)
(0.989805 0.00471686 0)
(1.00343 0.0016146 0)
(1.00287 -0.0128224 0)
(0.991213 -0.00895333 0)
(0.987727 0.000580739 0)
(0.993178 0.00230047 0)
(0.996249 0.000398267 0)
(0.994151 0.00111417 0)
(0.993799 0.00497298 0)
(0.996863 0.00332186 0)
(0.997412 0.00596001 0)
(0.998106 0.00565657 0)
(0.99888 0.00565054 0)
(0.999458 0.00533387 0)
(0.999277 0.00666888 0)
(0.99853 0.00688635 0)
(0.997561 0.00790119 0)
(0.996683 0.00800212 0)
(0.995912 0.00845447 0)
(0.99706 -0.0110412 0)
(0.990128 0.0041958 0)
(1.00308 0.00158885 0)
(1.0027 -0.0124337 0)
(0.991573 -0.00873373 0)
(0.988091 0.000454559 0)
(0.993236 0.00217854 0)
(0.996212 0.000350425 0)
(0.994458 0.00116713 0)
(0.993841 0.00485644 0)
(0.996944 0.00345522 0)
(0.997495 0.00545392 0)
(0.998081 0.00597599 0)
(0.998782 0.00548853 0)
(0.999538 0.00560143 0)
(0.999412 0.0062436 0)
(0.998673 0.00692932 0)
(0.997683 0.00765571 0)
(0.996683 0.00837499 0)
(0.996085 0.00884398 0)
(0.997158 -0.010631 0)
(0.990482 0.00365978 0)
(1.00273 0.00152255 0)
(1.00254 -0.0120361 0)
(0.991921 -0.0084747 0)
(0.988471 0.000208034 0)
(0.993284 0.00221797 0)
(0.996216 0.00018819 0)
(0.994712 0.00144251 0)
(0.993929 0.0044018 0)
(0.996998 0.0039256 0)
(0.997646 0.00480828 0)
(0.998068 0.00635055 0)
(0.99873 0.00522744 0)
(0.999539 0.00592407 0)
(0.999479 0.00555379 0)
(0.99881 0.00690893 0)
(0.997904 0.00723552 0)
(0.997009 0.00891666 0)
(0.996179 0.00941633 0)
(0.997275 -0.0103091 0)
(0.990818 0.00333429 0)
(1.00241 0.00130973 0)
(1.00234 -0.0113549 0)
(0.992295 -0.00857683 0)
(0.988852 0.000415862 0)
(0.993325 0.00182681 0)
(0.996196 0.00041168 0)
(0.994976 0.000968149 0)
(0.994046 0.00473323 0)
(0.997051 0.00375312 0)
(0.997787 0.00484225 0)
(0.998109 0.00597879 0)
(0.998668 0.00573807 0)
(0.999544 0.00559203 0)
(0.999592 0.00593266 0)
(0.999018 0.00684236 0)
(0.998199 0.00778568 0)
(0.997274 0.00884623 0)
(0.996269 0.00926217 0)
(0.997395 -0.00984138 0)
(0.991152 0.00273997 0)
(1.00209 0.00130453 0)
(1.00215 -0.0110226 0)
(0.992675 -0.00823168 0)
(0.989222 0.000115822 0)
(0.993366 0.00184279 0)
(0.996174 0.000351214 0)
(0.995248 0.000867922 0)
(0.994181 0.00481048 0)
(0.997067 0.0037899 0)
(0.997941 0.00466018 0)
(0.998197 0.00588544 0)
(0.998624 0.00590135 0)
(0.999556 0.00567977 0)
(0.999731 0.00604438 0)
(0.99925 0.00697315 0)
(0.998455 0.00787627 0)
(0.997447 0.00861962 0)
(0.996357 0.00902154 0)
(0.997517 -0.00949713 0)
(0.991485 0.00233719 0)
(1.00179 0.00111191 0)
(1.00196 -0.0104354 0)
(0.993042 -0.00817046 0)
(0.989614 2.22688e-05 0)
(0.993405 0.00181666 0)
(0.996148 0.000319402 0)
(0.995517 0.000856291 0)
(0.994338 0.00469618 0)
(0.997069 0.00394344 0)
(0.998094 0.00454211 0)
(0.998302 0.00571032 0)
(0.998609 0.00598059 0)
(0.999563 0.00584605 0)
(0.999882 0.00604762 0)
(0.999481 0.00703438 0)
(0.998669 0.007783 0)
(0.997629 0.00848964 0)
(0.996463 0.00892895 0)
(0.99764 -0.00909698 0)
(0.99182 0.00190649 0)
(1.00148 0.000979821 0)
(1.00175 -0.00995763 0)
(0.993414 -0.00798231 0)
(0.990006 -9.22302e-05 0)
(0.993438 0.00167733 0)
(0.996134 0.000415293 0)
(0.995776 0.000728008 0)
(0.994516 0.00456683 0)
(0.99707 0.00417323 0)
(0.998218 0.00437193 0)
(0.998437 0.00550726 0)
(0.998638 0.00607567 0)
(0.999564 0.0060489 0)
(1.00002 0.00607453 0)
(0.999709 0.00700103 0)
(0.998892 0.00769954 0)
(0.997824 0.00842606 0)
(0.996575 0.00887416 0)
(0.997762 -0.00869045 0)
(0.992153 0.00143319 0)
(1.0012 0.000831687 0)
(1.00156 -0.0094733 0)
(0.993769 -0.00774757 0)
(0.990401 -0.000351787 0)
(0.993491 0.001707 0)
(0.996107 0.000460519 0)
(0.996029 0.000597308 0)
(0.994739 0.00451671 0)
(0.997052 0.00437855 0)
(0.998319 0.00420263 0)
(0.998602 0.00539406 0)
(0.998707 0.00609117 0)
(0.999556 0.00624694 0)
(1.00013 0.00607826 0)
(0.999932 0.00692048 0)
(0.999122 0.00761622 0)
(0.998037 0.00836075 0)
(0.99668 0.00882986 0)
(0.997885 -0.00832928 0)
(0.992488 0.00103949 0)
(1.00093 0.000690884 0)
(1.00135 -0.00899938 0)
(0.994115 -0.00756415 0)
(0.990808 -0.000474523 0)
(0.993545 0.00165624 0)
(0.996077 0.000498417 0)
(0.996291 0.000579737 0)
(0.994981 0.00439146 0)
(0.997026 0.00448088 0)
(0.998402 0.00415684 0)
(0.998782 0.00526051 0)
(0.998807 0.00604335 0)
(0.999552 0.00636171 0)
(1.00021 0.00615612 0)
(1.00016 0.00683236 0)
(0.999372 0.00758964 0)
(0.998265 0.00827605 0)
(0.996793 0.00879483 0)
(0.998007 -0.00792459 0)
(0.992822 0.000622366 0)
(1.00067 0.000519044 0)
(1.00114 -0.00857092 0)
(0.994451 -0.00725404 0)
(0.991211 -0.000686237 0)
(0.993613 0.00157572 0)
(0.996051 0.000618181 0)
(0.996539 0.00056423 0)
(0.99524 0.00413563 0)
(0.997012 0.00463701 0)
(0.998466 0.00416562 0)
(0.998959 0.0051128 0)
(0.998936 0.00589801 0)
(0.999572 0.00645682 0)
(1.00027 0.00629142 0)
(1.00037 0.00677731 0)
(0.999623 0.00750403 0)
(0.998501 0.00811999 0)
(0.996912 0.00870027 0)
(0.998127 -0.00755452 0)
(0.993153 0.000222525 0)
(1.00042 0.000361345 0)
(1.00095 -0.00811515 0)
(0.994768 -0.00700202 0)
(0.991613 -0.000886805 0)
(0.993699 0.00152747 0)
(0.996021 0.000745076 0)
(0.996772 0.000538268 0)
(0.99553 0.00391861 0)
(0.997017 0.00478928 0)
(0.998497 0.00420788 0)
(0.99912 0.00494097 0)
(0.999101 0.00578048 0)
(0.999635 0.00652709 0)
(1.0003 0.00645772 0)
(1.00054 0.0066762 0)
(0.999855 0.00737965 0)
(0.998746 0.00791174 0)
(0.997054 0.00857933 0)
(0.998245 -0.00718176 0)
(0.993482 -0.00014122 0)
(1.0002 0.000199688 0)
(1.00075 -0.00772437 0)
(0.995072 -0.00672773 0)
(0.992017 -0.00102585 0)
(0.993802 0.00145912 0)
(0.99599 0.000865322 0)
(0.996992 0.000554091 0)
(0.99584 0.00370465 0)
(0.997039 0.00486023 0)
(0.998501 0.00424221 0)
(0.999276 0.0047991 0)
(0.999297 0.00568901 0)
(0.999727 0.0065065 0)
(1.00031 0.00657001 0)
(1.00068 0.00659807 0)
(1.00008 0.00727537 0)
(0.999006 0.00774214 0)
(0.997228 0.00847509 0)
(0.998363 -0.00680646 0)
(0.993806 -0.000515077 0)
(0.999985 3.44246e-05 0)
(1.00056 -0.00733494 0)
(0.995362 -0.00642408 0)
(0.992415 -0.00117272 0)
(0.993921 0.00135485 0)
(0.995963 0.000977966 0)
(0.997195 0.000602614 0)
(0.996165 0.00346215 0)
(0.997083 0.00487907 0)
(0.998489 0.0043227 0)
(0.99942 0.00471823 0)
(0.999501 0.00558545 0)
(0.999847 0.00639715 0)
(1.00032 0.00666389 0)
(1.00079 0.0066159 0)
(1.00029 0.00720859 0)
(0.999271 0.00761479 0)
(0.997419 0.00834179 0)
(0.998476 -0.00645516 0)
(0.994128 -0.000851485 0)
(0.999792 -0.00012781 0)
(1.00037 -0.00696666 0)
(0.995637 -0.00615051 0)
(0.992807 -0.00128103 0)
(0.994056 0.0012592 0)
(0.995943 0.00111789 0)
(0.99738 0.000683159 0)
(0.9965 0.00322371 0)
(0.997162 0.00484815 0)
(0.998469 0.00445385 0)
(0.999545 0.00463291 0)
(0.999702 0.00546406 0)
(1 0.00624561 0)
(1.00036 0.00673931 0)
(1.00086 0.00666076 0)
(1.00047 0.00714628 0)
(0.999517 0.00748327 0)
(0.99761 0.00813972 0)
(0.998589 -0.00609333 0)
(0.994442 -0.00117643 0)
(0.999613 -0.000298189 0)
(1.00019 -0.00662373 0)
(0.995901 -0.00585826 0)
(0.993193 -0.00136228 0)
(0.99421 0.00117552 0)
(0.99593 0.00124942 0)
(0.99754 0.00077313 0)
(0.996838 0.00297882 0)
(0.997277 0.00476477 0)
(0.998439 0.00457399 0)
(0.99964 0.00455593 0)
(0.999902 0.00534952 0)
(1.00019 0.00610868 0)
(1.00043 0.00675619 0)
(1.00092 0.00671091 0)
(1.00062 0.00709552 0)
(0.999732 0.00737287 0)
(0.9978 0.00791786 0)
(0.998697 -0.00575404 0)
(0.994751 -0.00148212 0)
(0.999454 -0.000451889 0)
(1.00002 -0.00628264 0)
(0.996151 -0.0055922 0)
(0.99357 -0.00142878 0)
(0.994377 0.00108447 0)
(0.995925 0.00135295 0)
(0.997678 0.000875917 0)
(0.997175 0.00277427 0)
(0.997432 0.00464563 0)
(0.998414 0.00469833 0)
(0.999717 0.0045351 0)
(1.0001 0.00526179 0)
(1.0004 0.00598375 0)
(1.00053 0.00671291 0)
(1.00098 0.0067525 0)
(1.00074 0.00705086 0)
(0.999905 0.00726556 0)
(0.99798 0.00768248 0)
(0.998803 -0.00541698 0)
(0.995053 -0.00175466 0)
(0.999309 -0.000619352 0)
(0.999858 -0.00597516 0)
(0.996392 -0.00533553 0)
(0.993942 -0.00146813 0)
(0.994558 0.00101857 0)
(0.995932 0.00146256 0)
(0.997796 0.00101034 0)
(0.997502 0.00260587 0)
(0.997623 0.00447211 0)
(0.998398 0.00478267 0)
(0.999765 0.00453565 0)
(1.00028 0.00515278 0)
(1.00062 0.00584663 0)
(1.00066 0.0066018 0)
(1.00103 0.0067631 0)
(1.00082 0.0069826 0)
(1.00003 0.00716185 0)
(0.998144 0.00746578 0)
(0.998904 -0.00509242 0)
(0.995347 -0.00201516 0)
(0.999181 -0.000779162 0)
(0.999704 -0.00566867 0)
(0.996622 -0.00509035 0)
(0.994306 -0.00150296 0)
(0.994751 0.0009572 0)
(0.995949 0.00156569 0)
(0.997891 0.00114524 0)
(0.99781 0.00246027 0)
(0.997844 0.00425742 0)
(0.998406 0.00483229 0)
(0.999796 0.00458253 0)
(1.00046 0.00505172 0)
(1.00084 0.00572371 0)
(1.00083 0.00646843 0)
(1.0011 0.00676021 0)
(1.00089 0.00691938 0)
(1.00013 0.00710185 0)
(0.998297 0.00730511 0)
(0.999002 -0.00477662 0)
(0.995633 -0.00224202 0)
(0.999071 -0.000939683 0)
(0.999558 -0.00539034 0)
(0.996842 -0.00486511 0)
(0.994665 -0.00152926 0)
(0.994958 0.00090985 0)
(0.995977 0.00166289 0)
(0.997967 0.00128562 0)
(0.998095 0.00236375 0)
(0.998095 0.0040487 0)
(0.998448 0.00485465 0)
(0.999803 0.00465904 0)
(1.0006 0.00495606 0)
(1.00106 0.00561095 0)
(1.00102 0.00631758 0)
(1.00119 0.00672051 0)
(1.00096 0.00684232 0)
(1.00021 0.00703916 0)
(0.99842 0.00714527 0)
(0.999095 -0.00447527 0)
(0.995909 -0.00244293 0)
(0.998977 -0.00110245 0)
(0.999421 -0.00511172 0)
(0.997053 -0.00465982 0)
(0.99502 -0.00152591 0)
(0.995178 0.000876081 0)
(0.996016 0.00174233 0)
(0.998026 0.00141893 0)
(0.998355 0.00229741 0)
(0.998361 0.00383551 0)
(0.998524 0.00480644 0)
(0.999797 0.00474464 0)
(1.00073 0.00489284 0)
(1.00128 0.00550761 0)
(1.00123 0.00614755 0)
(1.00129 0.00664682 0)
(1.00102 0.00676281 0)
(1.00026 0.00697328 0)
(0.998516 0.00701452 0)
(0.999184 -0.00418207 0)
(0.996176 -0.00262666 0)
(0.998901 -0.00123329 0)
(0.999288 -0.00485522 0)
(0.997252 -0.00444322 0)
(0.995372 -0.00151837 0)
(0.995409 0.000833737 0)
(0.996069 0.00180358 0)
(0.998073 0.00155077 0)
(0.998586 0.00225762 0)
(0.998633 0.00363541 0)
(0.998641 0.00471109 0)
(0.99979 0.00484066 0)
(1.00082 0.00485712 0)
(1.00147 0.00538768 0)
(1.00145 0.00596796 0)
(1.00141 0.00654998 0)
(1.00109 0.00668438 0)
(1.0003 0.00690912 0)
(0.998592 0.00691529 0)
(0.999269 -0.00389828 0)
(0.996435 -0.00278867 0)
(0.998839 -0.00135091 0)
(0.999163 -0.00460179 0)
(0.997443 -0.00420006 0)
(0.995719 -0.00153628 0)
(0.995654 0.000766005 0)
(0.996138 0.0018437 0)
(0.998111 0.00166897 0)
(0.998788 0.00222979 0)