/*--------------------------------*- C++ -*----------------------------------*\
| =========                 |                                                 |
| \\      /  F ield         | OpenFOAM: The Open Source CFD Toolbox           |
|  \\    /   O peration     | Version:  v2012                                 |
|   \\  /    A nd           | Website:  www.openfoam.com                      |
|    \\/     M anipulation  |                                                 |
\*---------------------------------------------------------------------------*/
FoamFile
{
    version     2.0;
    format      ascii;
    class       volScalarField;
    location    "7.2";
    object      p;
}
// * * * * * * * * * * * * * * * * * * * * * * * * * * * * * * * * * * * * * //

dimensions      [0 2 -2 0 0 0 0];


internalField   nonuniform List<scalar> 
7000
(
1.11233e-10
0.000563157
0.00142448
0.00137719
0.00285944
0.00609247
0.00257364
0.00153967
-0.00659807
-0.00362558
-0.00623049
-0.00560585
-0.00578618
-0.00438807
-0.00630619
-0.00642303
-0.00600333
-0.00438168
-0.00416725
-0.00215526
1.20263e-07
0.000562695
0.0014242
0.00137866
0.002863
0.00606269
0.00259337
0.00147974
-0.00655414
-0.00364712
-0.00622387
-0.00558043
-0.00578308
-0.00437461
-0.00629362
-0.00631515
-0.00599125
-0.00438701
-0.0041418
-0.00223011
2.17166e-07
0.000562044
0.00142406
0.0013809
0.00286371
0.00602193
0.00262133
0.00140665
-0.00651072
-0.00366087
-0.00619724
-0.00553999
-0.00577482
-0.00436782
-0.00626362
-0.00624299
-0.00596128
-0.00442013
-0.00411085
-0.00236265
2.07653e-07
0.000561374
0.00142406
0.00138267
0.00286248
0.00596998
0.00263293
0.00132812
-0.00646692
-0.00365403
-0.00615442
-0.00549423
-0.00576781
-0.00437307
-0.00622656
-0.00619747
-0.00591767
-0.00447265
-0.00408855
-0.00251772
8.31466e-08
0.000560667
0.00142411
0.00138407
0.00286071
0.00590421
0.00262686
0.00124711
-0.00641453
-0.00363317
-0.00610401
-0.00545487
-0.00576722
-0.00439085
-0.00618932
-0.00616805
-0.00587013
-0.00453181
-0.00407383
-0.0026672
-1.6513e-07
0.000559907
0.00142424
0.00138538
0.0028584
0.00582432
0.00260916
0.00117963
-0.00635228
-0.00360824
-0.00605288
-0.00542697
-0.00577287
-0.00441915
-0.00615361
-0.00614562
-0.00582271
-0.00458608
-0.00406495
-0.00280025
-5.45867e-07
0.000559106
0.00142451
0.00138662
0.00285562
0.00573182
0.0025843
0.00112174
-0.00628178
-0.00358577
-0.00600344
-0.00540957
-0.00578071
-0.00445449
-0.00611754
-0.00612528
-0.0057776
-0.00463593
-0.00406258
-0.0029193
-1.06201e-06
0.000558279
0.00142492
0.00138782
0.00285266
0.0056287
0.00255504
0.00107077
-0.00620491
-0.00356817
-0.00595446
-0.00540046
-0.00578652
-0.00449406
-0.00607974
-0.00610606
-0.00573572
-0.00468209
-0.0040682
-0.00303193
-1.71251e-06
0.000557435
0.0014255
0.00138903
0.00284966
0.00551676
0.0025236
0.001024
-0.00612293
-0.00355564
-0.00590372
-0.00539763
-0.0057879
-0.00453661
-0.00603996
-0.00608748
-0.005697
-0.00472558
-0.00408317
-0.00314448
-2.49306e-06
0.000556574
0.00142628
0.00139029
0.0028465
0.00539745
0.00249168
0.0009793
-0.00603648
-0.00354771
-0.00584942
-0.00539999
-0.00578428
-0.00458168
-0.00599875
-0.00606888
-0.00566132
-0.00476735
-0.0041077
-0.00325888
-3.39368e-06
0.000555693
0.00142727
0.00139156
0.00284287
0.0052719
0.00246031
0.000935032
-0.00594593
-0.00354395
-0.00579062
-0.005407
-0.00577592
-0.00462883
-0.00595729
-0.0060496
-0.00562892
-0.00480672
-0.00414026
-0.00337363
-4.39619e-06
0.000554783
0.00142847
0.0013928
0.00283836
0.00514102
0.00242992
0.000889783
-0.00585159
-0.00354406
-0.00572696
-0.00541818
-0.00576338
-0.00467727
-0.00591697
-0.00602895
-0.00560021
-0.00484369
-0.00417825
-0.00348639
-5.47358e-06
0.000553827
0.00142983
0.00139393
0.00283258
0.00500567
0.00240058
0.00084221
-0.0057537
-0.00354789
-0.00565838
-0.0054328
-0.00574752
-0.00472561
-0.00587904
-0.00600656
-0.00557518
-0.00487815
-0.00421969
-0.00359587
-6.59216e-06
0.000552805
0.00143135
0.00139486
0.00282531
0.00486668
0.00237203
0.000791213
-0.0056524
-0.00355535
-0.005585
-0.00544994
-0.00572951
-0.00477201
-0.0058446
-0.00598249
-0.00555324
-0.00491018
-0.00426378
-0.00370178
-7.71678e-06
0.000551687
0.00143299
0.00139551
0.00281657
0.00472485
0.00234385
0.000736019
-0.00554769
-0.00356641
-0.00550708
-0.00546851
-0.00571074
-0.00481455
-0.00581445
-0.00595722
-0.00553366
-0.00494035
-0.00431113
-0.00380398
-8.81758e-06
0.000550437
0.00143473
0.00139579
0.00280662
0.00458091
0.00231562
0.000676158
-0.00543958
-0.00358098
-0.00542513
-0.0054873
-0.00569288
-0.00485164
-0.00578891
-0.0059316
-0.00551623
-0.00496943
-0.00435944
-0.0039021
-9.87578e-06
0.000549019
0.00143655
0.00139562
0.00279586
0.0044355
0.00228699
0.00061095
-0.00532809
-0.00359889
-0.0053399
-0.00550507
-0.0056777
-0.00488219
-0.00576793
-0.00590655
-0.00550073
-0.00499849
-0.00440974
-0.00399572
-1.0886e-05
0.000547392
0.00143844
0.00139494
0.00278473
0.00428918
0.00225774
0.000539192
-0.00521326
-0.00361979
-0.0052525
-0.00552043
-0.00566693
-0.00490566
-0.00575125
-0.00588295
-0.00548636
-0.00502869
-0.00446268
-0.00408464
-1.18543e-05
0.000545523
0.00144035
0.00139367
0.00277355
0.0041424
0.00222789
0.000464536
-0.00509523
-0.00364308
-0.00516456
-0.00553186
-0.00566188
-0.00492228
-0.00573818
-0.00586224
-0.0054725
-0.00506054
-0.00451932
-0.00416886
-1.27931e-05
0.000543379
0.00144229
0.00139173
0.0027624
0.00399543
0.00219763
0.000385706
-0.00497443
-0.00366779
-0.00507801
-0.00553796
-0.00566316
-0.00493278
-0.00572757
-0.00584665
-0.00545932
-0.00509305
-0.00458032
-0.00424915
-1.37148e-05
0.00054093
0.00144427
0.00138906
0.00275117
0.00384828
0.00216707
0.00030295
-0.00485152
-0.0036928
-0.00499468
-0.00553736
-0.00567097
-0.00493818
-0.00571761
-0.00583826
-0.0054481
-0.00512511
-0.00464541
-0.00432678
-1.4627e-05
0.000538139
0.00144629
0.0013856
0.00273964
0.00370073
0.0021362
0.000216815
-0.00472736
-0.00371686
-0.00491637
-0.0055288
-0.00568534
-0.00494015
-0.00570598
-0.00583764
-0.00544029
-0.00515652
-0.00471439
-0.0044025
-1.55297e-05
0.000534966
0.00144841
0.00138131
0.00272757
0.00355246
0.00210493
0.00012799
-0.00460303
-0.00373828
-0.0048449
-0.00551167
-0.00570542
-0.00494083
-0.00569105
-0.00584424
-0.00543698
-0.00518721
-0.00478646
-0.00447727
-1.6414e-05
0.000531356
0.00145065
0.00137616
0.00271472
0.00340318
0.00207302
3.73329e-05
-0.00448002
-0.00375525
-0.00478145
-0.00548603
-0.00572989
-0.00494224
-0.00567191
-0.0058575
-0.005439
-0.00521748
-0.00486081
-0.00455105
-1.72615e-05
0.000527249
0.00145303
0.00137015
0.00270088
0.00325279
0.00204013
-5.41497e-05
-0.00435972
-0.00376656
-0.0047269
-0.00545186
-0.00575752
-0.00494665
-0.00564719
-0.00587766
-0.00544753
-0.00524536
-0.00493671
-0.00462494
-1.80501e-05
0.000522579
0.00145556
0.00136326
0.00268583
0.00310135
0.00200585
-0.000145589
-0.00424343
-0.00377077
-0.0046822
-0.00540986
-0.00578621
-0.00495679
-0.00561529
-0.00590442
-0.00546719
-0.00526728
-0.00500929
-0.00470101
-1.87537e-05
0.000517271
0.00145826
0.00135549
0.0026694
0.00294899
0.00196973
-0.000235828
-0.00413275
-0.00376689
-0.00464733
-0.00536143
-0.00581319
-0.0049761
-0.00557696
-0.00593264
-0.0055035
-0.00528598
-0.00506986
-0.00477849
-1.93289e-05
0.000511221
0.00146114
0.00134681
0.00265142
0.0027961
0.00193097
-0.000323585
-0.0040283
-0.00375494
-0.00462227
-0.00530825
-0.00583502
-0.00500607
-0.00553678
-0.00595798
-0.00554925
-0.00531185
-0.00512196
-0.00484941
-1.97392e-05
0.000504349
0.00146419
0.00133718
0.00263168
0.00264325
0.00188898
-0.000408288
-0.00393098
-0.00373387
-0.00460656
-0.00525324
-0.00584991
-0.00504509
-0.00549844
-0.00598353
-0.00559239
-0.00534412
-0.00518974
-0.00490848
-1.99509e-05
0.000496572
0.00146741
0.00132665
0.00260986
0.00249121
0.00184264
-0.000488447
-0.00384246
-0.00370398
-0.0045981
-0.00519734
-0.00585772
-0.00509422
-0.00546314
-0.00600645
-0.00565567
-0.00536468
-0.00522516
-0.00497879
-1.98599e-05
0.000487767
0.00147078
0.00131523
0.00258564
0.0023408
0.00179086
-0.000563102
-0.0037628
-0.00366594
-0.00459719
-0.00514268
-0.00585315
-0.00515342
-0.00543436
-0.00602864
-0.00572938
-0.00538938
-0.00521882
-0.00504374
-1.94907e-05
0.000477882
0.00147418
0.00130309
0.00255884
0.00219269
0.00173329
-0.000632594
-0.00369225
-0.00361954
-0.00460118
-0.00509683
-0.0058335
-0.00521885
-0.0054124
-0.00604651
-0.00580335
-0.00543037
-0.00529083
-0.00509202
-1.87792e-05
0.000466797
0.00147756
0.00129019
0.00252901
0.00204792
0.00166882
-0.000695427
-0.00363155
-0.00356886
-0.00460115
-0.00506451
-0.00580341
-0.00529
-0.00539884
-0.00604867
-0.00590602
-0.00549283
-0.00521909
-0.00513327
-1.73505e-05
0.000454306
0.00148116
0.00127635
0.00249582
0.00190695
0.00159739
-0.000753793
-0.00357812
-0.00351575
-0.00459897
-0.00504197
-0.00576474
-0.00536362
-0.00539903
-0.00604187
-0.00598276
-0.00561222
-0.00530476
-0.00509029
-1.56765e-05
0.000440572
0.00148422
0.00126288
0.00245828
0.00177109
0.00151862
-0.000802997
-0.00353436
-0.00345782
-0.00459777
-0.00502568
-0.00571715
-0.00543318
-0.00542256
-0.00606032
-0.00606257
-0.00568095
-0.00531306
-0.00511165
-1.35787e-05
0.000425441
0.00148638
0.00124977
0.0024156
0.00164173
0.00143061
-0.000753474
-0.00350192
-0.00339617
-0.00458737
-0.00502564
-0.00566609
-0.00549881
-0.00546896
-0.00608105
-0.00615973
-0.00570927
-0.00517122
-0.00518819
-9.84399e-06
0.000408511
0.00148908
0.00123508
0.00236902
0.00151694
0.00133493
-0.000798489
-0.00346714
-0.0033464
-0.00456601
-0.00503964
-0.0056219
-0.0055524
-0.00551377
-0.00609158
-0.00621473
-0.00589899
-0.00554891
-0.00513788
-6.29144e-06
0.000390288
0.00149005
0.00122279
0.00231626
0.00139929
0.00123173
-0.000835174
-0.00343855
-0.00329619
-0.00454322
-0.00505497
-0.0055813
-0.00561639
-0.00557889
-0.00610803
-0.00626724
-0.00599753
-0.00563753
-0.00515185
-2.38186e-06
0.000370631
0.00148807
0.00121314
0.00225607
0.00129085
0.001119
-0.000862657
-0.00341895
-0.00324526
-0.00451151
-0.00508152
-0.0055431
-0.00568979
-0.00566265
-0.00613293
-0.00633903
-0.0059864
-0.00545914
-0.00523097
5.02687e-06
0.000348989
0.00148733
0.00120152
0.00219222
0.00118433
0.00100208
-0.000901134
-0.00338509
-0.00321927
-0.00447112
-0.00512043
-0.00551896
-0.00571154
-0.00573329
-0.00615521
-0.00638505
-0.0062068
-0.00586076
-0.00519204
1.09973e-05
0.000326394
0.00148223
0.0011946
0.00212096
0.00108519
0.000880204
-0.000933486
-0.00335506
-0.00319
-0.00442994
-0.00515761
-0.00550975
-0.00576097
-0.00582146
-0.00619395
-0.00641192
-0.0062884
-0.00594191
-0.00520658
1.39282e-05
0.000302609
0.0014677
0.00119315
0.0020412
0.000996285
0.000751392
-0.000958874
-0.00333308
-0.00315916
-0.00438432
-0.00520903
-0.00552075
-0.00580955
-0.00591797
-0.00624655
-0.00645932
-0.00617419
-0.00555776
-0.00529094
4.10701e-05
0.00027675
0.00148379
0.00118924
0.00195972
0.000902143
0.000625589
-0.00100028
-0.00329605
-0.0031455
-0.00433349
-0.00525509
-0.00553746
-0.00584417
-0.00598346
-0.00628773
-0.00652281
-0.00643194
-0.00604409
-0.00525555
4.85534e-05
0.000251081
0.00143313
0.00119225
0.00187156
0.000814978
0.000497524
-0.00103457
-0.00327048
-0.00313284
-0.00427852
-0.00530085
-0.00558504
-0.00589311
-0.00605707
-0.00634181
-0.00656417
-0.0065289
-0.00613167
-0.00525323
5.7532e-05
0.000224499
0.00137248
0.00120121
0.00177701
0.000737864
0.000367199
-0.001063
-0.00325745
-0.003124
-0.00422628
-0.00534218
-0.00564255
-0.0059561
-0.00614867
-0.00642965
-0.00661437
-0.00625213
-0.00573927
-0.00532294
7.37476e-05
0.00019631
0.00139597
0.0012074
0.00168541
0.000639223
0.000250169
-0.00111112
-0.00322651
-0.00313155
-0.0041751
-0.0053799
-0.00567249
-0.00593597
-0.00622033
-0.0065463
-0.00674309
-0.0067618
-0.00629549
-0.00529501
8.32205e-05
0.000169637
0.00132775
0.00121981
0.00159183
0.000545599
0.000136783
-0.00115971
-0.00320087
-0.00315721
-0.00412591
-0.00539831
-0.0057073
-0.00594172
-0.00630193
-0.00669656
-0.00692932
-0.00693532
-0.00629594
-0.0051959
9.89996e-05
0.000142479
0.0012838
0.0012349
0.00149756
0.000458491
2.18444e-05
-0.0012018
-0.00319109
-0.00318801
-0.00407967
-0.00540334
-0.00576192
-0.00597325
-0.00637676
-0.00682403
-0.00707549
-0.00700106
-0.00636437
-0.00518194
0.000114546
0.000115411
0.00123657
0.0012488
0.00140746
0.000352325
-9.13677e-05
-0.00124498
-0.00318456
-0.00322834
-0.00404098
-0.00539993
-0.0058266
-0.00601484
-0.00643221
-0.00692781
-0.00719323
-0.00708776
-0.00645316
-0.00518263
0.000129709
8.99175e-05
0.00117571
0.00126285
0.00132217
0.000248885
-0.000205274
-0.00129128
-0.00317701
-0.00327732
-0.00401235
-0.00538443
-0.00589342
-0.00606884
-0.00648346
-0.00701814
-0.00728995
-0.0071783
-0.00652221
-0.00517893
0.000147522
6.50081e-05
0.0011103
0.00127436
0.00124296
0.000144605
-0.000321677
-0.00133844
-0.00316877
-0.00333379
-0.00399443
-0.00536329
-0.00596011
-0.00613394
-0.00652666
-0.00708917
-0.00737322
-0.00725213
-0.00658143
-0.00516322
0.000164704
4.14229e-05
0.0010384
0.00128064
0.00117015
4.0663e-05
-0.000439649
-0.00138749
-0.00316149
-0.00339709
-0.00399016
-0.00533515
-0.00601476
-0.00620566
-0.00657139
-0.00715306
-0.0074652
-0.0073242
-0.00659335
-0.00513599
0.000183354
1.96574e-05
0.000960339
0.00128024
0.00110448
-6.28856e-05
-0.000561224
-0.00144085
-0.0031533
-0.00346184
-0.00399761
-0.00530157
-0.00606049
-0.00629057
-0.00662404
-0.00719681
-0.00752919
-0.0073786
-0.0066255
-0.00511921
0.000201972
-5.16089e-07
0.000877254
0.00127186
0.00104485
-0.000164457
-0.00068674
-0.00149602
-0.00314176
-0.00352924
-0.00402081
-0.00527113
-0.00609705
-0.00637748
-0.00667444
-0.00722545
-0.00759602
-0.00745344
-0.00665093
-0.00509357
0.000221184
-1.83656e-05
0.000789569
0.00125354
0.000990524
-0.000261438
-0.000815299
-0.00155629
-0.00313129
-0.00359636
-0.00405531
-0.00524265
-0.00611796
-0.0064585
-0.00673782
-0.00725975
-0.00764641
-0.00749163
-0.00666399
-0.00506152
0.000240405
-3.39514e-05
0.000698845
0.00122454
0.000939551
-0.000353242
-0.000947204
-0.00162316
-0.00311886
-0.00365787
-0.00410059
-0.0052217
-0.0061266
-0.00653667
-0.0067984
-0.00728515
-0.00766326
-0.00750948
-0.00668027
-0.00504689
0.000259389
-4.66808e-05
0.000605668
0.001184
0.000890547
-0.000439477
-0.00108117
-0.00169578
-0.00310541
-0.00371522
-0.00415473
-0.00520951
-0.00612821
-0.00660707
-0.00687278
-0.0073056
-0.00767099
-0.00753906
-0.00671565
-0.00502747
0.000277501
-5.61618e-05
0.000510389
0.00113188
0.000840585
-0.000518901
-0.00121298
-0.00177545
-0.0030943
-0.00376817
-0.00421466
-0.00520836
-0.00612574
-0.0066603
-0.0069478
-0.00733795
-0.00769543
-0.00757285
-0.00671486
-0.00498297
0.000294894
-6.26565e-05
0.000415435
0.00106675
0.000787194
-0.000591006
-0.00134111
-0.00186222
-0.00309768
-0.00381402
-0.00427805
-0.00521746
-0.00612184
-0.00670336
-0.00702679
-0.00738182
-0.00770682
-0.00756901
-0.00669653
-0.00493917
0.00031187
-6.60445e-05
0.000321957
0.000987787
0.000734877
-0.000660396
-0.00148262
-0.00195354
-0.0030838
-0.0038497
-0.00434002
-0.00523496
-0.00612115
-0.00672851
-0.00709712
-0.00742059
-0.007709
-0.00755862
-0.00668122
-0.00491068
0.000326338
-6.50934e-05
0.000230377
0.000897159
0.000674431
-0.000729322
-0.00161312
-0.00204806
-0.00307399
-0.00387853
-0.0044028
-0.00526152
-0.00612531
-0.00675162
-0.00715383
-0.00745844
-0.00771173
-0.00755458
-0.00668074
-0.00487938
0.000338821
-6.01937e-05
0.000142168
0.000792968
0.000602974
-0.000787445
-0.00173205
-0.00215046
-0.00307303
-0.00390176
-0.00446267
-0.00529408
-0.00613762
-0.00676993
-0.00720152
-0.00749795
-0.00771973
-0.00755494
-0.00666781
-0.00483006
0.00034869
-5.19899e-05
5.80358e-05
0.000673506
0.000524278
-0.000836332
-0.00184347
-0.0022609
-0.00308157
-0.00391825
-0.00451798
-0.00532984
-0.00615689
-0.00678846
-0.007245
-0.00753687
-0.00772409
-0.00753928
-0.00663684
-0.00478052
0.000355599
-4.0837e-05
-2.23233e-05
0.00054432
0.000437443
-0.000879687
-0.00194527
-0.00237604
-0.00310093
-0.00393116
-0.00456892
-0.00536639
-0.00618138
-0.00680943
-0.00728069
-0.00756874
-0.00772117
-0.00751113
-0.0066032
-0.00474204
0.000359478
-2.87872e-05
-9.72048e-05
0.000408059
0.000340056
-0.000920145
-0.00203588
-0.00249344
-0.00313279
-0.00394324
-0.00461571
-0.00540039
-0.00620684
-0.00683148
-0.00730977
-0.0075977
-0.00771937
-0.0074842
-0.00656985
-0.00469879
0.000359562
-1.68729e-05
-0.000165491
0.000266996
0.0002312
-0.000959541
-0.0021147
-0.00261131
-0.00317781
-0.0039558
-0.00465741
-0.0054324
-0.00623125
-0.00685543
-0.00733881
-0.00762931
-0.00772187
-0.00745621
-0.00652362
-0.00464209
0.000356865
-6.31655e-06
-0.000227077
0.000123894
0.000111134
-0.00100079
-0.00218226
-0.00272649
-0.00323458
-0.00397076
-0.00469595
-0.00546529
-0.00625407
-0.00688019
-0.00736744
-0.00765955
-0.00772412
-0.0074242
-0.00646806
-0.00458121
0.000350984
1.87498e-06
-0.000282141
-1.89252e-05
-1.90782e-05
-0.00104655
-0.00223937
-0.00283621
-0.00330242
-0.00399076
-0.00473177
-0.00550008
-0.00627547
-0.00690269
-0.00739203
-0.00768763
-0.00772964
-0.00739504
-0.00641344
-0.00451913
0.000342002
6.93529e-06
-0.000331235
-0.000158963
-0.000157868
-0.00109943
-0.00228773
-0.00293873
-0.00338033
-0.00401798
-0.00476386
-0.00553557
-0.00629751
-0.00692113
-0.00741113
-0.00771441
-0.00774117
-0.00737343
-0.0063631
-0.00445491
0.000330017
8.43272e-06
-0.000375265
-0.000294398
-0.000303415
-0.00116117
-0.00232973
-0.00303256
-0.00346568
-0.00405357
-0.00479208
-0.00557041
-0.00632159
-0.00693741
-0.00742519
-0.00773777
-0.00775794
-0.00736155
-0.00632059
-0.00439307
0.000315086
5.93829e-06
-0.00041506
-0.000423944
-0.000453724
-0.00123292
-0.00236816
-0.00311641
-0.00355494
-0.00409804
-0.00481828
-0.00560349
-0.00634949
-0.00695603
-0.0074364
-0.00775556
-0.00777701
-0.0073593
-0.00628869
-0.0043368
0.000297442
-7.3775e-07
-0.000451846
-0.000546638
-0.000606603
-0.00131504
-0.00240574
-0.00318998
-0.00364496
-0.00415216
-0.0048455
-0.00563322
-0.00638026
-0.00698018
-0.00744822
-0.00776684
-0.00779331
-0.00736328
-0.00626719
-0.00428728
0.000277202
-1.17634e-05
-0.000486555
-0.000662165
-0.000759792
-0.00140686
-0.00244507
-0.00325417
-0.00373348
-0.00421606
-0.0048769
-0.00565883
-0.00641079
-0.00700944
-0.00746334
-0.0077731
-0.00780402
-0.00736971
-0.00625456
-0.00424655
0.000254538
-2.7169e-05
-0.000520285
-0.000770299
-0.000911079
-0.00150749
-0.00248868
-0.00331083
-0.0038182
-0.00428802
-0.00491461
-0.0056813
-0.0064385
-0.00704174
-0.00748391
-0.00777889
-0.00780961
-0.00737543
-0.00624864
-0.00421582
0.000229591
-4.67466e-05
-0.000554146
-0.000871133
-0.00105874
-0.00161553
-0.0025387
-0.00336244
-0.00389707
-0.00436512
-0.00496016
-0.00570328
-0.00646206
-0.00707521
-0.00751128
-0.00778878
-0.00781249
-0.00737844
-0.0062456
-0.00419303
0.000202543
-7.05597e-05
-0.000588688
-0.000965044
-0.00120142
-0.00172906
-0.00259591
-0.00341124
-0.00396928
-0.00444443
-0.00501422
-0.00572856
-0.00648236
-0.00710797
-0.0075452
-0.00780629
-0.00781614
-0.00737771
-0.00624042
-0.00417338
0.000173536
-9.82598e-05
-0.000624576
-0.00105275
-0.00133789
-0.00184629
-0.00266057
-0.00345976
-0.00403528
-0.00452358
-0.00507617
-0.00575974
-0.00650103
-0.00713801
-0.00758351
-0.0078323
-0.00782406
-0.007375
-0.00623154
-0.00415523
0.000142684
-0.000129707
-0.000662095
-0.00113501
-0.00146767
-0.00196514
-0.00273226
-0.00351035
-0.00409616
-0.00460095
-0.0051445
-0.00579804
-0.00652058
-0.00716493
-0.00762353
-0.00786665
-0.00784034
-0.0073754
-0.00622262
-0.00413935
0.000110067
-0.000164369
-0.000701777
-0.0012126
-0.00159057
-0.00208378
-0.0028097
-0.00356499
-0.00415401
-0.00467461
-0.00521686
-0.00584432
-0.0065442
-0.00718979
-0.0076635
-0.00790781
-0.00786644
-0.00738353
-0.00621863
-0.00412746
7.57011e-05
-0.000201686
-0.000743451
-0.00128669
-0.00170659
-0.00220072
-0.00289139
-0.00362482
-0.00421138
-0.00474418
-0.00529231
-0.0058989
-0.00657411
-0.00721381
-0.00770149
-0.00795308
-0.00790239
-0.00740201
-0.00622172
-0.00412085
3.97571e-05
-0.000241541
-0.0007871
-0.00135768
-0.00181587
-0.00231518
-0.00297596
-0.00368956
-0.00427061
-0.00481018
-0.00536952
-0.00596119
-0.00661204
-0.00723957
-0.00773753
-0.00800151
-0.0079483
-0.00743281
-0.00623443
-0.00412062
2.23657e-06
-0.000283461
-0.000832486
-0.00142614
-0.00191868
-0.0024263
-0.00306204
-0.00375837
-0.00433436
-0.00487325
-0.00544584
-0.00603059
-0.00666007
-0.00727181
-0.00777344
-0.00805086
-0.0080014
-0.00747665
-0.00626182
-0.00413181
-3.67094e-05
-0.000327318
-0.000879304
-0.00149262
-0.0020156
-0.00253339
-0.00314865
-0.00382966
-0.00440395
-0.00493595
-0.00551957
-0.00610552
-0.00671886
-0.00731426
-0.0078118
-0.00809918
-0.00805686
-0.00753021
-0.00630437
-0.00415923
-7.70428e-05
-0.000372042
-0.000927208
-0.0015574
-0.00210691
-0.00263643
-0.00323597
-0.00390154
-0.00447921
-0.00500249
-0.00559065
-0.00618366
-0.00678638
-0.00736774
-0.00785746
-0.00815131
-0.00811626
-0.00759059
-0.00635723
-0.00419934
-0.000118738
-0.000418123
-0.00097533
-0.00161985
-0.00219283
-0.00273499
-0.00332417
-0.0039739
-0.0045595
-0.0050768
-0.00566067
-0.00626273
-0.00685958
-0.00743133
-0.00791389
-0.00821206
-0.00818478
-0.00766106
-0.00642093
-0.00425013
-0.000161806
-0.000465046
-0.00102395
-0.00167981
-0.00227285
-0.00282704
-0.00341158
-0.00404703
-0.00464201
-0.00516107
-0.00573479
-0.00634389
-0.00693991
-0.00750554
-0.00798251
-0.00828267
-0.00826319
-0.00774433
-0.0065005
-0.00431629
-0.000205683
-0.000513228
-0.00107261
-0.00173835
-0.00234927
-0.00291362
-0.00349775
-0.00412061
-0.00472088
-0.00524898
-0.00581299
-0.00642487
-0.00702406
-0.0075873
-0.0080606
-0.00836202
-0.00835025
-0.0078401
-0.00660002
-0.00441014
-0.000251235
-0.000556791
-0.00111966
-0.00179244
-0.00242066
-0.00299734
-0.00358578
-0.00420126
-0.00480293
-0.00534216
-0.0058988
-0.00650771
-0.00711034
-0.00767574
-0.00814878
-0.00845112
-0.00844544
-0.00794194
-0.00670654
-0.00451665
-0.000296661
-0.000615248
-0.00116625
-0.00184151
-0.0024835
-0.00307411
-0.00367213
-0.00428853
-0.00489048
-0.0054411
-0.00599395
-0.00659918
-0.00720591
-0.00777718
-0.00825624
-0.00856243
-0.00856386
-0.00806603
-0.0068335
-0.004641
-0.000340948
-0.000638723
-0.00120212
-0.0018753
-0.00253041
-0.00313731
-0.00375123
-0.00437542
-0.00497567
-0.00553312
-0.00608422
-0.0066838
-0.00729748
-0.00787694
-0.00836581
-0.00868146
-0.00869381
-0.00820765
-0.00698661
-0.00480454
-0.000427588
-0.000730493
-0.00126595
-0.0019254
-0.00258342
-0.00320704
-0.00383327
-0.00446697
-0.005067
-0.00562622
-0.00617773
-0.006768
-0.00738661
-0.00797748
-0.0084799
-0.0088111
-0.00883571
-0.00836185
-0.00715255
-0.00497485
-0.000397362
-0.000703487
-0.00125473
-0.00193403
-0.00264778
-0.00332092
-0.00396336
-0.00459098
-0.00517782
-0.00572405
-0.00627335
-0.0068619
-0.00748853
-0.00809588
-0.00861895
-0.0089753
-0.00902311
-0.0085666
-0.00736688
-0.00519252
-0.000602618
-0.000848792
-0.00127263
-0.0018509
-0.00253959
-0.00330876
-0.00406315
-0.0047042
-0.00526943
-0.00579938
-0.00633882
-0.00693234
-0.00756931
-0.00819987
-0.00875778
-0.00914938
-0.00923797
-0.00882566
-0.00766894
-0.00553502
-0.000459905
-0.00077155
-0.00133768
-0.00204523
-0.00278738
-0.00349729
-0.00415375
-0.00476381
-0.00532042
-0.00583319
-0.00635958
-0.00694636
-0.00757452
-0.00819664
-0.00875179
-0.00916731
-0.00930634
-0.00897605
-0.00792615
-0.00591953
-0.000610551
-0.000838536
-0.0013917
-0.00199313
-0.00269755
-0.0034899
-0.00424493
-0.00487
-0.00547214
-0.00600563
-0.00656516
-0.00716673
-0.00780736
-0.00839621
-0.0088697
-0.0091379
-0.00914492
-0.00872707
-0.00764235
-0.00562604
-0.00046148
-0.00086612
-0.00144295
-0.0021557
-0.00289775
-0.00354494
-0.00413633
-0.00469177
-0.00522485
-0.00575796
-0.00634197
-0.00698248
-0.00770626
-0.00848757
-0.00929072
-0.0100156
-0.0104813
-0.0104546
-0.00966409
-0.0078705
-0.00030908
-0.000999286
-0.0016404
-0.0023478
-0.00305204
-0.0038261
-0.00451049
-0.00504149
-0.00558857
-0.0061856
-0.00679111
-0.0073576
-0.0076727
-0.00762836
-0.00718272
-0.00641548
-0.00552148
-0.00481113
-0.00465813
-0.00539679
-0.000330797
-0.000973547
-0.00162433
-0.00224324
-0.00280673
-0.00333999
-0.00389423
-0.00447951
-0.00504614
-0.00573867
-0.00654108
-0.00744087
-0.00843966
-0.00948992
-0.01054
-0.0115007
-0.0122085
-0.0124355
-0.0119043
-0.0103646
-0.000199802
-0.00103698
-0.00171483
-0.00238859
-0.00296794
-0.00362327
-0.00434077
-0.00517353
-0.00587578
-0.00632895
-0.00680574
-0.00741189
-0.00795356
-0.00827668
-0.00825096
-0.00788209
-0.00728458
-0.00675365
-0.00668376
-0.00744293
-0.000209674
-0.00105405
-0.00174222
-0.00226131
-0.00261258
-0.00303341
-0.00350277
-0.00403585
-0.00463018
-0.00550187
-0.0066777
-0.00813664
-0.0098184
-0.0115818
-0.0132181
-0.0145309
-0.0153653
-0.015552
-0.0148719
-0.013126
0.000172391
-0.00940754
-0.0123782
-0.0110932
-0.00963781
-0.00828883
-0.00658526
-0.00501837
-0.00403371
-0.00326253
-0.0023133
-0.00121646
-0.000277545
7.76148e-05
0.000159018
0.000873602
0.00210127
0.00316949
0.00401899
0.00482513
0.00570166
0.00669475
0.00773131
0.00876637
0.00983448
0.0109142
0.0120249
0.0131746
0.0143954
0.0156895
0.017048
0.0183813
0.0197411
0.0211932
0.0227013
0.0242989
0.025878
0.0275476
0.0292158
0.0310055
0.0328161
0.0347111
0.0366882
0.0386486
0.0408213
0.0428622
0.0451607
0.0474468
0.0492553
0.0516859
-5.28084e-06
-0.00933567
-0.0123287
-0.011075
-0.00962933
-0.00828389
-0.00658181
-0.00501531
-0.0040308
-0.00325988
-0.00231096
-0.00121439
-0.000275623
7.93433e-05
0.00016034
0.000874603
0.00210219
0.00317033
0.00401973
0.00482578
0.00570222
0.00669525
0.00773176
0.00876678
0.00983486
0.0109145
0.0120253
0.0131749
0.0143957
0.0156898
0.0170482
0.0183815
0.0197413
0.0211934
0.0227015
0.024299
0.0258782
0.0275477
0.0292159
0.0310056
0.0328162
0.0347112
0.0366883
0.0386487
0.0408214
0.0428623
0.0451608
0.0474469
0.0492553
0.0516859
-0.00024715
-0.00924403
-0.0122541
-0.0110493
-0.00961849
-0.00827798
-0.00657803
-0.00501238
-0.0040283
-0.00325764
-0.00230891
-0.00121249
-0.000273774
8.09654e-05
0.000161428
0.000875417
0.00210305
0.00317114
0.00402041
0.00482635
0.00570271
0.00669569
0.00773217
0.00876716
0.0098352
0.0109148
0.0120256
0.0131752
0.0143959
0.01569
0.0170484
0.0183817
0.0197415
0.0211936
0.0227016
0.0242992
0.0258783
0.0275479
0.0292161
0.0310057
0.0328163
0.0347113
0.0366883
0.0386488
0.0408215
0.0428624
0.0451608
0.047447
0.0492554
0.0516859
-0.000482182
-0.00913114
-0.0121449
-0.0110071
-0.00960096
-0.00826868
-0.00657265
-0.00500908
-0.00402595
-0.0032556
-0.00230694
-0.00121056
-0.000271795
8.27122e-05
0.000162503
0.000876219
0.00210398
0.00317202
0.00402112
0.00482694
0.0057032
0.00669614
0.00773259
0.00876753
0.00983555
0.0109152
0.0120259
0.0131754
0.0143962
0.0156902
0.0170487
0.018382
0.0197417
0.0211938
0.0227018
0.0242993
0.0258785
0.027548
0.0292162
0.0310058
0.0328164
0.0347114
0.0366884
0.0386489
0.0408216
0.0428625
0.0451609
0.047447
0.0492554
0.0516859
-0.000702067
-0.00899916
-0.012006
-0.0109473
-0.00957448
-0.00825415
-0.00656448
-0.00500485
-0.00402354
-0.00325364
-0.00230502
-0.00120862
-0.000269626
8.47363e-05
0.000163771
0.00087719
0.00210512
0.00317305
0.00402193
0.0048276
0.00570374
0.00669663
0.00773305
0.00876794
0.00983592
0.0109155
0.0120262
0.0131757
0.0143964
0.0156905
0.0170489
0.0183822
0.0197419
0.021194
0.022702
0.0242995
0.0258786
0.0275481
0.0292163
0.031006
0.0328165
0.0347115
0.0366885
0.038649
0.0408217
0.0428625
0.045161
0.0474471
0.0492556
0.0516859
-0.000913008
-0.00885665
-0.0118517
-0.0108753
-0.00954034
-0.00823439
-0.00655317
-0.00499933
-0.00402078
-0.00325158
-0.0023032
-0.00120683
-0.000267406
8.70508e-05
0.000165371
0.000878486
0.00210655
0.00317429
0.0040229
0.00482839
0.00570438
0.0066972
0.00773357
0.00876839
0.00983633
0.0109159
0.0120265
0.013176
0.0143967
0.0156907
0.0170492
0.0183824
0.0197421
0.0211942
0.0227021
0.0242997
0.0258788
0.0275483
0.0292164
0.0310061
0.0328166
0.0347116
0.0366886
0.038649
0.0408218
0.0428626
0.045161
0.0474472
0.0492557
0.0516858
-0.00112094
-0.00871176
-0.0116915
-0.0107971
-0.00950132
-0.00821076
-0.00653917
-0.00499248
-0.00401737
-0.00324913
-0.00230137
-0.00120538
-0.000265381
8.95409e-05
0.000167371
0.00088026
0.0021084
0.00317582
0.00402407
0.00482933
0.00570513
0.00669786
0.00773417
0.00876891
0.00983679
0.0109163
0.0120269
0.0131763
0.014397
0.015691
0.0170494
0.0183827
0.0197423
0.0211944
0.0227023
0.0242999
0.025879
0.0275484
0.0292166
0.0310062
0.0328167
0.0347117
0.0366887
0.0386491
0.0408219
0.0428627
0.0451611
0.0474473
0.0492559
0.0516859
-0.0013295
-0.00856816
-0.0115282
-0.010715
-0.00945946
-0.00818472
-0.0065233
-0.0049845
-0.00401319
-0.00324598
-0.00229933
-0.00120431
-0.000263813
9.19608e-05
0.000169698
0.000882606
0.00211081
0.00317772
0.0040255
0.00483048
0.00570604
0.00669864
0.00773486
0.00876951
0.00983732
0.0109167
0.0120273
0.0131767
0.0143973
0.0156913
0.0170497
0.0183829
0.0197425
0.0211946
0.0227026
0.0243001
0.0258792
0.0275486
0.0292167
0.0310063
0.0328168
0.0347118
0.0366888
0.0386492
0.040822
0.0428628
0.0451612
0.0474475
0.0492562
0.0516859
-0.00154023
-0.00842618
-0.011361
-0.0106293
-0.00941572
-0.00815722
-0.00650617
-0.00497569
-0.00400836
-0.00324211
-0.00229688
-0.00120358
-0.000262887
9.40001e-05
0.000172112
0.000885484
0.00211386
0.00318011
0.00402726
0.00483187
0.00570713
0.00669957
0.00773567
0.00877021
0.00983796
0.0109173
0.0120277
0.0131771
0.0143977
0.0156916
0.01705
0.0183832
0.0197427
0.0211948
0.0227028
0.0243003
0.0258794
0.0275488
0.0292169
0.0310065
0.032817
0.0347119
0.036689
0.0386493
0.0408221
0.0428629
0.0451613
0.0474476
0.0492565
0.0516859
-0.0017525
-0.00828488
-0.0111881
-0.0105396
-0.00937045
-0.00812875
-0.00648812
-0.00496626
-0.00400309
-0.00323767
-0.00229404
-0.00120317
-0.000262707
9.53932e-05
0.000174277
0.000888706
0.00211757
0.00318307
0.0040294
0.00483352
0.00570841
0.00670064
0.0077366
0.00877102
0.0098387
0.010918
0.0120283
0.0131775
0.0143981
0.015692
0.0170504
0.0183835
0.019743
0.0211951
0.022703
0.0243006
0.0258796
0.027549
0.0292171
0.0310067
0.0328172
0.0347121
0.0366891
0.0386495
0.0408222
0.042863
0.0451614
0.0474478
0.0492569
0.0516861
-0.00196422
-0.00814361
-0.0110089
-0.0104455
-0.00932381
-0.00809955
-0.0064693
-0.00495628
-0.00399752
-0.00323291
-0.00229095
-0.00120312