/*--------------------------------*- C++ -*----------------------------------*\
| =========                 |                                                 |
| \\      /  F ield         | OpenFOAM: The Open Source CFD Toolbox           |
|  \\    /   O peration     | Version:  v2012                                 |
|   \\  /    A nd           | Website:  www.openfoam.com                      |
|    \\/     M anipulation  |                                                 |
\*---------------------------------------------------------------------------*/
FoamFile
{
    version     2.0;
    format      ascii;
    class       surfaceScalarField;
    location    "7.2";
    object      phi;
}
// * * * * * * * * * * * * * * * * * * * * * * * * * * * * * * * * * * * * * //

dimensions      [0 3 -1 0 0 0 0];
oriented        oriented;


internalField   nonuniform List<scalar> 
13830
(
9.38177e-07
-7.51691e-08
9.34392e-07
-4.88983e-07
9.35164e-07
-2.07171e-07
9.44916e-07
3.0665e-07
9.44606e-07
9.58121e-07
8.52623e-07
-1.0272e-06
9.5362e-07
1.33466e-06
8.25102e-07
-2.6657e-07
9.19764e-07
-2.2485e-07
8.68239e-07
-1.17181e-07
8.81055e-07
-5.21864e-07
9.06873e-07
5.92221e-08
9.0765e-07
-5.65005e-07
9.32828e-07
-1.024e-07
9.32331e-07
-4.24194e-07
9.56922e-07
-4.43726e-08
9.55168e-07
-1.49214e-07
9.76457e-07
8.56559e-08
9.75619e-07
4.39744e-08
1.43175e-07
9.76332e-07
9.73544e-07
-7.61815e-08
9.6976e-07
-4.85199e-07
9.70833e-07
-2.08244e-07
9.8069e-07
2.96793e-07
9.79983e-07
9.58828e-07
8.89487e-07
-9.367e-07
9.83505e-07
1.24065e-06
8.62084e-07
-1.45149e-07
9.53299e-07
-3.16066e-07
9.16186e-07
-8.00674e-08
9.22007e-07
-5.27685e-07
9.60938e-07
2.02915e-08
9.57586e-07
-5.61653e-07
9.84442e-07
-1.29256e-07
9.79445e-07
-4.19196e-07
1.00402e-06
-6.89466e-08
9.95553e-07
-1.40748e-07
1.02019e-06
6.10165e-08
1.0069e-06
5.72697e-08
1.21644e-07
1.02843e-06
1.00989e-06
-7.66155e-08
1.00651e-06
-4.81819e-07
1.00819e-06
-2.09927e-07
1.0174e-06
2.87579e-07
1.01633e-06
9.59903e-07
9.32249e-07
-8.52621e-07
1.01385e-06
1.15904e-06
9.12526e-07
-4.38203e-08
9.8795e-07
-3.9149e-07
9.77103e-07
-6.92204e-08
9.63911e-07
-5.14493e-07
1.01535e-06
-3.1148e-08
1.00201e-06
-5.48309e-07
1.0353e-06
-1.62548e-07
1.01929e-06
-4.03187e-07
1.04698e-06
-9.66422e-08
1.03252e-06
-1.26284e-07
1.05468e-06
3.88592e-08
1.04532e-06
6.66292e-08
1.10222e-07
1.05674e-06
1.04738e-06
-7.62149e-08
1.04464e-06
-4.7908e-07
1.04714e-06
-2.12425e-07
1.05512e-06
2.79594e-07
1.05371e-06
9.61318e-07
9.80973e-07
-7.79888e-07
1.0461e-06
1.09392e-06
9.72384e-07
2.98916e-08
1.02407e-06
-4.43173e-07
1.03778e-06
-8.29293e-08
1.0057e-06
-4.82422e-07
1.05803e-06
-8.34707e-08
1.04048e-06
-5.30763e-07
1.07151e-06
-1.93577e-07
1.05423e-06
-3.85911e-07
1.07578e-06
-1.18189e-07
1.06713e-06
-1.17628e-07
1.08131e-06
2.46766e-08
1.08035e-06
6.75844e-08
1.04341e-07
1.08624e-06
1.08615e-06
-7.48139e-08
1.08409e-06
-4.77014e-07
1.08761e-06
-2.15948e-07
1.09384e-06
2.73367e-07
1.09239e-06
9.62766e-07
1.03416e-06
-7.21662e-07
1.08098e-06
1.0471e-06
1.03607e-06
7.48012e-08
1.06087e-06
-4.6797e-07
1.08851e-06
-1.10574e-07
1.04756e-06
-4.41471e-07
1.09011e-06
-1.26018e-07
1.07597e-06
-5.16626e-07
1.09999e-06
-2.17597e-07
1.08871e-06
-3.74632e-07
1.10324e-06
-1.32723e-07
1.10146e-06
-1.15843e-07
1.11055e-06
1.55807e-08
1.11354e-06
6.45975e-08
1.00275e-07
1.11761e-06
1.1264e-06
-7.23755e-08
1.12481e-06
-4.75419e-07
1.12947e-06
-2.2061e-07
1.13358e-06
2.6926e-07
1.13269e-06
9.63649e-07
1.08969e-06
-6.78659e-07
1.11986e-06
1.01693e-06
1.09859e-06
9.60745e-08
1.09951e-06
-4.68888e-07
1.12882e-06
-1.39891e-07
1.09107e-06
-4.03714e-07
1.12055e-06
-1.55505e-07
1.1122e-06
-5.08275e-07
1.13037e-06
-2.35766e-07
1.12567e-06
-3.69932e-07
1.13721e-06
-1.44259e-07
1.13914e-06
-1.1777e-07
1.14633e-06
8.38207e-09
1.14991e-06
6.10199e-08
9.70453e-08
1.15314e-06
1.1683e-06
-6.89765e-08
1.16682e-06
-4.73938e-07
1.17254e-06
-2.26335e-07
1.17439e-06
2.67414e-07
1.17482e-06
9.63222e-07
1.14562e-06
-6.49462e-07
1.16381e-06
9.98748e-07
1.15809e-06
1.0179e-07
1.14173e-06
-4.52527e-07
1.16477e-06
-1.62935e-07
1.13646e-06
-3.754e-07
1.1556e-06
-1.74641e-07
1.1505e-06
-5.0318e-07
1.16598e-06
-2.51244e-07
1.16531e-06
-3.69261e-07
1.17747e-06
-1.56419e-07
1.1814e-06
-1.21702e-07
1.18867e-06
1.10839e-09
1.19217e-06
5.75237e-08
9.42955e-08
1.19492e-06
1.21197e-06
-6.4762e-08
1.21022e-06
-4.72188e-07
1.21673e-06
-2.3285e-07
1.21638e-06
2.67766e-07
1.21873e-06
9.60871e-07
1.20085e-06
-6.31584e-07
1.21267e-06
9.86935e-07
1.2153e-06
9.91564e-08
1.18823e-06
-4.25454e-07
1.20242e-06
-1.77129e-07
1.18276e-06
-3.55739e-07
1.19604e-06
-1.87925e-07
1.19073e-06
-4.97871e-07
1.20548e-06
-2.65992e-07
1.20663e-06
-3.70407e-07
1.22076e-06
-1.70547e-07
1.22663e-06
-1.27576e-07
1.23519e-06
-7.4494e-09
1.23946e-06
5.32472e-08
9.12637e-08
1.2425e-06
1.2575e-06
-5.99071e-08
1.25517e-06
-4.6986e-07
1.26209e-06
-2.39766e-07
1.25974e-06
2.7011e-07
1.26421e-06
9.56406e-07
1.25515e-06
-6.22526e-07
1.26522e-06
9.76864e-07
1.27157e-06
9.28049e-08
1.23849e-06
-3.92372e-07
1.24482e-06
-1.83457e-07
1.22964e-06
-3.40558e-07
1.24033e-06
-1.98613e-07
1.23286e-06
-4.90408e-07
1.24707e-06
-2.80202e-07
1.24886e-06
-3.72196e-07
1.26461e-06
-1.86296e-07
1.2726e-06
-1.35562e-07
1.283e-06
-1.78541e-08
1.28905e-06
4.71933e-08
8.69879e-08
1.29333e-06
1.30498e-06
-5.46097e-08
1.30188e-06
-4.66761e-07
1.3088e-06
-2.46686e-07
1.30478e-06
2.74134e-07
1.31099e-06
9.50191e-07
1.30876e-06
-6.20293e-07
1.31991e-06
9.65718e-07
1.3277e-06
8.50136e-08
1.29161e-06
-3.5629e-07
1.29243e-06
-1.84277e-07
1.27792e-06
-3.26048e-07
1.28734e-06
-2.08029e-07
1.27724e-06
-4.8031e-07
1.29024e-06
-2.93202e-07
1.29206e-06
-3.74008e-07
1.3084e-06
-2.02638e-07
1.31823e-06
-1.45399e-07
1.33042e-06
-3.00429e-08
1.33864e-06
3.8981e-08
8.0861e-08
1.34476e-06
1.35452e-06
-4.91093e-08
1.35056e-06
-4.62805e-07
1.35714e-06
-2.53263e-07
1.35186e-06
2.79411e-07
1.35899e-06
9.43061e-07
1.36203e-06
-6.23329e-07
1.37538e-06
9.52364e-07
1.38374e-06
7.66585e-08
1.34683e-06
-3.19378e-07
1.34455e-06
-1.81999e-07
1.32881e-06
-3.10309e-07
1.33712e-06
-2.16342e-07
1.32448e-06
-4.67668e-07
1.33547e-06
-3.04191e-07
1.33684e-06
-3.75374e-07
1.35266e-06
-2.18463e-07
1.36373e-06
-1.56464e-07
1.37723e-06
-4.35505e-08
1.38738e-06
2.88341e-08
7.28256e-08
1.39542e-06
1.40625e-06
-4.37025e-08
1.40142e-06
-4.57975e-07
1.40731e-06
-2.59154e-07
1.40139e-06
2.85331e-07
1.4084e-06
9.36047e-07
1.4153e-06
-6.30226e-07
1.43078e-06
9.3688e-07
1.4394e-06
6.8043e-08
1.40353e-06
-2.83503e-07
1.40021e-06
-1.78688e-07
1.3831e-06
-2.93193e-07
1.39022e-06
-2.23465e-07
1.37523e-06
-4.52677e-07
1.38351e-06
-3.12474e-07
1.38394e-06
-3.75802e-07
1.39824e-06
-2.32763e-07
1.40978e-06
-1.68001e-07
1.42401e-06
-5.77817e-08
1.43559e-06
1.72545e-08
6.31778e-08
1.44524e-06
1.46027e-06
-3.87284e-08
1.45459e-06
-4.52298e-07
1.45939e-06
-2.63948e-07
1.45366e-06
2.91062e-07
1.45969e-06
9.30017e-07
1.46901e-06
-6.39545e-07
1.48579e-06
9.20096e-07
1.4945e-06
5.93323e-08
1.46127e-06
-2.50274e-07
1.4586e-06
-1.76016e-07
1.44098e-06
-2.75573e-07
1.44699e-06
-2.29474e-07
1.42999e-06
-4.35677e-07
1.43506e-06
-3.17543e-07
1.43402e-06
-3.74763e-07
1.44588e-06
-2.44622e-07
1.4571e-06
-1.79224e-07
1.47146e-06
-7.21432e-08
1.48393e-06
4.78856e-09
5.23052e-08
1.4948e-06
1.51666e-06
-3.45174e-08
1.51019e-06
-4.45829e-07
1.51338e-06
-2.67136e-07
1.50884e-06
2.95605e-07
1.51348e-06
9.25371e-07
1.52376e-06
-6.49818e-07
1.54066e-06
9.03193e-07
1.54934e-06
5.06546e-08
1.51988e-06
-2.20813e-07
1.51901e-06
-1.75148e-07
1.50211e-06
-2.58677e-07
1.50728e-06
-2.34638e-07
1.48894e-06
-4.17336e-07
1.49058e-06
-3.19185e-07
1.48759e-06
-3.71779e-07
1.49622e-06
-2.53246e-07
1.50631e-06
-1.89313e-07
1.52019e-06
-8.60307e-08
1.53299e-06
-8.01181e-09
4.05821e-08
1.54472e-06
1.57541e-06
-3.13175e-08
1.56824e-06
-4.38661e-07
1.5693e-06
-2.68192e-07
1.56694e-06
2.97961e-07
1.57041e-06
9.21907e-07
1.58024e-06
-6.59645e-07
1.59611e-06
8.87316e-07
1.60474e-06
4.20293e-08
1.57947e-06
-1.95546e-07
1.58091e-06
-1.7659e-07
1.56582e-06
-2.43588e-07
1.57044e-06
-2.39252e-07
1.55178e-06
-3.98683e-07
1.55017e-06
-3.17568e-07
1.54497e-06
-3.66585e-07
1.54985e-06
-2.58121e-07
1.55798e-06
-1.9744e-07
1.57073e-06
-9.87809e-08
1.58325e-06
-2.05389e-08
2.84193e-08
1.59542e-06
1.63646e-06
-2.92322e-08
1.62873e-06
-4.30935e-07
1.62729e-06
-2.66747e-07
1.62788e-06
2.97365e-07
1.63087e-06
9.18921e-07
1.63897e-06
-6.67751e-07
1.65307e-06
8.73216e-07
1.66182e-06
3.32869e-08
1.64044e-06
-1.74172e-07
1.64402e-06
-1.80171e-07
1.63137e-06
-2.30939e-07
1.63557e-06
-2.43446e-07
1.61782e-06
-3.80935e-07
1.61348e-06
-3.13226e-07
1.60618e-06
-3.5929e-07
1.60726e-06
-2.59196e-07
1.6127e-06
-2.02879e-07
1.62362e-06
-1.09709e-07
1.63519e-06
-3.21039e-08
1.63588e-08
1.64725e-06
1.69972e-06
-2.82003e-08
1.69162e-06
-4.22835e-07
1.68761e-06
-2.62742e-07
1.69152e-06
2.93454e-07
1.69495e-06
9.15497e-07
1.70018e-06
-6.72986e-07
1.71238e-06
8.61019e-07
1.72156e-06
2.41079e-08
1.70325e-06
-1.55862e-07
1.70834e-06
-1.85258e-07
1.6982e-06
-2.20802e-07
1.70182e-06
-2.47064e-07
1.68607e-06
-3.65188e-07
1.67975e-06
-3.06903e-07
1.67086e-06
-3.50401e-07
1.66864e-06
-2.56973e-07
1.67094e-06
-2.0518e-07
1.67946e-06
-1.1823e-07
1.68937e-06
-4.20108e-08
5.10425e-09
1.70062e-06
1.76515e-06
-2.80287e-08
1.75688e-06
-4.14565e-07
1.75059e-06
-2.56457e-07
1.75776e-06
2.86285e-07
1.76242e-06
9.10838e-07
1.76379e-06
-6.74356e-07
1.77457e-06
8.50231e-07
1.78449e-06
1.41943e-08
1.76826e-06
-1.39635e-07
1.77409e-06
-1.91092e-07
1.7661e-06
-2.12808e-07
1.76872e-06
-2.49679e-07
1.75565e-06
-3.52123e-07
1.74809e-06
-2.99339e-07
1.73836e-06
-3.40671e-07
1.73377e-06
-2.52383e-07
1.73293e-06
-2.04344e-07
1.73871e-06
-1.24005e-07
1.74641e-06
-4.97133e-08
-4.57562e-09
1.75609e-06
1.83277e-06
-2.84631e-08
1.82452e-06
-4.06317e-07
1.81645e-06
-2.48382e-07
1.82651e-06
2.76224e-07
1.83285e-06
9.045e-07
1.82965e-06
-6.71163e-07
1.83988e-06
8.40005e-07
1.85061e-06
3.46485e-09
1.8357e-06
-1.24725e-07
1.84163e-06
-1.97023e-07
1.83527e-06
-2.06444e-07
1.83633e-06
-2.5074e-07
1.82609e-06
-3.41887e-07
1.81783e-06
-2.91082e-07
1.808e-06
-3.30832e-07
1.80213e-06
-2.46513e-07
1.7986e-06
-2.00818e-07
1.80164e-06
-1.27042e-07
1.80689e-06
-5.49707e-08
-1.20567e-08
1.81437e-06
1.9027e-06
-2.92609e-08
1.89463e-06
-3.9825e-07
1.88526e-06
-2.39015e-07
1.89772e-06
2.63771e-07
1.90579e-06
8.96425e-07
1.89783e-06
-6.63198e-07
1.90833e-06
8.29502e-07
1.91965e-06
-7.85533e-09
1.90572e-06
-1.10801e-07
1.91125e-06
-2.02552e-07
1.90618e-06
-2.01369e-07
1.90522e-06
-2.49785e-07
1.89751e-06
-3.34178e-07
1.88885e-06
-2.82414e-07
1.87935e-06
-3.2134e-07
1.87311e-06
-2.40265e-07
1.86764e-06
-1.95348e-07
1.86827e-06
-1.27673e-07
1.87121e-06
-5.79159e-08
-1.70797e-08
1.87624e-06
1.97508e-06
-3.02371e-08
1.96732e-06
-3.90486e-07
1.95699e-06
-2.28693e-07
1.97131e-06
2.49452e-07
1.98094e-06
8.86803e-07
1.96857e-06
-6.50828e-07
1.97991e-06
8.18158e-07
1.99135e-06
-1.92921e-08
1.9785e-06
-9.79547e-08
1.98318e-06
-2.07237e-07
1.97939e-06
-1.97574e-07
1.97621e-06
-2.466e-07
1.97047e-06
-3.28446e-07
1.96149e-06
-2.73431e-07
1.95242e-06
-3.12269e-07
1.94633e-06
-2.34174e-07
1.93969e-06
-1.8871e-07
1.93843e-06
-1.2641e-07
1.9395e-06
-5.89861e-08
-1.98371e-08
1.94225e-06
2.05009e-06
-3.1273e-08
2.04272e-06
-3.83117e-07
2.03159e-06
-2.17565e-07
2.04724e-06
2.33797e-07
2.05816e-06
8.75883e-07
2.04222e-06
-6.34883e-07
2.05465e-06
8.05727e-07
2.06562e-06
-3.02576e-08
2.0542e-06
-8.65412e-08
2.05758e-06
-2.10612e-07
2.05531e-06
-1.95303e-07
2.0499e-06
-2.41196e-07
2.04562e-06
-3.24167e-07
2.03639e-06
-2.64202e-07
2.02751e-06
-3.03384e-07
2.02174e-06
-2.28404e-07
2.01452e-06
-1.8149e-07
2.01186e-06
-1.23751e-07
2.01161e-06
-5.8733e-08
-2.08527e-08
2.01262e-06
2.12786e-06
-3.22967e-08
2.12097e-06
-3.76221e-07
2.10906e-06
-2.05656e-07
2.1255e-06
2.17351e-07
2.13754e-06
8.6385e-07
2.11903e-06
-6.16377e-07
2.13262e-06
7.92137e-07
2.14253e-06
-4.01702e-08
2.13297e-06
-7.69773e-08
2.13457e-06
-2.12211e-07
2.13407e-06
-1.94808e-07
2.12669e-06
-2.33807e-07
2.12343e-06
-3.20916e-07
2.11412e-06
-2.54884e-07
2.10505e-06
-2.9432e-07
2.09954e-06
-2.22891e-07
2.09205e-06
-1.73999e-07
2.08836e-06
-1.2006e-07
2.08725e-06
-5.76317e-08
-2.07397e-08
2.08714e-06
2.20854e-06
-3.32526e-08
2.20218e-06
-3.69865e-07
2.1895e-06
-1.92974e-07
2.20619e-06
2.00664e-07
2.21923e-06
8.50811e-07
2.19908e-06
-5.96233e-07
2.2139e-06
7.7732e-07
2.22225e-06
-4.85161e-08
2.21487e-06
-6.96001e-08
2.21432e-06
-2.11662e-07
2.21575e-06
-1.96235e-07
2.20669e-06
-2.24755e-07
2.20414e-06
-3.18359e-07
2.19497e-06
-2.45715e-07
2.1854e-06
-2.8475e-07
2.18002e-06
-2.17511e-07
2.17238e-06
-1.66354e-07
2.16782e-06
-1.15502e-07
2.16619e-06
-5.6002e-08
-1.99805e-08
2.16543e-06
2.29222e-06
-3.40777e-08
2.28647e-06
-3.64117e-07
2.27309e-06
-1.79593e-07
2.2895e-06
1.84252e-07
2.30346e-06
8.3685e-07
2.28236e-06
-5.75131e-07
2.29857e-06
7.61114e-07
2.30492e-06
-5.48668e-08
2.29993e-06
-6.46147e-08
2.29703e-06
-2.08761e-07
2.30032e-06
-1.99528e-07
2.28998e-06
-2.14413e-07
2.28779e-06
-3.16163e-07
2.27906e-06
-2.36991e-07
2.26878e-06
-2.7447e-07
2.2634e-06
-2.12128e-07
2.25569e-06
-1.58645e-07
2.25026e-06
-1.1007e-07
2.24832e-06
-5.40663e-08
-1.88612e-08
2.2472e-06
2.379e-06
-3.46921e-08
2.37392e-06
-3.59034e-07
2.36e-06
-1.65673e-07
2.37571e-06
1.68537e-07
2.39048e-06
8.22077e-07
2.36884e-06
-5.53491e-07
2.38669e-06
7.43265e-07
2.3907e-06
-5.88773e-08
2.38819e-06
-6.21024e-08
2.38294e-06
-2.03506e-07
2.38786e-06
-2.04448e-07
2.37661e-06
-2.03165e-07
2.3744e-06
-3.13956e-07
2.3664e-06
-2.28991e-07
2.35533e-06
-2.634e-07
2.34982e-06
-2.06615e-07
2.34203e-06
-1.50852e-07
2.3357e-06
-1.03739e-07
2.33374e-06
-5.21064e-08
-1.7514e-08
2.33239e-06
2.46899e-06
-3.50033e-08
2.46461e-06
-3.54653e-07
2.45038e-06
-1.51448e-07
2.46511e-06
1.53816e-07
2.48054e-06
8.06638e-07
2.45857e-06
-5.31522e-07
2.47834e-06
7.23495e-07
2.47976e-06
-6.02973e-08
2.47971e-06
-6.20504e-08
2.47226e-06
-1.9605e-07
2.47844e-06
-2.10629e-07
2.4667e-06
-1.9143e-07
2.46406e-06
-3.11314e-07
2.45701e-06
-2.21936e-07
2.44516e-06
-2.51555e-07
2.43944e-06
-2.00892e-07
2.431e-06
-1.42413e-07
2.42404e-06
-9.67771e-08
2.42263e-06
-5.06987e-08
-1.59374e-08
2.42105e-06
2.56232e-06
-3.49209e-08
2.55864e-06
-3.50973e-07
2.54439e-06
-1.37197e-07
2.55795e-06
1.40253e-07
2.57391e-06
7.90675e-07
2.55167e-06
-5.09277e-07
2.57359e-06
7.01572e-07
2.57228e-06
-5.89867e-08
2.57461e-06
-6.43783e-08
2.56517e-06
-1.86612e-07
2.5722e-06
-2.17656e-07
2.56041e-06
-1.7964e-07
2.55692e-06
-3.07831e-07
2.55092e-06
-2.15929e-07
2.53836e-06
-2.39001e-07
2.53241e-06
-1.94938e-07
2.52843e-06
-1.38438e-07
2.52317e-06
-9.15105e-08
2.51521e-06
-4.27464e-08
-1.40767e-08
2.51335e-06
2.65913e-06
-3.43729e-08
2.6561e-06
-3.47945e-07
2.6421e-06
-1.23196e-07
2.65445e-06
1.27903e-07
2.67085e-06
7.74274e-07
2.64827e-06
-4.86697e-07
2.6725e-06
6.77346e-07
2.66844e-06
-5.49234e-08
2.67299e-06
-6.89325e-08
2.66184e-06
-1.75462e-07
2.66927e-06
-2.25086e-07
2.65788e-06
-1.68255e-07
2.65314e-06
-3.0309e-07
2.64824e-06
-2.11023e-07
2.63546e-06
-2.26222e-07
2.62739e-06
-1.86866e-07
2.61907e-06
-1.30123e-07
2.6121e-06
-8.45346e-08
2.61124e-06
-4.18935e-08
-1.23378e-08
2.6095e-06
2.7596e-06
-3.33206e-08
2.75713e-06
-3.45475e-07
2.74362e-06
-1.09687e-07
2.75479e-06
1.16738e-07
2.77161e-06
7.57446e-07
2.74857e-06
-4.63654e-07
2.77513e-06
6.5079e-07
2.76845e-06
-4.82462e-08
2.77495e-06
-7.54336e-08
2.76244e-06
-1.62952e-07
2.76973e-06
-2.3237e-07
2.75937e-06
-1.57901e-07
2.75283e-06
-2.9655e-07
2.74923e-06
-2.07426e-07
2.7363e-06
-2.13285e-07
2.72658e-06
-1.77151e-07
2.71774e-06
-1.21284e-07
2.71066e-06
-7.74544e-08
2.71139e-06
-4.2624e-08
-1.03485e-08
2.70941e-06
2.8639e-06
-3.17648e-08
2.86186e-06
-3.4343e-07
2.84902e-06
-9.68538e-08
2.85908e-06
1.06684e-07
2.87642e-06
7.40108e-07
2.85273e-06
-4.39966e-07
2.88155e-06
6.21972e-07
2.87248e-06
-3.91774e-08
2.88058e-06
-8.35384e-08
2.86716e-06
-1.49529e-07
2.87367e-06
-2.38882e-07
2.86507e-06
-1.49294e-07
2.85611e-06
-2.87591e-07
2.85401e-06
-2.05332e-07
2.84206e-06
-2.01327e-07
2.83826e-06
-1.73354e-07
2.83522e-06
-1.18248e-07
2.82979e-06
-7.20262e-08
2.81604e-06
-2.88701e-08
-7.39509e-09
2.81309e-06
2.97222e-06
-2.97403e-08
2.97046e-06
-3.4167e-07
2.9584e-06
-8.47959e-08
2.96743e-06
9.76545e-08
2.98545e-06
7.2209e-07
2.96091e-06
-4.15432e-07
2.99185e-06
5.91038e-07
2.98068e-06
-2.80094e-08
2.99001e-06
-9.28693e-08
2.97608e-06
-1.35598e-07
2.98138e-06
-2.44182e-07
2.975e-06
-1.42918e-07
2.96349e-06
-2.76077e-07
2.96256e-06
-2.04402e-07
2.94668e-06
-1.85446e-07
2.93685e-06
-1.63531e-07
2.92674e-06
-1.08132e-07
2.91988e-06
-6.51668e-08
2.92347e-06
-3.24617e-08
-5.00689e-09
2.92108e-06
3.08473e-06
-2.73063e-08
3.08312e-06
-3.40069e-07
3.07187e-06
-7.35426e-08
3.07992e-06
8.96065e-08
3.09887e-06
7.03144e-07
3.0733e-06
-3.89867e-07
3.10613e-06
5.5821e-07
3.09321e-06
-1.50945e-08
3.10337e-06
-1.03022e-07
3.08932e-06
-1.21555e-07
3.09312e-06
-2.4798e-07
3.08885e-06
-1.38642e-07
3.07572e-06
-2.62952e-07
3.07532e-06
-2.04001e-07
3.06535e-06
-1.75477e-07
3.0628e-06
-1.60974e-07
3.05944e-06
-1.04776e-07
3.05409e-06
-5.98204e-08
3.03658e-06
-1.49517e-08
-1.34196e-09
3.03292e-06
3.2016e-06
-2.45411e-08
3.20005e-06
-3.38526e-07
3.1896e-06
-6.30862e-08
3.19662e-06
8.25862e-08
3.21681e-06
6.82948e-07
3.19004e-06
-3.63093e-07
3.22453e-06
5.23721e-07
3.21024e-06
-8.03855e-10
3.22082e-06
-1.13601e-07
3.20699e-06
-1.07726e-07
3.20928e-06
-2.50271e-07
3.20584e-06
-1.35209e-07
3.19392e-06
-2.51028e-07
3.19152e-06
-2.01597e-07
3.18236e-06
-1.66326e-07
3.16347e-06
-1.42075e-07
3.15362e-06
-9.49337e-08
3.14886e-06
-5.50529e-08
3.15157e-06
-1.76649e-08
5.79808e-10
3.14965e-06
3.32299e-06
-2.15233e-08
3.32147e-06
-3.36998e-07
3.31171e-06
-5.33334e-08
3.31769e-06
7.66151e-08
3.3393e-06
6.61329e-07
3.3114e-06
-3.35184e-07
3.34708e-06
4.88041e-07
3.33202e-06
1.4251e-08
3.34233e-06
-1.2391e-07
3.3297e-06
-9.50944e-08
3.32944e-06
-2.50011e-07
3.3283e-06
-1.3407e-07
3.31531e-06
-2.38035e-07
3.30632e-06
-1.9261e-07
3.29327e-06
-1.53275e-07
3.28255e-06
-1.31356e-07
3.27333e-06
-8.57178e-08
3.2684e-06
-5.01162e-08
3.27247e-06
-2.17378e-08
2.54404e-09
3.2705e-06
3.44909e-06
-1.83343e-08
3.44755e-06
-3.35459e-07
3.43844e-06
-4.42235e-08
3.44322e-06
7.18405e-08
3.46644e-06
6.38104e-07
3.43753e-06
-3.06271e-07
3.47392e-06
4.51652e-07
3.4588e-06
2.93751e-08
3.46804e-06
-1.33148e-07
3.45782e-06
-8.48814e-08
3.45352e-06
-2.45712e-07
3.45593e-06
-1.36475e-07
3.43764e-06
-2.19749e-07
3.44262e-06
-1.97589e-07
3.43556e-06
-1.46217e-07
3.43159e-06
-1.27384e-07
3.42837e-06
-8.25006e-08
3.42269e-06
-4.44287e-08
3.40019e-06
7.57345e-10
7.15345e-09
3.39558e-06
3.58006e-06
-1.50442e-08
3.57846e-06
-3.33866e-07
3.57007e-06
-3.58348e-08
3.57325e-06
6.86685e-08
3.59847e-06
6.12878e-07
3.56849e-06
-2.76288e-07
3.6055e-06
4.14644e-07
3.59022e-06
4.4649e-08
3.59878e-06
-1.41707e-07
3.58953e-06
-7.56269e-08
3.58478e-06
-2.40969e-07
3.58482e-06
-1.36507e-07
3.57106e-06
-2.05994e-07
3.56036e-06
-1.86889e-07
3.54858e-06
-1.34439e-07
3.53569e-06
-1.14491e-07
3.52682e-06
-7.36308e-08
3.52321e-06
-4.08173e-08
3.52823e-06
-4.26753e-09
8.88525e-09
3.5265e-06
3.71603e-06
-1.16884e-08
3.71442e-06
-3.3226e-07
3.70668e-06
-2.80937e-08
3.70817e-06
6.71817e-08
3.73523e-06
5.85813e-07
3.70472e-06
-2.4578e-07
3.74153e-06
3.77842e-07
3.7271e-06
5.90718e-08
3.73386e-06
-1.48468e-07
3.72719e-06
-6.89543e-08
3.72012e-06
-2.33894e-07
3.7211e-06
-1.37492e-07
3.71018e-06
-1.95075e-07
3.69445e-06
-1.7116e-07
3.683e-06
-1.22988e-07
3.6703e-06
-1.01785e-07
3.66073e-06
-6.40638e-08
3.6569e-06
-3.69894e-08
3.66368e-06
-1.10499e-08
1.06051e-08
3.66196e-06
3.85721e-06
-8.30924e-09
3.85558e-06
-3.30626e-07
3.84853e-06
-2.10438e-08
3.8482e-06
6.75069e-08
3.87693e-06
5.57089e-07
3.84639e-06
-2.15244e-07
3.88213e-06
3.42101e-07
3.86986e-06
7.13399e-08
3.87316e-06
-1.51764e-07
3.87125e-06
-6.70413e-08
3.85675e-06
-2.19401e-07
3.86279e-06
-1.43526e-07
3.84241e-06
-1.74702e-07
3.85215e-06
-1.80898e-07
3.84819e-06
-1.19031e-07
3.84489e-06
-9.84851e-08
3.84087e-06
-6.00365e-08
3.83373e-06
-2.98499e-08
3.8078e-06
1.48773e-08
1.6554e-08
3.80185e-06
4.00379e-06
-4.94604e-09
4.00201e-06
-3.28846e-07
3.99599e-06
-1.50238e-08
3.99328e-06
7.02221e-08
4.02408e-06
5.26285e-07
3.9932e-06
-1.84363e-07
4.02862e-06
3.06684e-07
4.01649e-06
8.34638e-08
4.02032e-06
-1.55592e-07
4.0161e-06
-6.28166e-08
4.00852e-06
-2.11826e-07
4.01186e-06
-1.4687e-07
4.00208e-06
-1.64915e-07
3.9784e-06
-1.57219e-07
3.96715e-06
-1.0778e-07
3.95475e-06
-8.60882e-08
3.9458e-06
-5.10862e-08
3.94249e-06
-2.65375e-08
3.95022e-06
7.14886e-09
1.80132e-08
3.94876e-06
4.15593e-06
-1.59146e-09
4.15402e-06
-3.2694e-07
4.14898e-06
-9.97904e-09
4.14422e-06
7.49827e-08
4.17622e-06
4.94286e-07
4.14606e-06
-1.54212e-07
4.17982e-06
2.7293e-07
4.16955e-06
9.37351e-08
4.17189e-06
-1.57935e-07
4.16798e-06
-5.89047e-08
4.16081e-06
-2.04658e-07
4.15076e-06
-1.36816e-07
4.13759e-06
-1.51745e-07
4.12684e-06
-1.46473e-07
4.11765e-06
-9.85863e-08
4.10551e-06
-7.39524e-08
4.0964e-06
-4.1971e-08
4.0925e-06
-2.26402e-08
4.10174e-06
-2.09285e-09
1.93489e-08
4.1004e-06
4.31386e-06
1.73378e-09
4.31179e-06
-3.24866e-07
4.30775e-06
-5.93812e-09
4.30123e-06
8.14979e-08
4.33363e-06
4.61885e-07
4.30533e-06
-1.25911e-07
4.33537e-06
2.42894e-07
4.32986e-06
9.92453e-08
4.32685e-06
-1.54931e-07
4.32856e-06
-6.06156e-08
4.31008e-06
-1.8617e-07
4.32502e-06
-1.51762e-07
4.31659e-06
-1.43315e-07
4.31248e-06
-1.42365e-07
4.30834e-06
-9.44469e-08
4.30757e-06
-7.31784e-08
4.30375e-06
-3.81469e-08
4.29417e-06
-1.30647e-08
4.26445e-06
2.76311e-08
2.70468e-08
4.25675e-06
4.47785e-06
4.96901e-09
4.47533e-06
-3.22341e-07
4.47286e-06
-3.46744e-09
4.46395e-06
9.04036e-08
4.49748e-06
4.2835e-07
4.4698e-06
-9.82304e-08
4.49927e-06
2.13426e-07
4.49226e-06
1.06261e-07
4.4929e-06
-1.55571e-07
4.48817e-06
-5.58877e-08
4.4832e-06
-1.81197e-07
4.47094e-06
-1.39508e-07
4.45951e-06
-1.31887e-07
4.44391e-06
-1.2676e-07
4.43618e-06
-8.67214e-08
4.42452e-06
-6.15173e-08
4.41709e-06
-3.07161e-08
4.41312e-06
-9.09629e-09
4.42275e-06
1.80013e-08
2.84185e-08
4.42138e-06
4.64802e-06
8.15455e-09
4.64516e-06
-3.1948e-07
4.6439e-06
-2.20494e-09
4.63369e-06
1.00609e-07
4.66659e-06
3.95451e-07
4.64177e-06
-7.34074e-08
4.66669e-06
1.88506e-07
4.66375e-06
1.09201e-07
4.6613e-06
-1.53119e-07
4.65583e-06
-5.04196e-08
4.64279e-06
-1.6816e-07
4.63878e-06
-1.35498e-07
4.63122e-06
-1.24327e-07
4.61176e-06
-1.07302e-07
4.60485e-06
-7.9809e-08
4.59386e-06
-5.05245e-08
4.58607e-06
-2.29266e-08
4.58176e-06
-4.78444e-09
4.59268e-06
7.08119e-09
2.99095e-08
4.59119e-06
4.82468e-06
1.12592e-08
4.82143e-06
-3.16228e-07
4.82131e-06
-2.08273e-09
4.81048e-06
1.11441e-07
4.84134e-06
3.64586e-07
4.8216e-06
-5.36707e-08
4.83808e-06
1.72026e-07
4.84519e-06
1.02091e-07
4.83084e-06
-1.38765e-07
4.84226e-06
-6.18412e-08
4.81487e-06
-1.40768e-07
4.8195e-06
-1.40128e-07
4.81031e-06
-1.15139e-07
4.82351e-06
-1.20503e-07
4.82432e-06
-8.0618e-08
4.82651e-06
-5.27173e-08
4.82226e-06
-1.8669e-08
4.81e-06
7.47434e-09
4.77619e-06
4.08888e-08
4.05529e-08
4.76555e-06
5.00816e-06
1.41684e-08
5.00409e-06
-3.12158e-07
5.00578e-06
-3.7691e-09
4.99338e-06
1.23842e-07
5.02429e-06
3.33676e-07
5.00491e-06
-3.42949e-08
5.02293e-06
1.54011e-07
5.0246e-06
1.00419e-07
5.01558e-06
-1.29745e-07
5.01552e-06
-6.17786e-08
4.99937e-06
-1.24618e-07
4.99492e-06
-1.35678e-07
4.98615e-06
-1.06376e-07
4.97081e-06
-1.0516e-07
4.96154e-06
-7.13437e-08
4.95437e-06
-4.55534e-08
4.94468e-06
-8.9752e-09
4.94097e-06
1.11815e-08
4.95232e-06
2.95417e-08
4.26895e-08
4.95018e-06
5.19853e-06
1.69488e-08
5.19391e-06
-3.0754e-07
5.19669e-06
-6.54257e-09
5.18425e-06
1.36282e-07
5.21308e-06
3.04846e-07
5.19611e-06
-1.73322e-08
5.21386e-06
1.36262e-07
5.2115e-06
1.02777e-07
5.20878e-06
-1.27024e-07
5.2027e-06
-5.56919e-08
5.19105e-06
-1.12973e-07
5.18066e-06
-1.2529e-07
5.17513e-06
-1.00839e-07
5.16039e-06
-9.04206e-08
5.15203e-06
-6.29856e-08
5.14389e-06
-3.74162e-08
5.14094e-06
-6.01762e-09
5.13884e-06
1.32732e-08
5.14026e-06
2.8123e-08
4.24072e-08
5.14055e-06
5.39621e-06
1.9516e-08
5.39087e-06
-3.02197e-07
5.39474e-06
-1.04118e-08
5.3829e-06
1.48115e-07
5.40812e-06
2.79626e-07
5.39559e-06
-4.80139e-09
5.40916e-06
1.22697e-07
5.40921e-06
1.02725e-07
5.40158e-06
-1.19395e-07
5.3998e-06
-5.39108e-08
5.38602e-06
-9.91985e-08
5.37652e-06
-1.15789e-07
5.37014e-06
-9.44523e-08
5.35799e-06
-7.82699e-08
5.34897e-06
-5.39735e-08
5.34246e-06
-3.09044e-08
5.34004e-06
-3.59364e-09
5.33849e-06
1.48194e-08
5.33708e-06
2.95364e-08
4.16756e-08
5.33781e-06
5.60146e-06
2.1797e-08
5.59518e-06
-2.95919e-07
5.60025e-06
-1.54845e-08
5.58917e-06
1.59198e-07
5.61107e-06
2.57729e-07
5.60164e-06
4.62109e-09
5.61293e-06
1.11415e-07
5.61359e-06
1.0206e-07
5.60392e-06
-1.09722e-07
5.60377e-06
-5.37606e-08
5.5897e-06
-8.51325e-08
5.58012e-06
-1.06209e-07
5.57299e-06
-8.73188e-08
5.56302e-06
-6.83025e-08
5.55388e-06
-4.48324e-08
5.54806e-06
-2.50836e-08
5.54431e-06
1.55196e-10
5.54141e-06
1.7717e-08
5.54155e-06
2.93994e-08
4.06956e-08
5.54253e-06
5.81448e-06
2.37997e-08
5.80743e-06
-2.88871e-07
5.81322e-06
-2.12781e-08
5.80401e-06
1.68408e-07
5.82151e-06
2.40234e-07
5.81537e-06
1.07564e-08
5.82443e-06
1.02356e-07
5.82576e-06
1.0073e-07
5.81465e-06
-9.8613e-08
5.81501e-06
-5.41186e-08
5.80147e-06
-7.15906e-08
5.7916e-06
-9.63451e-08
5.78411e-06
-7.98216e-08
5.77575e-06
-5.99468e-08
5.7667e-06
-3.57793e-08
5.76106e-06
-1.94482e-08
5.7581e-06
3.11425e-09
5.75698e-06
1.88379e-08
5.75424e-06
3.21387e-08
3.97533e-08
5.75519e-06
6.03566e-06
2.54414e-08
6.02771e-06
-2.8092e-07
6.03418e-06
-2.77522e-08
6.02728e-06
1.75313e-07
6.04052e-06
2.26989e-07
6.03672e-06
1.45553e-08
6.04415e-06
9.49249e-08
6.04587e-06
9.90135e-08
6.03381e-06
-8.65539e-08
6.034e-06
-5.43101e-08
6.02175e-06
-5.93346e-08
6.01143e-06
-8.60286e-08
6.00359e-06
-7.19795e-08
5.99627e-06
-5.2631e-08
5.98768e-06
-2.71918e-08
5.98194e-06
-1.37058e-08
5.97793e-06
7.12232e-09
5.97369e-06
2.30775e-08
5.97524e-06
3.05899e-08
3.90091e-08
5.97599e-06
6.26525e-06
2.66919e-08
6.25638e-06
-2.72055e-07
6.26337e-06
-3.47404e-08
6.25895e-06
1.79738e-07
6.26854e-06
2.17396e-07
6.26591e-06
1.71904e-08
6.27247e-06
8.83615e-08
6.27417e-06
9.73181e-08
6.26172e-06
-7.41115e-08
6.26143e-06
-5.40151e-08
6.25053e-06
-4.84344e-08
6.23973e-06
-7.52316e-08
6.23148e-06
-6.3733e-08
6.22501e-06
-4.61608e-08
6.21707e-06
-1.92443e-08
6.21142e-06
-8.05623e-09
6.20883e-06
9.70664e-09
6.20879e-06
2.31206e-08
6.20489e-06
3.44856e-08
3.89224e-08
6.20498e-06
6.50359e-06
2.751e-08
6.49379e-06
-2.62257e-07
6.50121e-06
-4.2163e-08
6.49913e-06
1.81822e-07
6.50585e-06
2.10672e-07
6.50331e-06
1.97283e-08
6.50975e-06
8.19278e-08
6.51116e-06
9.59091e-08
6.49858e-06
-6.15396e-08
6.49732e-06
-5.27505e-08
6.48788e-06
-3.89958e-08
6.47701e-06
-6.43623e-08
6.46847e-06
-5.51951e-08
6.46239e-06
-4.00792e-08
6.45539e-06
-1.22468e-08
6.44956e-06
-2.22385e-09
6.44544e-06
1.38287e-08
6.44163e-06
2.69336e-08
6.4432e-06
3.29163e-08
3.90797e-08
6.44304e-06
6.75101e-06
2.78414e-08
6.74023e-06
-2.51481e-07
6.74795e-06
-4.9877e-08
6.74815e-06
1.81617e-07
6.75268e-06
2.06145e-07
6.74973e-06
2.26804e-08
6.75603e-06
7.56237e-08
6.75709e-06
9.48456e-08
6.74457e-06
-4.90142e-08
6.74241e-06
-5.05921e-08
6.73439e-06
-3.09731e-08
6.72363e-06
-5.36075e-08
6.71463e-06
-4.61981e-08
6.70859e-06
-3.40393e-08
6.70249e-06
-6.14659e-09
6.6967e-06
3.57308e-09
6.69418e-06
1.63479e-08
6.69387e-06
2.72433e-08
6.69087e-06
3.59159e-08
3.97086e-08
6.69024e-06
7.00782e-06
2.76693e-08
6.99606e-06
-2.39717e-07
7.00406e-06
-5.78794e-08
7.00629e-06
1.7939e-07
7.0093e-06
2.03129e-07
7.0056e-06
2.63812e-08
7.01163e-06
6.95921e-08
7.01266e-06
9.38249e-08
7.00018e-06
-3.65356e-08
6.99691e-06
-4.73303e-08
6.98991e-06
-2.3971e-08
6.97966e-06
-4.33527e-08
6.97044e-06
-3.69833e-08
6.96431e-06
-2.79067e-08
6.95916e-06
-9.98736e-10
6.95361e-06
9.12474e-09
6.94977e-06
2.0188e-08
6.94637e-06
3.06474e-08
6.94741e-06
3.48694e-08
4.03377e-08
6.94678e-06
7.27442e-06
2.69401e-08
7.26159e-06
-2.26889e-07
7.26981e-06
-6.61019e-08
7.27394e-06
1.75264e-07
7.27701e-06
2.00058e-07
7.27149e-06
3.19048e-08
7.27687e-06
6.42105e-08
7.27793e-06
9.27628e-08
7.26552e-06
-2.41231e-08
7.26134e-06
-4.31537e-08
7.25522e-06
-1.78479e-08
7.2456e-06
-3.37382e-08
7.23633e-06
-2.77113e-08
7.22988e-06
-2.14559e-08
7.22539e-06
3.49662e-09
7.22011e-06
1.44029e-08
7.21727e-06
2.30297e-08
7.2167e-06
3.12087e-08
7.21393e-06
3.7643e-08
4.07896e-08
7.21348e-06
7.5511e-06
2.5667e-08
7.5373e-06
-2.13084e-07
7.54561e-06
-7.44169e-08
7.55154e-06
1.69339e-07
7.55503e-06
1.96568e-07
7.54675e-06
4.01821e-08
7.55212e-06
5.88478e-08
7.55352e-06
9.13542e-08
7.54117e-06
-1.1773e-08
7.53606e-06
-3.80421e-08
7.53035e-06
-1.21373e-08
7.52159e-06
-2.49754e-08
7.51258e-06
-1.86998e-08
7.50575e-06
-1.46267e-08
7.5016e-06
7.64565e-09
7.49668e-06
1.93248e-08
7.49321e-06
2.64958e-08
7.49019e-06
3.42295e-08
7.49068e-06
3.7157e-08
4.0967e-08
7.4905e-06
7.83829e-06
2.38365e-08
7.82383e-06
-1.98633e-07
7.83159e-06
-8.2168e-08
7.83973e-06
1.61194e-07
7.83854e-06
1.9776e-07
7.8316e-06
4.71177e-08
7.83813e-06
5.23218e-08
7.83955e-06
8.9934e-08
7.82731e-06
4.62785e-10
7.82147e-06
-3.22028e-08
7.81611e-06
-6.77678e-09
7.80804e-06
-1.68982e-08
7.79941e-06
-1.00699e-08
7.79216e-06
-7.3836e-09
7.78828e-06
1.15292e-08
7.78407e-06
2.35335e-08
7.7816e-06
2.89638e-08
7.7806e-06
3.52273e-08
7.77808e-06
3.9678e-08
4.12439e-08
7.77781e-06
8.13632e-06
2.14797e-08
8.12123e-06
-1.83548e-07
8.12824e-06
-8.91751e-08
8.13943e-06
1.50003e-07
8.14472e-06
1.92476e-07
8.14185e-06
4.99848e-08
8.13752e-06
5.66493e-08
8.13619e-06
9.12692e-08
8.1246e-06
1.20481e-08
8.11808e-06
-2.5682e-08
8.11282e-06
-1.51649e-09
8.10528e-06
-9.35451e-09
8.09736e-06
-2.15914e-09
8.09007e-06
-9.10349e-11
8.08621e-06
1.53931e-08
8.08235e-06
2.73933e-08
8.07899e-06
3.23234e-08
8.07621e-06
3.80076e-08
8.07648e-06
3.94084e-08
4.18018e-08
8.07592e-06
8.44567e-06
1.85736e-08
8.4292e-06
-1.67079e-07
8.43676e-06
-9.67327e-08
8.44854e-06
1.38218e-07
8.45094e-06
1.90078e-07
8.43823e-06
6.26899e-08
8.44146e-06
5.34245e-08
8.44436e-06
8.83628e-08
8.43336e-06
2.30572e-08
8.42614e-06
-1.84628e-08