/*--------------------------------*- C++ -*----------------------------------*\
| =========                 |                                                 |
| \\      /  F ield         | OpenFOAM: The Open Source CFD Toolbox           |
|  \\    /   O peration     | Version:  v2012                                 |
|   \\  /    A nd           | Website:  www.openfoam.com                      |
|    \\/     M anipulation  |                                                 |
\*---------------------------------------------------------------------------*/
FoamFile
{
    version     2.0;
    format      ascii;
    class       volVectorField;
    location    "7.2";
    object      U;
}
// * * * * * * * * * * * * * * * * * * * * * * * * * * * * * * * * * * * * * //

dimensions      [0 1 -1 0 0 0 0];


internalField   nonuniform List<vector> 
7000
(
(0.993814 -0.000594538 0)
(1.00822 -0.00443094 0)
(0.987658 -0.00210533 0)
(1.00667 0.00360019 0)
(1.01044 0.0124733 0)
(1.00688 -0.0159838 0)
(0.824211 0.0230166 0)
(1.19338 -0.00672578 0)
(0.594553 -0.00306732 0)
(1.33671 -0.00362693 0)
(0.55331 -0.0139107 0)
(1.29144 0.00237501 0)
(0.674883 -0.019454 0)
(1.23889 -0.00317104 0)
(0.768816 -0.0186342 0)
(1.2084 -0.00111126 0)
(0.841473 -0.00853958 0)
(1.19018 0.00643142 0)
(0.893365 0.00273241 0)
(1.17618 0.0121689 0)
(0.994851 -0.000604169 0)
(1.00665 -0.00439351 0)
(0.988874 -0.0021091 0)
(1.00611 0.00348055 0)
(1.01053 0.0123881 0)
(1.006 -0.0143854 0)
(0.832981 0.0215689 0)
(1.17212 -0.00375659 0)
(0.626188 -0.00581073 0)
(1.30262 -0.00237752 0)
(0.614925 -0.0140958 0)
(1.24808 0.00130338 0)
(0.75366 -0.0193167 0)
(1.19503 -0.00436585 0)
(0.844102 -0.0185658 0)
(1.15694 -0.00277483 0)
(0.917517 -0.00816373 0)
(1.12108 0.00478653 0)
(0.982382 0.00378547 0)
(1.08395 0.0102809 0)
(0.996784 -0.00061152 0)
(1.0038 -0.00435656 0)
(0.991273 -0.0021251 0)
(1.0049 0.00334709 0)
(1.01066 0.0124223 0)
(1.00424 -0.013025 0)
(0.85145 0.0197952 0)
(1.14268 -0.00166901 0)
(0.685201 -0.00769411 0)
(1.24781 -0.00161037 0)
(0.711818 -0.0140866 0)
(1.17559 -7.98629e-05 0)
(0.850921 -0.0189665 0)
(1.12439 -0.00563918 0)
(0.931479 -0.0178436 0)
(1.08479 -0.00418734 0)
(0.990353 -0.00726202 0)
(1.055 0.00291658 0)
(1.03312 0.00456834 0)
(1.03923 0.00898308 0)
(0.999384 -0.000612116 0)
(0.999981 -0.00432874 0)
(0.994512 -0.00214797 0)
(1.00322 0.00324935 0)
(1.01053 0.0124586 0)
(1.00213 -0.0118871 0)
(0.877431 0.0184501 0)
(1.10838 -3.96445e-05 0)
(0.760829 -0.00898719 0)
(1.17865 -0.00166023 0)
(0.815029 -0.0134239 0)
(1.09397 -0.00170455 0)
(0.930217 -0.0183434 0)
(1.05529 -0.00697957 0)
(0.986904 -0.017012 0)
(1.02902 -0.00549686 0)
(1.02013 -0.00661037 0)
(1.02018 0.00171433 0)
(1.04008 0.00479018 0)
(1.02449 0.00839518 0)
(1.00239 -0.000605027 0)
(0.995632 -0.00430811 0)
(0.998006 -0.0021775 0)
(1.00136 0.00317051 0)
(1.00988 0.0124749 0)
(1.00036 -0.0109416 0)
(0.906773 0.0175423 0)
(1.07396 0.00108068 0)
(0.837631 -0.0097532 0)
(1.10733 -0.00222927 0)
(0.897395 -0.0123469 0)
(1.02782 -0.00323344 0)
(0.974389 -0.0178015 0)
(1.00948 -0.00809659 0)
(1.00626 -0.0164468 0)
(1.00216 -0.00630902 0)
(1.02095 -0.00639597 0)
(1.00844 0.00111337 0)
(1.03035 0.00466304 0)
(1.01932 0.00811734 0)
(1.00555 -0.000589601 0)
(0.991211 -0.00429253 0)
(1.0012 -0.00221868 0)
(0.999462 0.00310938 0)
(1.0086 0.0124897 0)
(0.999482 -0.0102067 0)
(0.934853 0.0169424 0)
(1.04542 0.00167348 0)
(0.901578 -0.00997057 0)
(1.04823 -0.00298414 0)
(0.947618 -0.0112532 0)
(0.989981 -0.00437525 0)
(0.989284 -0.0174778 0)
(0.988756 -0.00887659 0)
(1.00564 -0.0161563 0)
(0.995225 -0.0068549 0)
(1.01417 -0.00645703 0)
(1.00719 0.000725677 0)
(1.02113 0.00444918 0)
(1.01741 0.00790015 0)
(1.00869 -0.000565999 0)
(0.987057 -0.00427953 0)
(1.00376 -0.00227236 0)
(0.997483 0.00307448 0)
(1.0068 0.0124975 0)
(0.999589 -0.00968563 0)
(0.958327 0.0165734 0)
(1.02684 0.0018901 0)
(0.946646 -0.00975941 0)
(1.00932 -0.00365312 0)
(0.970588 -0.0103819 0)
(0.976393 -0.00510146 0)
(0.988966 -0.0172943 0)
(0.982817 -0.00946789 0)
(0.999257 -0.0160729 0)
(0.995639 -0.00738577 0)
(1.00945 -0.00661876 0)
(1.00944 0.000344071 0)
(1.01755 0.00423397 0)
(1.01815 0.00768566 0)
(1.0117 -0.000535219 0)
(0.983347 -0.00426564 0)
(1.00565 -0.00233562 0)
(0.995281 0.00306722 0)
(1.00475 0.0124838 0)
(1.00025 -0.00934965 0)
(0.976076 0.0163572 0)
(1.01827 0.00189709 0)
(0.974793 -0.00927063 0)
(0.989458 -0.00410525 0)
(0.977658 -0.00977187 0)
(0.97533 -0.00555472 0)
(0.984383 -0.0171316 0)
(0.981548 -0.0100159 0)
(0.99319 -0.0160979 0)
(0.99617 -0.0080251 0)
(1.00716 -0.00688367 0)
(1.01171 -0.000141886 0)
(1.01798 0.00395522 0)
(1.02078 0.0074485 0)
(1.01452 -0.000498614 0)
(0.98016 -0.00424755 0)
(1.00699 -0.0024046 0)
(0.992822 0.00308462 0)
(1.00275 0.0124412 0)
(1.00076 -0.00915989 0)
(0.988783 0.0162036 0)
(1.01663 0.00180527 0)
(0.991451 -0.00861978 0)
(0.982522 -0.00433858 0)
(0.978679 -0.00933044 0)
(0.977612 -0.00589138 0)
(0.980553 -0.0169107 0)
(0.980262 -0.0105617 0)
(0.988363 -0.0161711 0)
(0.994727 -0.00877624 0)
(1.00511 -0.00728157 0)
(1.01228 -0.000761421 0)
(1.01912 0.00355531 0)
(1.02344 0.00714302 0)
(1.01704 -0.000457655 0)
(0.977592 -0.0042231 0)
(1.00791 -0.00247532 0)
(0.990267 0.00312317 0)
(1.00102 0.012371 0)
(1.00045 -0.00908379 0)
(0.997785 0.0160455 0)
(1.01808 0.00167332 0)
(1.00157 -0.00788154 0)
(0.982398 -0.00440831 0)
(0.979112 -0.00894311 0)
(0.979684 -0.00618926 0)
(0.978579 -0.0166013 0)
(0.978336 -0.0110892 0)
(0.984416 -0.0162591 0)
(0.991717 -0.00958234 0)
(1.00213 -0.00779671 0)
(1.01074 -0.00149478 0)
(1.01887 0.00302516 0)
(1.02449 0.00672193 0)
(1.01908 -0.000414031 0)
(0.975824 -0.00419123 0)
(1.00844 -0.00254426 0)
(0.987907 0.00317869 0)
(0.999741 0.0122811 0)
(0.999036 -0.00909624 0)
(1.00417 0.0158509 0)
(1.01971 0.00152399 0)
(1.00811 -0.00710592 0)
(0.985144 -0.00437747 0)
(0.980799 -0.00853753 0)
(0.981522 -0.0064591 0)
(0.978292 -0.0162048 0)
(0.976553 -0.011566 0)
(0.981227 -0.0163312 0)
(0.988128 -0.0103823 0)
(0.998245 -0.00839374 0)
(1.00754 -0.00230531 0)
(1.01677 0.00237496 0)
(1.02339 0.0061583 0)
(1.02041 -0.000369858 0)
(0.975093 -0.00415155 0)
(1.00852 -0.00260833 0)
(0.986012 0.00324522 0)
(0.999037 0.0121844 0)
(0.996639 -0.00917533 0)
(1.00855 0.0156145 0)
(1.0199 0.00136423 0)
(1.01234 -0.00633295 0)
(0.98873 -0.00430006 0)
(0.983787 -0.00808981 0)
(0.983941 -0.00669527 0)
(0.979474 -0.0157264 0)
(0.975696 -0.0119509 0)
(0.978969 -0.0163695 0)
(0.984728 -0.0111282 0)
(0.993976 -0.00903495 0)
(1.0034 -0.00316633 0)
(1.01322 0.00161482 0)
(1.0205 0.00545121 0)
(1.02081 -0.000327739 0)
(0.975599 -0.00410405 0)
(1.00802 -0.00266385 0)
(0.984703 0.00331445 0)
(0.999011 0.0120946 0)
(0.993747 -0.00929935 0)
(1.01125 0.0153463 0)
(1.01818 0.00119569 0)
(1.01473 -0.00559905 0)
(0.992167 -0.00422011 0)
(0.987568 -0.00761326 0)
(0.987317 -0.00689623 0)
(0.981964 -0.0151718 0)
(0.976207 -0.012212 0)
(0.977883 -0.0163624 0)
(0.98198 -0.0117727 0)
(0.989802 -0.00967879 0)
(0.998905 -0.00406024 0)
(1.00882 0.000764724 0)
(1.01642 0.00462418 0)
(1.02018 -0.000290481 0)
(0.97739 -0.00404898 0)
(1.00688 -0.00270593 0)
(0.983946 0.00337565 0)
(0.999683 0.0120218 0)
(0.991041 -0.00944647 0)
(1.01257 0.0150645 0)
(1.01488 0.00102856 0)
(1.01563 -0.00493441 0)
(0.994954 -0.00417151 0)
(0.991557 -0.00713924 0)
(0.991421 -0.00706549 0)
(0.985457 -0.0145568 0)
(0.978176 -0.0123362 0)
(0.978112 -0.0162866 0)
(0.980167 -0.0122717 0)
(0.986107 -0.0102836 0)
(0.994439 -0.00495535 0)
(1.00399 -0.000136163 0)
(1.01163 0.00371239 0)
(1.01856 -0.000260537 0)
(0.980288 -0.003987 0)
(1.00514 -0.00272897 0)
(0.983638 0.00341697 0)
(1.00094 0.0119686 0)
(0.989186 -0.00959527 0)
(1.01276 0.0147897 0)
(1.01082 0.00086391 0)
(1.01554 -0.0043563 0)
(0.996905 -0.00417508 0)
(0.995231 -0.00670046 0)
(0.995668 -0.00721124 0)
(0.989439 -0.0139128 0)
(0.981355 -0.0123226 0)
(0.979601 -0.0161205 0)
(0.979448 -0.0125945 0)
(0.983228 -0.0107991 0)
(0.990307 -0.00580526 0)
(0.999107 -0.00104163 0)
(1.00643 0.00274848 0)
(1.01614 -0.000239425 0)
(0.983912 -0.0039192 0)
(1.00299 -0.00272784 0)
(0.983702 0.0034281 0)
(1.00255 0.0119288 0)
(0.988633 -0.00972643 0)
(1.01199 0.0145388 0)
(1.00703 0.00069553 0)
(1.01494 -0.00386634 0)
(0.998101 -0.00423398 0)
(0.998207 -0.00632293 0)
(0.999409 -0.00734005 0)
(0.993279 -0.0132829 0)
(0.985191 -0.0121885 0)
(0.982038 -0.0158518 0)
(0.979825 -0.0127343 0)
(0.981429 -0.0111759 0)
(0.986774 -0.00655897 0)
(0.994497 -0.00189956 0)
(1.00107 0.00177068 0)
(1.01328 -0.000227323 0)
(0.987764 -0.00384721 0)
(1.0007 -0.00269998 0)
(0.984111 0.00340225 0)
(1.00422 0.0118912 0)
(0.989467 -0.00982405 0)
(1.01032 0.0143206 0)
(1.00436 0.000526439 0)
(1.01411 -0.00345238 0)
(0.998815 -0.00433708 0)
(1.0003 -0.00601769 0)
(1.00216 -0.00745474 0)
(0.996422 -0.0127097 0)
(0.988964 -0.0119616 0)
(0.984907 -0.0154971 0)
(0.981084 -0.0126934 0)
(0.980798 -0.0113924 0)
(0.984053 -0.00718319 0)
(0.990474 -0.00266507 0)
(0.995836 0.000824252 0)
(1.01039 -0.000223099 0)
(0.991366 -0.00377288 0)
(0.99856 -0.00264667 0)
(0.984833 0.00333768 0)
(1.00571 0.0118431 0)
(0.991391 -0.00987273 0)
(1.0078 0.0141338 0)
(1.00323 0.000348654 0)
(1.01311 -0.00309387 0)
(0.999368 -0.00447011 0)
(1.00153 -0.00577792 0)
(1.00376 -0.0075462 0)
(0.998569 -0.0122246 0)
(0.992013 -0.011674 0)
(0.987635 -0.015086 0)
(0.982822 -0.0125049 0)
(0.981167 -0.0114353 0)
(0.982249 -0.00764664 0)
(0.987272 -0.00328847 0)
(0.991072 -2.55699e-05 0)
(1.00779 -0.000224786 0)
(0.994375 -0.00369808 0)
(0.996804 -0.00257236 0)
(0.985765 0.00323727 0)
(1.00694 0.0117746 0)
(0.993846 -0.00985861 0)
(1.0047 0.0139659 0)
(1.00348 0.000155087 0)
(1.01187 -0.00276878 0)
(0.999967 -0.00461742 0)
(1.00207 -0.00559112 0)
(1.00432 -0.00759333 0)
(0.99975 -0.0118396 0)
(0.993973 -0.0113551 0)
(0.989799 -0.0146514 0)
(0.984581 -0.0122309 0)
(0.982158 -0.0112997 0)
(0.981318 -0.00793033 0)
(0.984974 -0.00373943 0)
(0.987111 -0.000711543 0)
(1.00571 -0.000230249 0)
(0.996642 -0.00362432 0)
(0.995551 -0.00248256 0)
(0.986729 0.00310636 0)
(1.00791 0.011682 0)
(0.996246 -0.0097748 0)
(1.0015 0.0137994 0)
(1.00451 -5.12588e-05 0)
(1.01045 -0.00246434 0)
(1.00064 -0.00476068 0)
(1.00219 -0.00544609 0)
(1.0042 -0.00758114 0)
(1.00024 -0.0115483 0)
(0.994876 -0.0110244 0)
(0.991253 -0.0142316 0)
(0.98602 -0.0119268 0)
(0.983334 -0.0110161 0)
(0.981083 -0.00804309 0)
(0.983511 -0.00402893 0)
(0.984183 -0.00120828 0)
(1.00422 -0.000237709 0)
(0.998194 -0.00355279 0)
(0.99481 -0.00238175 0)
(0.98754 0.00295108 0)
(1.00864 0.0115664 0)
(0.998188 -0.00962326 0)
(0.998742 0.0136219 0)
(1.00569 -0.00026483 0)
(1.00904 -0.00218167 0)
(1.00128 -0.00488787 0)
(1.00213 -0.00533032 0)
(1.00376 -0.00751073 0)
(1.00039 -0.0113329 0)
(0.995057 -0.0106825 0)
(0.992106 -0.0138356 0)
(0.987023 -0.0116357 0)
(0.984373 -0.0106492 0)
(0.981295 -0.00800848 0)
(0.982703 -0.00416409 0)
(0.982315 -0.00151069 0)
(1.00325 -0.000245955 0)
(0.999166 -0.0034844 0)
(0.994506 -0.00227228 0)
(0.988088 0.00277724 0)
(1.00912 0.0114322 0)
(0.999543 -0.00941429 0)
(0.996774 0.0134271 0)
(1.00658 -0.00047616 0)
(1.00785 -0.00192417 0)
(1.00179 -0.00499545 0)
(1.00204 -0.00524646 0)
(1.00328 -0.00737654 0)
(1.00046 -0.0111776 0)
(0.994929 -0.0103248 0)
(0.992587 -0.0134465 0)
(0.987666 -0.0113641 0)
(0.98514 -0.0102518 0)
(0.98171 -0.00787536 0)
(0.982333 -0.00418956 0)
(0.981321 -0.00164745 0)
(1.00268 -0.000254327 0)
(0.999723 -0.00341982 0)
(0.994524 -0.00215484 0)
(0.988381 0.00259091 0)
(1.0093 0.011283 0)
(1.00039 -0.00916157 0)
(0.995629 0.0132137 0)
(1.00706 -0.000676185 0)
(1.00695 -0.00169968 0)
(1.00214 -0.00505967 0)
(1.00197 -0.0052193 0)
(1.00287 -0.00717126 0)
(1.00056 -0.0110574 0)
(0.99479 -0.00996754 0)
(0.992901 -0.0130511 0)
(0.988111 -0.0110982 0)
(0.985663 -0.00984894 0)
(0.982159 -0.00766415 0)
(0.982212 -0.00414432 0)
(0.980896 -0.00167756 0)
(1.00236 -0.000262362 0)
(1.00001 -0.0033599 0)
(0.994745 -0.00202916 0)
(0.988513 0.00239855 0)
(1.00914 0.01112 0)
(1.0009 -0.00887845 0)
(0.995111 0.0129808 0)
(1.00727 -0.000852375 0)
(1.00627 -0.00152202 0)
(1.00236 -0.00506004 0)
(1.0019 -0.00524149 0)
(1.00254 -0.0069156 0)
(1.00068 -0.0109628 0)
(0.994752 -0.00960939 0)
(0.993151 -0.0126398 0)
(0.98849 -0.0108324 0)
(0.986038 -0.00944054 0)
(0.982566 -0.00740305 0)
(0.982218 -0.00403816 0)
(0.98076 -0.0016255 0)
(1.00218 -0.000269531 0)
(1.00014 -0.00330551 0)
(0.995075 -0.00189563 0)
(0.988607 0.00220633 0)
(1.00867 0.010945 0)
(1.00119 -0.00857629 0)
(0.994964 0.0127234 0)
(1.00735 -0.000987895 0)
(1.00571 -0.0013957 0)
(1.0025 -0.00500868 0)
(1.00182 -0.00530556 0)
(1.00224 -0.00661554 0)
(1.00077 -0.0108925 0)
(0.994801 -0.00925576 0)
(0.993356 -0.012201 0)
(0.988864 -0.01058 0)
(0.986348 -0.00900317 0)
(0.982934 -0.00709933 0)
(0.982301 -0.00393233 0)
(0.980754 -0.00154143 0)
(1.00205 -0.000275474 0)
(1.00015 -0.00325643 0)
(0.995443 -0.00175681 0)
(0.988766 0.00202117 0)
(1.00794 0.0107576 0)
(1.00136 -0.0082625 0)
(0.994998 0.0124419 0)
(1.00741 -0.00108932 0)
(1.00519 -0.00131214 0)
(1.0026 -0.00490096 0)
(1.00172 -0.00543513 0)
(1.00196 -0.00627339 0)
(1.00081 -0.0108249 0)
(0.994883 -0.00893447 0)
(0.993493 -0.0117186 0)
(0.98924 -0.0103472 0)
(0.986638 -0.00855423 0)
(0.983282 -0.00669966 0)
(0.98244 -0.00380558 0)
(0.980839 -0.00145815 0)
(1.00195 -0.000279591 0)
(1.0001 -0.00321331 0)
(0.995799 -0.00161341 0)
(0.98905 0.00184621 0)
(1.00708 0.0105609 0)
(1.00145 -0.00794625 0)
(0.995118 0.0121364 0)
(1.00749 -0.00114266 0)
(1.00472 -0.00129925 0)
(1.00268 -0.00472346 0)
(1.00161 -0.00559718 0)
(1.00168 -0.00592258 0)
(1.00077 -0.0107532 0)
(0.994968 -0.00866191 0)
(0.993548 -0.011175 0)
(0.989598 -0.0100789 0)
(0.986921 -0.00819181 0)
(0.983637 -0.00622234 0)
(0.982627 -0.00363913 0)
(0.981017 -0.00136669 0)
(1.00184 -0.000280133 0)
(0.999994 -0.00317859 0)
(0.996106 -0.00146511 0)
(0.989477 0.00168006 0)
(1.00616 0.0103613 0)
(1.00148 -0.00762967 0)
(0.995286 0.0117928 0)
(1.00756 -0.00113218 0)
(1.0043 -0.00132628 0)
(1.00273 -0.00454265 0)
(1.00149 -0.00576733 0)
(1.00143 -0.00556467 0)
(1.00068 -0.0106351 0)
(0.995049 -0.00845595 0)
(0.993532 -0.010635 0)
(0.989913 -0.00974184 0)
(0.987194 -0.00780131 0)
(0.984017 -0.00596398 0)
(0.982857 -0.00328849 0)
(0.981297 -0.00118531 0)
(1.00172 -0.000278054 0)
(0.999866 -0.00314758 0)
(0.996334 -0.00132171 0)
(0.990037 0.00153172 0)
(1.00527 0.0101524 0)
(1.00151 -0.00730501 0)
(0.995489 0.0114194 0)
(1.0076 -0.00109098 0)
(1.00398 -0.00137292 0)
(1.00276 -0.00429166 0)
(1.00138 -0.00597668 0)
(1.00122 -0.00522649 0)
(1.00055 -0.0104662 0)
(0.995127 -0.00825098 0)
(0.993465 -0.0101037 0)
(0.9902 -0.00938854 0)
(0.987415 -0.00734724 0)
(0.984412 -0.00563174 0)
(0.983153 -0.00298562 0)
(0.981626 -0.000985506 0)
(1.00159 -0.000272599 0)
(0.99974 -0.0031214 0)
(0.996464 -0.00118573 0)
(0.990699 0.00140003 0)
(1.00444 0.00993019 0)
(1.00157 -0.00696192 0)
(0.995715 0.0109744 0)
(1.00759 -0.000943913 0)
(1.00376 -0.00155114 0)
(1.00275 -0.00395789 0)
(1.00128 -0.00617923 0)
(1.00102 -0.00488535 0)
(1.00038 -0.0103324 0)
(0.995209 -0.00804274 0)
(0.993368 -0.00957029 0)
(0.990453 -0.00897865 0)
(0.987648 -0.00706822 0)
(0.984781 -0.00481022 0)
(0.983456 -0.00307007 0)
(0.982027 -0.00103512 0)
(1.00145 -0.000258134 0)
(0.999642 -0.00311017 0)
(0.996489 -0.00103934 0)
(0.991417 0.00126481 0)
(1.00371 0.00972249 0)
(1.00167 -0.00663478 0)
(0.995961 0.0105301 0)
(1.00752 -0.000811217 0)
(1.00363 -0.00166716 0)
(1.00268 -0.00369113 0)
(1.00119 -0.00637572 0)
(1.00083 -0.00455025 0)
(1.0002 -0.0100418 0)
(0.995296 -0.00798565 0)
(0.993272 -0.00901426 0)
(0.990666 -0.00861519 0)
(0.98794 -0.00657068 0)
(0.985137 -0.00479544 0)
(0.983701 -0.0024057 0)
(0.98249 -0.000650991 0)
(1.00131 -0.000250599 0)
(0.999586 -0.00307772 0)
(0.996424 -0.00092973 0)
(0.992139 0.00118191 0)
(1.00306 0.0094717 0)
(1.00182 -0.00626273 0)
(0.996224 0.010016 0)
(1.0074 -0.000610321 0)
(1.00359 -0.00186715 0)
(1.00256 -0.0033319 0)
(1.00114 -0.00656847 0)
(1.00064 -0.00434856 0)
(0.999993 -0.00962935 0)
(0.995373 -0.00791562 0)
(0.993192 -0.00843489 0)
(0.990882 -0.00829399 0)
(0.988118 -0.00628203 0)
(0.985535 -0.00416853 0)
(0.984118 -0.00220139 0)
(0.982848 -0.000537018 0)
(1.00117 -0.000228893 0)
(0.999577 -0.0030726 0)
(0.996299 -0.000805332 0)
(0.992816 0.00106927 0)
(1.00252 0.00924858 0)
(1.002 -0.00590954 0)
(0.996508 0.00947508 0)
(1.00721 -0.000382709 0)
(1.00363 -0.00211544 0)
(1.00238 -0.00301503 0)
(1.0011 -0.00661551 0)
(1.00045 -0.00434836 0)
(0.999796 -0.00912616 0)
(0.995445 -0.00794663 0)
(0.993131 -0.00777215 0)
(0.991033 -0.00796066 0)
(0.988516 -0.00605055 0)
(0.985879 -0.00387408 0)
(0.984321 -0.00164723 0)
(0.98334 -0.000310616 0)
(1.00103 -0.00019895 0)
(0.99962 -0.00307646 0)
(0.996147 -0.000671328 0)
(0.993414 0.000954659 0)
(1.00206 0.00902303 0)
(1.00218 -0.00555312 0)
(0.996807 0.00899952 0)
(1.00697 -0.00020478 0)
(1.00372 -0.00219576 0)
(1.00216 -0.00279448 0)
(1.0011 -0.00662345 0)
(1.00025 -0.00419448 0)
(0.9996 -0.00873023 0)
(0.995508 -0.00786077 0)
(0.993113 -0.00733081 0)
(0.991177 -0.00748944 0)
(0.988735 -0.00540368 0)
(0.98637 -0.00402514 0)
(0.984786 -0.000782825 0)
(0.98363 0.000261297 0)
(1.00089 -0.000197274 0)
(0.999711 -0.00301558 0)
(0.995999 -0.000614962 0)
(0.993916 0.000953769 0)
(1.00168 0.0086634 0)
(1.00234 -0.00503988 0)
(0.997126 0.00829125 0)
(1.00669 0.000195905 0)
(1.00385 -0.00260298 0)
(1.00191 -0.00227074 0)
(1.00113 -0.00684063 0)
(1.00005 -0.00390516 0)
(0.999419 -0.0084481 0)
(0.995551 -0.00757963 0)
(0.993128 -0.00709756 0)
(0.991328 -0.0066869 0)
(0.98904 -0.00504587 0)
(0.986752 -0.00279415 0)
(0.985146 -0.00169329 0)
(0.984023 -0.000187122 0)
(1.00075 -0.000155606 0)
(0.999842 -0.00304044 0)
(0.995873 -0.00049331 0)
(0.994325 0.000837349 0)
(1.00135 0.00843591 0)
(1.00246 -0.00469416 0)
(0.997445 0.00772023 0)
(1.00638 0.000411027 0)
(1.004 -0.00277581 0)
(1.00165 -0.00206782 0)
(1.00115 -0.00670856 0)
(0.999882 -0.00414483 0)
(0.999236 -0.007728 0)
(0.995595 -0.00753976 0)
(0.993217 -0.00653585 0)
(0.991494 -0.00636354 0)
(0.989443 -0.0047163 0)
(0.98706 -0.00296157 0)
(0.985398 -0.000661183 0)
(0.984566 0.0003763 0)
(1.00062 -0.000121957 0)
(0.999987 -0.00304182 0)
(0.995795 -0.00038006 0)
(0.994648 0.000761698 0)
(1.00106 0.00817436 0)
(1.00253 -0.00434335 0)
(0.997756 0.00727193 0)
(1.00604 0.000601952 0)
(1.00412 -0.00272428 0)
(1.00142 -0.00210795 0)
(1.00117 -0.00632345 0)
(0.999757 -0.00431898 0)
(0.999082 -0.00716045 0)
(0.995639 -0.00736628 0)
(0.99328 -0.00597741 0)
(0.991627 -0.00606196 0)
(0.989672 -0.0042465 0)
(0.987637 -0.0031582 0)
(0.985936 0.000399303 0)
(0.984794 0.00104805 0)
(1.0005 -0.000125949 0)
(1.00013 -0.00295919 0)
(0.995771 -0.000351182 0)
(0.994895 0.000829318 0)
(1.00081 0.00768984 0)
(1.00256 -0.00368955 0)
(0.99806 0.00642964 0)
(1.00568 0.00106793 0)
(1.00423 -0.00320789 0)
(1.0012 -0.00151968 0)
(1.00119 -0.00655389 0)
(0.999647 -0.00394364 0)
(0.998947 -0.00703227 0)
(0.995713 -0.00692549 0)
(0.993416 -0.00566319 0)
(0.991786 -0.0050886 0)
(0.989982 -0.00377405 0)
(0.98808 -0.0019748 0)
(0.986371 -0.00101097 0)
(0.985193 0.000383802 0)
(1.00039 -7.32261e-05 0)
(1.00028 -0.00300555 0)
(0.995781 -0.000246592 0)
(0.995098 0.000760005 0)
(1.00059 0.00741065 0)
(1.00254 -0.00336862 0)
(0.998338 0.00589323 0)
(1.00532 0.00123735 0)
(1.00432 -0.00324988 0)
(1.001 -0.00157653 0)
(1.00118 -0.00609238 0)
(0.999602 -0.00429707 0)
(0.998806 -0.00624837 0)
(0.995815 -0.00677805 0)
(0.993605 -0.00529081 0)
(0.991996 -0.00496898 0)
(0.990368 -0.00351464 0)
(0.988324 -0.00206515 0)
(0.986627 -1.05413e-05 0)
(0.985793 0.00106561 0)
(1.00031 -4.05388e-05 0)
(1.0004 -0.00300388 0)
(0.995833 -0.000153823 0)
(0.995272 0.000732911 0)
(1.00039 0.00711903 0)
(1.00252 -0.0030321 0)
(0.998584 0.00550318 0)
(1.00498 0.00130895 0)
(1.00433 -0.00295916 0)
(1.00088 -0.0018042 0)
(1.00112 -0.00556031 0)
(0.999594 -0.00456041 0)
(0.998714 -0.00556692 0)
(0.995895 -0.00659968 0)
(0.993751 -0.00486382 0)
(0.992176 -0.00474581 0)
(0.990641 -0.00305561 0)
(0.988997 -0.00222626 0)
(0.987262 0.00120489 0)
(0.986026 0.00186243 0)
(1.00024 -4.51882e-05 0)
(1.00049 -0.00290095 0)
(0.995918 -0.000154647 0)
(0.995415 0.000892715 0)
(1.00022 0.00650621 0)
(1.00246 -0.00231488 0)
(0.99882 0.0046493 0)
(1.00465 0.00180724 0)
(1.00432 -0.00350848 0)
(1.00074 -0.00123587 0)
(1.00107 -0.00575917 0)
(0.999618 -0.00415291 0)
(0.998626 -0.00563115 0)
(0.995988 -0.00581985 0)
(0.993963 -0.00455585 0)
(0.992396 -0.00362599 0)
(0.990928 -0.00244247 0)
(0.989424 -0.00118105 0)
(0.987729 -0.000486621 0)
(0.986435 0.00101222 0)
(1.00017 -1.80048e-06 0)
(1.00058 -0.00295911 0)
(0.996009 -8.01832e-05 0)
(0.995553 0.000891974 0)
(1.00008 0.00618882 0)
(1.00239 -0.00204307 0)
(0.999035 0.00420552 0)
(1.00432 0.00181464 0)
(1.00429 -0.00334407 0)
(1.00065 -0.00141694 0)
(1.00098 -0.00529592 0)
(0.999651 -0.00437597 0)
(0.998596 -0.00499325 0)
(0.996162 -0.00556098 0)
(0.994247 -0.00425922 0)
(0.992719 -0.00365044 0)
(0.991319 -0.00228925 0)
(0.989618 -0.00104839 0)
(0.988039 0.00060125 0)
(0.987124 0.00180186 0)
(1.00012 4.45326e-05 0)
(1.00064 -0.00296306 0)
(0.996115 -8.79733e-06 0)
(0.99569 0.000914318 0)
(0.999963 0.00588681 0)
(1.00234 -0.00176273 0)
(0.99921 0.00392898 0)
(1.00405 0.0017487 0)
(1.00421 -0.00295206 0)
(1.00058 -0.00161079 0)
(1.00088 -0.00471696 0)
(0.999746 -0.00460846 0)
(0.998557 -0.00449439 0)
(0.996243 -0.00528711 0)
(0.994415 -0.00379579 0)
(0.992944 -0.00354751 0)
(0.991653 -0.00193263 0)
(0.990342 -0.001012 0)
(0.988702 0.0020075 0)
(0.98734 0.00277966 0)
(1.00008 2.28775e-05 0)
(1.00067 -0.00280276 0)
(0.996245 -7.97685e-05 0)
(0.9958 0.00120161 0)
(0.999881 0.00517536 0)
(1.00229 -0.00105176 0)
(0.999396 0.0031304 0)
(1.00376 0.0022526 0)
(1.00413 -0.00357889 0)
(1.00053 -0.00098407 0)
(1.00076 -0.00485907 0)
(0.999787 -0.00401781 0)
(0.998609 -0.00471971 0)
(0.996404 -0.00434941 0)
(0.994656 -0.00360634 0)
(0.993217 -0.00235886 0)
(0.991997 -0.00134818 0)
(0.990805 -0.000212727 0)
(0.989244 0.000358595 0)
(0.9878 0.00183331 0)
(1.00003 9.7616e-05 0)
(1.00072 -0.00292849 0)
(0.996366 1.29097e-05 0)
(0.995925 0.00118001 0)
(0.999815 0.00495804 0)
(1.00224 -0.000951339 0)
(0.999558 0.00295075 0)
(1.0035 0.00194671 0)
(1.00406 -0.00308467 0)
(1.00049 -0.00130551 0)
(1.00066 -0.00423912 0)
(0.999866 -0.00416488 0)
(0.998647 -0.00406634 0)
(0.996586 -0.00435834 0)
(0.994985 -0.00353589 0)
(0.993633 -0.00255515 0)
(0.992391 -0.00120513 0)
(0.991013 -8.22579e-05 0)
(0.989575 0.00137395 0)
(0.98846 0.00267434 0)
(0.999983 0.00010405 0)
(1.00076 -0.00284069 0)
(0.996487 -1.11461e-05 0)
(0.996066 0.00131372 0)
(0.999743 0.00458351 0)
(1.00221 -0.000734213 0)
(0.999679 0.00284637 0)
(1.00329 0.00174508 0)
(1.00393 -0.00255735 0)
(1.0005 -0.00170988 0)
(1.00053 -0.00334857 0)
(0.999958 -0.00436545 0)
(0.998708 -0.00351869 0)
(0.996672 -0.00444973 0)
(0.995184 -0.00334021 0)
(0.993949 -0.00270027 0)
(0.992825 -0.000752088 0)
(0.99178 0.000417226 0)
(0.990359 0.0028547 0)
(0.988741 0.00379781 0)
(0.999965 9.90897e-05 0)
(1.00076 -0.00272907 0)
(0.996635 -9.64449e-05 0)
(0.996177 0.00158679 0)
(0.999703 0.00401444 0)
(1.00218 -0.00023449 0)
(0.999813 0.0022858 0)
(1.00306 0.00200863 0)
(1.00382 -0.00281714 0)
(1.00052 -0.0013254 0)
(1.00044 -0.00322651 0)
(1.00001 -0.00386654 0)
(0.998757 -0.0036347 0)
(0.996792 -0.0037864 0)
(0.995503 -0.00298207 0)
(0.994426 -0.00193193 0)
(0.993373 -0.000349537 0)
(0.992284 0.00100539 0)
(0.990855 0.00217425 0)
(0.989138 0.00334861 0)
(0.999939 0.000190708 0)
(1.00078 -0.00284479 0)
(0.996787 -3.23337e-05 0)
(0.996303 0.00158851 0)
(0.999658 0.00383137 0)
(1.00214 -0.000207801 0)
(0.99995 0.00215866 0)
(1.00285 0.00188862 0)
(1.00373 -0.0026452 0)
(1.00055 -0.00125928 0)
(1.00033 -0.00286901 0)
(1.00005 -0.00367794 0)
(0.998878 -0.00337461 0)
(0.99698 -0.00320778 0)
(0.995784 -0.0025063 0)
(0.994806 -0.0016867 0)
(0.993852 -0.000309835 0)
(0.992782 0.000918667 0)
(0.991408 0.00206332 0)
(0.989604 0.00328797 0)
(0.999913 0.000121705 0)
(1.00079 -0.00263477 0)
(0.996935 -0.00016237 0)
(0.996436 0.00179354 0)
(0.999619 0.00344494 0)
(1.00212 2.77043e-05 0)
(1.00007 0.00193632 0)
(1.00265 0.00189909 0)
(1.00363 -0.00243025 0)
(1.0006 -0.0013004 0)
(1.00026 -0.0024443 0)
(1.0001 -0.00333127 0)
(0.999012 -0.00312336 0)
(0.997156 -0.00282233 0)
(0.99604 -0.00217007 0)
(0.995206 -0.00137354 0)
(0.994337 -5.65286e-05 0)
(0.993275 0.00109277 0)
(0.991947 0.00215781 0)
(0.990055 0.00327343 0)
(0.999888 0.000216226 0)
(1.00081 -0.0026681 0)
(0.99709 -0.000178285 0)
(0.996569 0.0019085 0)
(0.999583 0.00321351 0)
(1.00209 0.000109369 0)
(1.0002 0.00174702 0)
(1.00247 0.00189953 0)
(1.00353 -0.00218409 0)
(1.00068 -0.00128203 0)
(1.00021 -0.00208223 0)
(1.00012 -0.00310546 0)
(0.999155 -0.00290898 0)
(0.997378 -0.00245916 0)
(0.996325 -0.00172605 0)
(0.99559 -0.00106227 0)
(0.994806 0.000122273 0)
(0.993754 0.00118307 0)
(0.992464 0.00219001 0)
(0.990521 0.00323056 0)
(0.999865 0.000176714 0)
(1.00083 -0.00256034 0)
(0.997257 -0.0002454 0)
(0.996705 0.00199298 0)
(0.999547 0.00301366 0)
(1.00206 0.00019311 0)
(1.00033 0.00164437 0)
(1.0023 0.00187371 0)
(1.00342 -0.00198018 0)
(1.00076 -0.00132548 0)
(1.00016 -0.00174652 0)
(1.00016 -0.00274591 0)
(0.999332 -0.00256384 0)
(0.997621 -0.00213836 0)
(0.996585 -0.00135831 0)
(0.995942 -0.000835624 0)
(0.995256 0.000311133 0)
(0.994232 0.00135187 0)
(0.992989 0.00228594 0)
(0.99097 0.00316115 0)
(0.999845 0.000219317 0)
(1.00084 -0.00249513 0)
(0.997425 -0.000327629 0)
(0.996842 0.00205479 0)
(0.999517 0.00288262 0)
(1.00204 0.000231974 0)
(1.00046 0.00149802 0)
(1.00215 0.00181116 0)
(1.0033 -0.00168696 0)
(1.00087 -0.0012716 0)
(1.00016 -0.00139788 0)
(1.00019 -0.0024221 0)
(0.999479 -0.00234799 0)
(0.997865 -0.00194816 0)
(0.996864 -0.00102234 0)
(0.996304 -0.000529387 0)
(0.995742 0.000542527 0)
(0.994709 0.00150573 0)
(0.993438 0.00230468 0)
(0.99138 0.00305788 0)
(0.999825 0.000216137 0)
(1.00085 -0.00241524 0)
(0.997609 -0.00038719 0)
(0.996986 0.00209245 0)
(0.999481 0.0027766 0)
(1.00202 0.000260842 0)
(1.0006 0.00141575 0)
(1.00202 0.00181845 0)
(1.0032 -0.0014157 0)
(1.00097 -0.00129817 0)
(1.00016 -0.00118802 0)
(1.0002 -0.00212074 0)
(0.999641 -0.00205032 0)
(0.99816 -0.00165016 0)
(0.997173 -0.000637664 0)
(0.996649 -0.000226372 0)
(0.996169 0.000633539 0)
(0.995133 0.00151565 0)
(0.993883 0.00233681 0)
(0.991818 0.00310084 0)
(0.999809 0.000217397 0)
(1.00087 -0.00230842 0)
(0.997792 -0.000477028 0)
(0.997128 0.0021019 0)
(0.999455 0.00270368 0)
(1.002 0.000315961 0)
(1.00074 0.00130106 0)
(1.00189 0.00178046 0)
(1.00307 -0.00119242 0)
(1.00108 -0.00125618 0)
(1.00021 -0.000922955 0)
(1.00024 -0.00175607 0)
(0.999799 -0.0017144 0)
(0.998445 -0.00141298 0)
(0.997468 -0.000387397 0)
(0.996935 2.11951e-06 0)
(0.996583 0.000793776 0)
(0.995621 0.00172022 0)
(0.994379 0.0024976 0)
(0.992252 0.00318589 0)
(0.999792 0.000231762 0)
(1.00087 -0.00223273 0)
(0.99799 -0.00054991 0)
(0.997282 0.00208262 0)
(0.999424 0.00266787 0)
(1.00198 0.000345308 0)
(1.00089 0.00118809 0)
(1.0018 0.00175409 0)
(1.00296 -0.000888689 0)
(1.0012 -0.00115322 0)
(1.00026 -0.000725335 0)
(1.00026 -0.00145398 0)
(0.999939 -0.00141922 0)
(0.998738 -0.00121768 0)
(0.997796 -0.000165502 0)
(0.997273 0.000341445 0)
(0.997036 0.00112144 0)
(0.996075 0.00188796 0)
(0.994798 0.00249143 0)
(0.992649 0.00316805 0)
(0.999779 0.000209575 0)
(1.00088 -0.0020958 0)
(0.998186 -0.000634142 0)
(0.997437 0.00202983 0)
(0.999401 0.00261757 0)
(1.00195 0.000431108 0)
(1.00104 0.0011015 0)
(1.00172 0.00175069 0)
(1.00283 -0.000630305 0)
(1.0013 -0.00110492 0)
(1.00035 -0.000580899 0)
(1.00032 -0.0011548 0)
(1.00008 -0.0010996 0)
(0.999024 -0.00096783 0)
(0.998158 9.04232e-05 0)
(0.997615 0.000649521 0)
(0.997406 0.00123307 0)
(0.996447 0.00187111 0)
(0.99524 0.00249981 0)
(0.993094 0.00322085 0)
(0.999766 0.000224462 0)
(1.00088 -0.00199851 0)
(0.998393 -0.000717116 0)
(0.997607 0.00198301 0)
(0.99938 0.00259493 0)
(1.00192 0.00049805 0)
(1.00119 0.00101252 0)
(1.00167 0.00172158 0)
(1.00272 -0.000367156 0)
(1.0014 -0.000958169 0)
(1.00045 -0.000387319 0)
(1.00038 -0.000870486 0)
(1.00021 -0.000781293 0)
(0.999318 -0.000687838 0)
(0.998526 0.000250946 0)
(0.997915 0.000818602 0)
(0.997756 0.00133239 0)
(0.996888 0.00204489 0)
(0.995725 0.00268613 0)
(0.993523 0.00330363 0)
(0.999754 0.000183083 0)
(1.00088 -0.00182794 0)
(0.998598 -0.00081255 0)
(0.997776 0.00192558 0)
(0.999363 0.00252778 0)
(1.00189 0.000689072 0)
(1.00135 0.000906651 0)
(1.00164 0.00166881 0)
(1.0026 -0.000141413 0)
(1.00149 -0.000865883 0)
(1.00057 -0.000268218 0)
(1.00046 -0.000627947 0)
(1.00035 -0.000469518 0)
(0.999568 -0.000422032 0)
(0.998874 0.000385563 0)
(0.99825 0.00106367 0)
(0.998155 0.00158422 0)
(0.997324 0.00226817 0)
(0.996144 0.00278465 0)
(0.993919 0.00330133 0)
(0.999744 0.000194683 0)
(1.00088 -0.00174521 0)
(0.998803 -0.000866165 0)
(0.997964 0.00176461 0)
(0.999369 0.00255599 0)
(1.00185 0.000701731 0)
(1.00148 0.00088105 0)
(1.00163 0.00167859 0)
(1.0025 0.000139922 0)
(1.00158 -0.000681108 0)
(1.0007 -0.000105506 0)
(1.00056 -0.000393957 0)
(1.0005 -0.000207445 0)
(0.999833 -0.000151698 0)
(0.999272 0.000586943 0)
(0.998621 0.00130375 0)
(0.998525 0.0017653 0)
(0.99772 0.00234308 0)
(0.99654 0.00278205 0)
(0.994312 0.0032717 0)
(0.999735 0.000154022 0)
(1.00087 -0.00157841 0)
(0.999006 -0.000944668 0)
(0.998161 0.00164997 0)
(0.999365 0.00249917 0)
(1.0018 0.000777413 0)
(1.00164 0.000916248 0)
(1.00165 0.00171755 0)
(1.00239 0.000394127 0)
(1.00165 -0.00051388 0)
(1.00084 2.89179e-05 0)
(1.00067 -0.00016806 0)
(1.00066 6.95707e-05 0)
(1.00007 0.000164307 0)
(0.999628 0.000779864 0)
(0.998962 0.00146165 0)
(0.998869 0.00190325 0)
(0.998085 0.00241865 0)
(0.996922 0.00285322 0)
(0.994722 0.00334966 0)
(0.99973 0.000138253 0)
(1.00085 -0.00141714 0)
(0.999204 -0.0010357 0)
(0.998363 0.00154162 0)
(0.999386 0.00243128 0)
(1.00176 0.00102086 0)
(1.00178 0.000871617 0)
(1.00168 0.00160677 0)
(1.00229 0.000584693 0)
(1.00171 -0.000349621 0)