/*--------------------------------*- C++ -*----------------------------------*\
| =========                 |                                                 |
| \\      /  F ield         | OpenFOAM: The Open Source CFD Toolbox           |
|  \\    /   O peration     | Version:  v2012                                 |
|   \\  /    A nd           | Website:  www.openfoam.com                      |
|    \\/     M anipulation  |                                                 |
\*---------------------------------------------------------------------------*/
FoamFile
{
    version     2.0;
    format      ascii;
    class       volScalarField;
    location    "5.9";
    object      p;
}
// * * * * * * * * * * * * * * * * * * * * * * * * * * * * * * * * * * * * * //

dimensions      [0 2 -2 0 0 0 0];


internalField   nonuniform List<scalar> 
7000
(
-3.27079e-11
0.0029295
0.00248819
0.00093845
0.00181938
0.00283388
0.00333447
0.00575349
0.00535045
0.00795422
0.00780063
0.00994084
0.0100453
0.0127319
0.0132779
0.0164124
0.0180864
0.0222695
0.0257501
0.0327005
-2.15901e-06
0.00293081
0.00248896
0.000939604
0.00182459
0.00282981
0.00333608
0.00575906
0.00534321
0.00795892
0.0077974
0.00993666
0.0100478
0.0127204
0.0132907
0.0163881
0.0181116
0.0222183
0.0257898
0.0324308
-4.95612e-06
0.00293315
0.00248959
0.000940527
0.00183306
0.00282133
0.00334132
0.00576827
0.00533032
0.00796794
0.0077921
0.00993393
0.0100538
0.0127082
0.0133075
0.0163571
0.0181397
0.0221438
0.0258228
0.0319563
-7.65245e-06
0.00293527
0.00248964
0.00094035
0.00184042
0.00281069
0.00334554
0.00578088
0.00531539
0.00797715
0.00778782
0.0099277
0.0100619
0.0126911
0.0133271
0.0163196
0.018169
0.02206
0.0258199
0.0314566
-1.02956e-05
0.00293673
0.00248896
0.000939042
0.00184663
0.00279832
0.00334873
0.00579509
0.00530047
0.00798496
0.00778612
0.00991816
0.0100734
0.0126689
0.0133494
0.0162745
0.0181997
0.0219632
0.025786
0.0309763
-1.29786e-05
0.0029374
0.00248762
0.000936959
0.00185286
0.00278418
0.00335233
0.00580999
0.00528705
0.00799127
0.00778813
0.00990484
0.0100885
0.0126409
0.0133748
0.0162219
0.01823
0.0218552
0.0257261
0.0305177
-1.58055e-05
0.00293722
0.00248591
0.000934651
0.00185982
0.00276841
0.00335664
0.00582533
0.00527576
0.00799599
0.00779412
0.00988754
0.0101075
0.0126067
0.0134031
0.0161614
0.0182583
0.0217381
0.0256412
0.0300737
-1.89246e-05
0.00293629
0.00248434
0.000932673
0.00186786
0.00275116
0.0033615
0.00584094
0.00526646
0.00799876
0.0078042
0.00986589
0.0101301
0.0125663
0.0134335
0.0160938
0.0182824
0.0216139
0.0255302
0.029639
-2.24787e-05
0.00293491
0.00248347
0.000931512
0.00187731
0.00273268
0.00336717
0.00585642
0.0052592
0.00799897
0.00781833
0.00983947
0.010156
0.0125198
0.0134648
0.0160203
0.0182998
0.0214846
0.0253926
0.0292108
-2.65547e-05
0.00293346
0.00248371
0.000931653
0.00188854
0.00271334
0.00337428
0.00587112
0.00525262
0.00799584
0.00783646
0.00980789
0.0101849
0.0124674
0.0134957
0.0159423
0.0183077
0.0213517
0.0252285
0.0287867
-3.11673e-05
0.00293226
0.00248526
0.000933638
0.0019019
0.00269366
0.00338351
0.00588421
0.00524679
0.0079885
0.00785845
0.0097708
0.0102162
0.0124099
0.0135245
0.0158615
0.0183035
0.0212161
0.0250385
0.028365
-3.62759e-05
0.00293157
0.00248805
0.000938025
0.00191754
0.00267427
0.00339556
0.00589475
0.00524147
0.00797605
0.00788418
0.00972797
0.0102493
0.0123479
0.0135494
0.0157796
0.0182847
0.0210776
0.0248237
0.0279438
-4.18163e-05
0.00293147
0.00249188
0.000945234
0.00193541
0.00265574
0.00341087
0.00590182
0.00523661
0.00795767
0.00791351
0.00967934
0.0102832
0.0122828
0.0135682
0.0156979
0.0182497
0.0209358
0.0245853
0.0275212
-4.77302e-05
0.00293195
0.00249655
0.000955371
0.00195523
0.0026384
0.00342943
0.00590465
0.00523242
0.00793266
0.00794626
0.00962515
0.0103168
0.0122162
0.0135785
0.0156174
0.0181975
0.0207893
0.0243248
0.0270951
-5.39761e-05
0.00293291
0.0025019
0.00096815
0.00197655
0.00262219
0.00345071
0.00590269
0.00522932
0.00790055
0.0079821
0.00956596
0.0103484
0.01215
0.0135785
0.0155383
0.0181274
0.0206365
0.024044
0.0266634
-6.05223e-05
0.00293418
0.00250787
0.000982965
0.00199886
0.00260676
0.00347383
0.00589567
0.00522784
0.00786108
0.00802058
0.00950263
0.010376
0.0120858
0.0135668
0.0154602
0.0180394
0.0204746
0.0237448
0.0262244
-6.73355e-05
0.00293561
0.00251443
0.00099912
0.00202176
0.00259164
0.00349787
0.00588354
0.00522836
0.00781422
0.00806103
0.00943639
0.0103977
0.012025
0.0135422
0.0153823
0.0179346
0.020301
0.0234281
0.025777
-7.4375e-05
0.00293709
0.0025216
0.00101604
0.00204509
0.00257645
0.00352222
0.00586638
0.00523108
0.00776013
0.00810252
0.00936884
0.0104113
0.0119686
0.0135041
0.0153027
0.0178149
0.0201137
0.0230943
0.0253198
-8.15925e-05
0.00293852
0.00252935
0.00103336
0.00206885
0.00256098
0.00354662
0.0058443
0.00523596
0.00769924
0.0081438
0.00930205
0.0104145
0.0119171
0.0134529
0.0152184
0.0176815
0.0199123
0.0227438
0.0248514
-8.89343e-05
0.00293982
0.00253766
0.00105091
0.00209314
0.00254514
0.00357114
0.00581751
0.00524284
0.00763228
0.00818319
0.00923824
0.010406
0.0118698
0.01339
0.015127
0.0175347
0.0196967
0.0223782
0.0243714
-9.63442e-05
0.00294093
0.00254655
0.00106864
0.00211811
0.00252888
0.00359592
0.0057863
0.0052514
0.00756032
0.00821874
0.0091792
0.010385
0.0118253
0.0133165
0.0150269
0.0173747
0.0194657
0.0219988
0.0238806
-0.000103766
0.00294178
0.00255604
0.00108646
0.00214386
0.00251214
0.00362107
0.00575103
0.00526126
0.0074848
0.0082486
0.00912608
0.0103514
0.0117823
0.0132333
0.0149162
0.0172035
0.0192188
0.0216047
0.0233804
-0.000111145
0.00294229
0.00256621
0.0011043
0.00217045
0.00249483
0.00364655
0.00571209
0.00527184
0.00740718
0.00827111
0.00908008
0.010305
0.0117389
0.0131419
0.0147911
0.0170223
0.0189598
0.0211956
0.0228697
-0.000118423
0.00294233
0.00257712
0.00112202
0.00219793
0.00247685
0.00367215
0.00567006
0.00528237
0.00732902
0.00828429
0.00904193
0.0102466
0.0116917
0.0130461
0.0146493
0.0168258
0.0186928
0.0207775
0.0223482
-0.000125539
0.00294177
0.00258887
0.00113948
0.0022263
0.00245814
0.00369747
0.00562559
0.00529181
0.00725236
0.00828667
0.0090105
0.0101782
0.0116369
0.0129475
0.0144958
0.0166092
0.0184107
0.0203548
0.0218216
-0.000132433
0.00294045
0.00260153
0.00115657
0.0022555
0.0024388
0.00372205
0.00557942
0.00529866
0.00717861
0.00827849
0.00898437
0.0101011
0.0115717
0.0128429
0.0143333
0.0163798
0.0181096
0.0199216
0.0212925
-0.000139034
0.00293821
0.00261519
0.00117325
0.00228542
0.00241887
0.00374532
0.00553251
0.00530194
0.00710781
0.00825956
0.00896302
0.0100178
0.0114936
0.0127323
0.0141557
0.0161397
0.0177983
0.0194789
0.0207576
-0.000145266
0.00293486
0.00262996
0.00118934
0.00231609
0.00239845
0.00376657
0.00548552
0.00530116
0.00704088
0.00822941
0.00894325
0.00993167
0.0114006
0.0126158
0.0139656
0.015882
0.0174779
0.019032
0.0202192
-0.000151047
0.00293019
0.00264598
0.00120479
0.00234734
0.00237801
0.00378518
0.00543905
0.00529482
0.00697891
0.00818916
0.00892353
0.00984109
0.0112938
0.01249
0.013764
0.0156092
0.0171505
0.0185768
0.0196774
-0.00015628
0.00292397
0.00266326
0.00121972
0.00237875
0.00235807
0.00380015
0.00539453
0.00528158
0.00692181
0.00813819
0.00890393
0.00974817
0.0111694
0.012358
0.0135495
0.015312
0.0168123
0.018135
0.0191358
-0.000160833
0.00291597
0.0026819
0.00123398
0.00241039
0.00233885
0.00381027
0.00535279
0.00526125
0.00686889
0.00807996
0.00887425
0.00966148
0.0110266
0.0122098
0.0133363
0.0149975
0.0164423
0.0176991
0.0186051
-0.000164669
0.00290604
0.00270195
0.00124771
0.00244175
0.0023212
0.00381517
0.00531326
0.00523507
0.00681657
0.0080212
0.00883203
0.00957381
0.0108717
0.0120438
0.0131123
0.0146824
0.0160587
0.01723
0.0180765
-0.000167634
0.00289387
0.00272356
0.00126097
0.0024722
0.00230567
0.00381429
0.00527591
0.00520463
0.00676182
0.00796059
0.0087816
0.00948324
0.0107032
0.01187
0.0128667
0.0143458
0.0156774
0.0167671
0.0175478
-0.000169466
0.00287914
0.00274671
0.00127355
0.00250215
0.00229212
0.00380715
0.00524099
0.00516796
0.00670904
0.00789744
0.00871467
0.00939546
0.010527
0.011669
0.012627
0.0139934
0.0152643
0.0162721
0.0170387
-0.000170274
0.00286204
0.00277097
0.00128647
0.00252966
0.00228342
0.00379223
0.0052086
0.00512203
0.00665842
0.00783445
0.00863847
0.00929188
0.0103497
0.0114486
0.0123632
0.0136386
0.0148347
0.0157977
0.0165402
-0.00016975
0.00284186
0.00279696
0.00129936
0.00255394
0.00227986
0.00376879
0.00517816
0.00507536
0.00659601
0.00777325
0.00855575
0.00917695
0.0101558
0.0112212
0.0120692
0.0132652
0.0144184
0.0153698
0.0160346
-0.000167469
0.00281801
0.00282464
0.00131199
0.0025767
0.00227868
0.00373946
0.00514714
0.00503557
0.00652533
0.00771004
0.00845604
0.00906423
0.00994966
0.0109685
0.0117824
0.0128751
0.0139835
0.0148695
0.0155427
-0.000163819
0.00279151
0.00285259
0.00132675
0.00259376
0.00228547
0.0037012
0.00511572
0.00497926
0.00645459
0.00764366
0.00834846
0.00893124
0.00974308
0.0106871
0.0114698
0.0124987
0.0135446
0.0144006
0.0150579
-0.000158356
0.00276147
0.00288174
0.00134283
0.00260491
0.00229903
0.00365444
0.00508237
0.00492751
0.00637234
0.00757551
0.00822827
0.00878007
0.00952513
0.0103985
0.0111307
0.0121164
0.0131116
0.0139863
0.0145673
-0.000150429
0.00272643
0.0029124
0.00135943
0.00261368
0.00231312
0.00360557
0.00504189
0.00492268
0.00627416
0.00750023
0.00809554
0.00861968
0.00929024
0.0101137
0.0108111
0.0116984
0.0126455
0.0134457
0.0140919
-0.000140714
0.00268858
0.00294186
0.00138071
0.00261345
0.00233663
0.00354855
0.00499678
0.00481818
0.00617892
0.00741772
0.00796549
0.00842854
0.00903944
0.00980203
0.0104703
0.0112923
0.0121828
0.0129717
0.0136223
-0.000128725
0.00264755
0.00297103
0.00140553
0.00260479
0.00236608
0.00348577
0.00494695
0.00465415
0.00608112
0.00732853
0.00782007
0.00822235
0.00877573
0.00946652
0.0100968
0.0108955
0.011736
0.012587
0.0131474
-0.000113496
0.00259885
0.00300104
0.00143176
0.00259395
0.00239293
0.00342681
0.00488658
0.00481697
0.00597067
0.00723031
0.00766839
0.00802182
0.00848496
0.00912141
0.00972131
0.0104732
0.0112656
0.0119822
0.0126714
-9.63329e-05
0.00258338
0.00302695
0.00146561
0.00257229
0.00242603
0.00336413
0.00481957
0.00465826
0.00585836
0.00711755
0.00751961
0.00779495
0.00819486
0.0087593
0.00930688
0.0100256
0.0108141
0.0115093
0.0122007
-7.60759e-05
0.0025301
0.00305019
0.00150398
0.00254289
0.00246124
0.00329886
0.00474839
0.0045157
0.0057403
0.00699222
0.00735919
0.00756282
0.00790855
0.00837043
0.0088716
0.00954906
0.0103417
0.0111837
0.0117496
-5.20843e-05
0.0024685
0.00307186
0.00154437
0.00251329
0.00248884
0.00324326
0.00466421
0.00463774
0.00561212
0.00685463
0.00718526
0.0073379
0.00761065
0.0080465
0.00845924
0.00903265
0.00974104
0.0104677
0.011294
-2.64309e-05
0.00240949
0.00308636
0.0015925
0.0024766
0.00251365
0.00319126
0.00456868
0.0046265
0.00547942
0.00669503
0.00701226
0.00709955
0.00731896
0.00771649
0.00801894
0.00849705
0.00913535
0.0098375
0.0108557
3.30731e-06
0.00234602
0.00309546
0.00164416
0.00243628
0.00253726
0.00313588
0.00446838
0.00447539
0.00534055
0.00651969
0.00682974
0.00686126
0.00702786
0.00735137
0.00758574
0.0079667
0.00852206
0.00927955
0.0104379
3.65257e-05
0.00227964
0.00309795
0.00169892
0.00239533
0.00255381
0.00308362
0.00436178
0.0044065
0.00519487
0.00633185
0.00663827
0.00662689
0.00671897
0.0069742
0.00715195
0.00740708
0.00794911
0.00880951
0.0100201
7.23476e-05
0.00221266
0.00309239
0.00175606
0.00235345
0.00256486
0.00303298
0.00424578
0.0043633
0.00504291
0.00613179
0.00644243
0.00638572
0.00639372
0.00658095
0.00669086
0.00688607
0.00746053
0.0083502
0.00954987
0.000112046
0.00214431
0.00307878
0.00181327
0.00231328
0.00256937
0.00298116
0.0041245
0.00427049
0.00488357
0.00592813
0.00623602
0.00613205
0.006053
0.00616785
0.00625471
0.00642743
0.00696301
0.00782439
0.00907951
0.000154993
0.00207543
0.00305604
0.00187004
0.00227505
0.00256529
0.00293253
0.00399596
0.00416808
0.00472239
0.00571877
0.00601317
0.0058671
0.00570903
0.00576438
0.00583463
0.00595594
0.00643049
0.0073159
0.00864768
0.000201328
0.00200619
0.00302485
0.00192411
0.00223913
0.00255509
0.00288357
0.00386028
0.00406103
0.0045574
0.00549612
0.00577421
0.00560212
0.00537229
0.00535145
0.00539622
0.00548205
0.00592745
0.00683065
0.00821247
0.000250743
0.00193748
0.00298442
0.00197552
0.00220501
0.00253584
0.00283358
0.00372342
0.00393764
0.00438141
0.00526161
0.00552882
0.00533551
0.00503074
0.0049253
0.0049547
0.00502894
0.0054448
0.00634265
0.00776843
0.000303369
0.00186938
0.00293505
0.00202277
0.00217221
0.00250956
0.00278223
0.00358357
0.00380106
0.00419776
0.00502434
0.00527262
0.00505533
0.00468928
0.00450055
0.00451427
0.00458203
0.00496737
0.00585716
0.00732882
0.000358875
0.0018031
0.0028762
0.00206463
0.00214138
0.00247514
0.00272688
0.00344206
0.00365767
0.00400925
0.00477902
0.00500014
0.00476352
0.00435751
0.00408271
0.00406317
0.00412785
0.00449928
0.00538936
0.00689658
0.000416691
0.00173927
0.00280861
0.00210023
0.00211069
0.002433
0.00266801
0.00329912
0.0035074
0.00381195
0.00452501
0.00471947
0.0044619
0.00402948
0.00366494
0.00359869
0.00367646
0.00404888
0.00493529
0.00647027
0.000476255
0.00167853
0.0027324
0.00212872
0.00207845
0.00238411
0.00260694
0.00315363
0.00334866
0.00360464
0.00426503
0.00443629
0.00414647
0.00369576
0.00325827
0.00313942
0.00322341
0.00360085
0.0044932
0.0060511
0.000537524
0.0016213
0.00264914
0.00214861
0.0020438
0.00232723
0.00254015
0.00300693
0.00318504
0.00339047
0.00399843
0.00414909
0.00381772
0.00335614
0.0028673
0.00268362
0.00276101
0.00315412
0.00406038
0.0056401
0.000600147
0.00156829
0.00256049
0.00215807
0.00201081
0.00226025
0.00245627
0.00286198
0.0030211
0.00317063
0.00372129
0.00385824
0.00348182
0.00300761
0.00248516
0.00223553
0.00229961
0.00270594
0.0036312
0.00523897
0.000662385
0.0015207
0.00246729
0.00215685
0.00197249
0.00218151
0.00236828
0.00271674
0.00285345
0.00294536
0.00343313
0.00356516
0.00314422
0.00264726
0.00210739
0.0018011
0.00184163
0.00225428
0.00320308
0.00484407
0.000723113
0.00147881
0.00237114
0.00214211
0.00192724
0.00210071
0.0022773
0.00256535
0.00268065
0.00271797
0.00313493
0.00326715
0.00280906
0.00227573
0.00172865
0.00137923
0.0013894
0.00180315
0.00277453
0.00444936
0.000781824
0.00144311
0.00227193
0.00211201
0.00187967
0.00201817
0.00217994
0.00240766
0.00250239
0.00249007
0.0028255
0.00295997
0.0024777
0.00189665
0.00134411
0.000964671
0.000945502
0.00135641
0.00234413
0.00405369
0.000838052
0.00141256
0.00217071
0.00206756
0.00182869
0.0019329
0.00207625
0.00224415
0.00231688
0.00226255
0.00250701
0.00263859
0.00214965
0.00151703
0.000952552
0.000555279
0.000513021
0.000916547
0.00191531
0.00365746
0.000890673
0.00138635
0.00206969
0.00201097
0.0017724
0.00184308
0.0019667
0.00207586
0.00212164
0.00203451
0.0021829
0.00230084
0.00182441
0.00114407
0.000557451
0.000147218
8.63494e-05
0.000482109
0.00149019
0.00326222
0.000939289
0.00136376
0.00197012
0.0019428
0.00170847
0.00174809
0.00185259
0.00190447
0.00191525
0.0018039
0.00185762
0.0019467
0.00149602
0.000779626
0.000161742
-0.000262583
-0.000337113
5.39461e-05
0.0010716
0.0028713
0.000983533
0.00134402
0.00187262
0.00186356
0.00163651
0.00164865
0.00173311
0.00172954
0.00169638
0.00156769
0.0015349
0.00157923
0.00116099
0.000425282
-0.000227247
-0.0006704
-0.00075795
-0.000369871
0.000657842
0.00248333
0.00102305
0.00132604
0.00177794
0.00176757
0.00155587
0.00154335
0.00160673
0.00155133
0.00146704
0.00132532
0.00121954
0.00120461
0.000816176
7.8371e-05
-0.000607669
-0.00107616
-0.00117946
-0.000793132
0.000246069
0.00209813
0.00105759
0.00130892
0.00168653
0.00167138
0.00146585
0.00143051
0.00147328
0.00137197
0.00123026
0.001075
0.000911912
0.000825556
0.000455189
-0.000269941
-0.000981946
-0.00147693
-0.0015984
-0.00121467
-0.000163816
0.00171562
0.00108688
0.00129187
0.0015986
0.00156963
0.00136644
0.00130974
0.00133213
0.00119216
0.000987558
0.000812364
0.000606704
0.000444924
7.89599e-05
-0.00062295
-0.00134842
-0.00186653
-0.00200953
-0.00163325
-0.000573628
0.00133347
0.00111085
0.00127411
0.00151388
0.00146403
0.00125798
0.00118073
0.0011824
0.00101062
0.000743031
0.000537104
0.000300714
6.9107e-05
-0.000306681
-0.000980598
-0.00170779
-0.00224507
-0.00241249
-0.00204898
-0.000983925
0.000950037
0.00112946
0.00125489
0.001432
0.00135536
0.00114103
0.00104313
0.00102306
0.000826091
0.000499673
0.000251497
-7.43237e-06
-0.000298801
-0.000697946
-0.00134678
-0.00206661
-0.00261687
-0.00280703
-0.00245865
-0.00139176
0.000566275
0.00114268
0.00123351
0.00135248
0.00124425
0.0010162
0.000897209
0.00085364
0.000637179
0.000258587
-4.27327e-05
-0.000321945
-0.000660388
-0.00109143
-0.00172282
-0.0024283
-0.0029829
-0.00319069
-0.00285842
-0.00179407
0.000183456
0.00115056
0.00120944
0.00127457
0.00113156
0.000884298
0.000743334
0.000674139
0.000441594
2.04913e-05
-0.000343044
-0.000645373
-0.0010178
-0.00148289
-0.00210551
-0.00279359
-0.00334482
-0.00356446
-0.00324757
-0.00218893
-0.000197688
0.00115315
0.00118218
0.00119751
0.00101793
0.000746257
0.000581785
0.000484959
0.000237345
-0.000215399
-0.000644036
-0.000976782
-0.0013739
-0.00186955
-0.00249099
-0.00316399
-0.00370671
-0.00393136
-0.00362655
-0.00257496
-0.000575188
0.00115062
0.00115145
0.00112036
0.000903695
0.000603072
0.000412695
0.000287172
2.36446e-05
-0.000451077
-0.00094593
-0.00131437
-0.00173161
-0.00225183
-0.00287694
-0.00353878
-0.00407068
-0.00429412
-0.00399645
-0.00295085
-0.000946999
0.00114298
0.00111704
0.00104231
0.00078901
0.000455981
0.000236489
8.17057e-05
-0.000200066
-0.000688659
-0.00123486
-0.0016556
-0.00209228
-0.00263127
-0.00326133
-0.00391468
-0.00443764
-0.00465516
-0.00435928
-0.00331725
-0.00131243
0.00113031
0.0010788
0.000962709
0.000673764
0.000306079
5.40821e-05
-0.000130717
-0.000433579
-0.000930293
-0.00151879
-0.00200028
-0.0024565
-0.00300948
-0.00364339
-0.0042872
-0.00480792
-0.00501711
-0.00471722
-0.0036764
-0.00167231
0.00111272
0.00103677
0.000881104
0.000557646
0.000154174
-0.000133707
-0.000349445
-0.00067581
-0.00117788
-0.00179787
-0.00233873
-0.00282354
-0.00338734
-0.00402623
-0.00468235
-0.00518239
-0.00538256
-0.00507762
-0.0040343
-0.00202948
0.00109028
0.000990886
0.000797026
0.000440354
1.00448e-06
-0.000325756
-0.000573392
-0.000925452
-0.00143376
-0.00207363
-0.00267064
-0.00319139
-0.00376719
-0.00440509
-0.00504963
-0.00555136
-0.00574758
-0.00543871
-0.00439135
-0.00238431
0.00106311
0.000940951
0.000710293
0.000321565
-0.000152849
-0.000521084
-0.000801932
-0.00118075
-0.00169878
-0.00234873
-0.00299486
-0.00355698
-0.00414753
-0.004785
-0.00542016
-0.00591913
-0.00611243
-0.00580084
-0.00474951
-0.00273904
0.00103104
0.000887913
0.000621034
0.000200959
-0.000306934
-0.000718215
-0.00103445
-0.00144026
-0.00197222
-0.00262618
-0.00331185
-0.00391846
-0.00452666
-0.00516571
-0.00579232
-0.00628715
-0.00647783
-0.00616481
-0.00511026
-0.00309581
0.000994251
0.000831612
0.000529466
7.83431e-05
-0.000461353
-0.000916009
-0.00126972
-0.00170247
-0.0022526
-0.00290928
-0.00362334
-0.00427454
-0.00490401
-0.00554749
-0.00616596
-0.00665541
-0.00684387
-0.00652989
-0.00547357
-0.00345565
0.000953294
0.000772222
0.00043569
-4.61188e-05
-0.000615826
-0.00111333
-0.00150715
-0.00196618
-0.00253702
-0.00319937
-0.00393119
-0.00462407
-0.00527899
-0.00593104
-0.00654366
-0.00702602
-0.00721221
-0.00689814
-0.00584069
-0.00381829
0.000907211
0.000710069
0.000340403
-0.000172202
-0.000770372
-0.00130919
-0.00174585
-0.00223203
-0.00282299
-0.00349538
-0.0042374
-0.00496504
-0.00564833
-0.00631332
-0.00692508
-0.00740098
-0.00758382
-0.00726969
-0.00621286
-0.00418834
0.000857842
0.000645257
0.000243714
-0.000299468
-0.000924605
-0.00150281
-0.00198349
-0.00249963
-0.00311026
-0.00379615
-0.00454637
-0.00530012
-0.0060105
-0.00669088
-0.00730751
-0.00778054
-0.00795967
-0.00764338
-0.00658712
-0.00456305
0.000804157
0.000578425
0.000147563
-0.000426343
-0.00107829
-0.00169439
-0.00221893
-0.00276816
-0.00339765
-0.00409772
-0.00485755
-0.00563263
-0.00636899
-0.00706622
-0.00769082
-0.00816425
-0.00834208
-0.00802463
-0.00696884
-0.00494446
0.000747087
0.000509216
5.02778e-05
-0.000551715
-0.00122884
-0.00188149
-0.00245043
-0.00303707
-0.00368618
-0.00439801
-0.00516737
-0.00595999
-0.00672214
-0.00743816
-0.00807348
-0.00855109
-0.00873137
-0.00841556
-0.00736104
-0.00533691
0.00068718
0.000438389
-4.78856e-05
-0.000678827
-0.00138037
-0.00206771
-0.00267826
-0.00330253
-0.00397496
-0.0046981
-0.00547459
-0.00628078
-0.00706687
-0.00780402
-0.00845465
-0.00894049
-0.00912611
-0.00881369
-0.00776231
-0.00574162
0.000621487
0.000373413
-0.000129019
-0.000790278
-0.00152129
-0.00225342
-0.0029081
-0.00356659
-0.00426287
-0.00499741
-0.00577971
-0.00659844
-0.00740642
-0.00816517
-0.00883467
-0.00933409
-0.00953033
-0.00922731
-0.00818207
-0.00616359
0.000552003
0.00028296
-0.000240542
-0.000899281
-0.00164763
-0.00242477
-0.0031314
-0.00382485
-0.00454087
-0.00528382
-0.00607175
-0.00690271
-0.00773189
-0.00851426
-0.00920407
-0.00972082
-0.00993365
-0.00964908
-0.00862297
-0.00662301
0.000491882
0.000252041
-0.000293297
-0.00101836
-0.00180909
-0.00262933
-0.00337205
-0.00408559
-0.00481466
-0.00556162
-0.00635406
-0.00719481
-0.00804498
-0.0088509
-0.00955762
-0.010086
-0.0103098
-0.0100436
-0.00903957
-0.00706008
0.000353827
0.000117207
-0.000331179
-0.000995654
-0.00187403
-0.00281142
-0.00362359
-0.00434629
-0.00508554
-0.00584799
-0.00664701
-0.00750002
-0.0083771
-0.00921873
-0.00996223
-0.010513
-0.0107492
-0.0104813
-0.00946986
-0.00748165
0.000398488
0.000120339
-0.000468036
-0.00124461
-0.00209397
-0.00297415
-0.00379241
-0.00452782
-0.00526119
-0.00602525
-0.00683125
-0.00768816
-0.00857657
-0.00944579
-0.0102498
-0.0109116
-0.0112805
-0.011147
-0.0102618
-0.00839078
0.000252116
3.7421e-05
-0.000555459
-0.00125675
-0.00209604
-0.00310151
-0.00405879
-0.00485996
-0.00563132
-0.00639182
-0.00720447
-0.00803341
-0.00886967
-0.00963358
-0.0102588
-0.0106998
-0.0108902
-0.0106751
-0.0098045
-0.00802006
0.00034151
-2.2181e-05
-0.000622745
-0.00145424
-0.00234734
-0.003239
-0.00404752
-0.00475382
-0.00550485
-0.00634425
-0.00722973
-0.00816842
-0.00916736
-0.0102316
-0.0113001
-0.0122382
-0.0128486
-0.0129438
-0.0122645
-0.0105731
0.000509768
-0.000189119
-0.000890529
-0.00171275
-0.00254671
-0.00356853
-0.00447672
-0.00519925
-0.00596569
-0.00685792
-0.00773725
-0.00850255
-0.00902818
-0.00919187
-0.00896172
-0.00842347
-0.0077812
-0.00729905
-0.00734891
-0.00826211
0.00045647
-0.000176476
-0.000924207
-0.0017007
-0.00240938
-0.00310854
-0.00391509
-0.00473299
-0.00554538
-0.00650651
-0.00761189
-0.0088357
-0.0101199
-0.0114533
-0.0127581
-0.0139309
-0.0148097
-0.0151746
-0.0147641
-0.0133384
0.000581574
-0.000260695
-0.00104515
-0.00184105
-0.00255954
-0.00348293
-0.00442934
-0.0054878
-0.00648515
-0.00726388
-0.00801738
-0.00886355
-0.00964219
-0.0101963
-0.0103986
-0.0102406
-0.00985635
-0.00953524
-0.00965736
-0.0105805
0.000561159
-0.000302872
-0.00107693
-0.00177507
-0.00231499
-0.00290749
-0.00358325
-0.00440448
-0.00534016
-0.00650441
-0.00795368
-0.00973036
-0.0117253
-0.0137666
-0.0156432
-0.0171925
-0.0182379
-0.0185987
-0.0180573
-0.0164217
0.0436084
0.0153105
0.0043032
0.00170278
-0.000312533
-0.00233102
-0.00342603
-0.0039582
-0.00486596
-0.00617347
-0.00746746
-0.00865671
-0.00984219
-0.0110719
-0.0123518
-0.0136352
-0.0148065
-0.0158598
-0.0169959
-0.0182354
-0.0194403
-0.0206356
-0.0219001
-0.0231873
-0.0244888
-0.0258386
-0.0272404
-0.0287345
-0.0302708
-0.0318492
-0.0334209
-0.0350324
-0.0367709
-0.0386298
-0.0405048
-0.0424391
-0.0444715
-0.0465443
-0.0487383
-0.0509621
-0.0533364
-0.0557272
-0.0582665
-0.0608594
-0.0635509
-0.0664277
-0.0693062
-0.0725092
-0.0757353
-0.079007
0.0425252
0.015358
0.00434826
0.00172217
-0.000301969
-0.00232466
-0.00342169
-0.00395453
-0.00486263
-0.00617057
-0.00746498
-0.0086546
-0.00984041
-0.0110704
-0.0123506
-0.0136342
-0.0148056
-0.015859
-0.0169952
-0.0182348
-0.0194397
-0.0206351
-0.0218997
-0.0231869
-0.0244884
-0.0258382
-0.0272401
-0.0287342
-0.0302705
-0.031849
-0.0334207
-0.0350322
-0.0367707
-0.0386296
-0.0405046
-0.0424389
-0.0444713
-0.0465441
-0.0487382
-0.050962
-0.0533363
-0.0557271
-0.0582664
-0.0608593
-0.0635508
-0.0664276
-0.0693061
-0.0725091
-0.0757353
-0.079007
0.0416239
0.0154601
0.00441985
0.00174569
-0.000290464
-0.00231792
-0.00341735
-0.00395103
-0.00485962
-0.00616805
-0.00746282
-0.00865271
-0.00983879
-0.011069
-0.0123494
-0.0136333
-0.0148048
-0.0158583
-0.0169946
-0.0182343
-0.0194393
-0.0206346
-0.0218993
-0.0231865
-0.024488
-0.0258379
-0.0272398
-0.0287339
-0.0302702
-0.0318487
-0.0334205
-0.035032
-0.0367705
-0.0386294
-0.0405045
-0.0424388
-0.0444712
-0.046544
-0.0487381
-0.0509619
-0.0533362
-0.055727
-0.0582663
-0.0608593
-0.0635507
-0.0664275
-0.069306
-0.0725091
-0.0757353
-0.0790071
0.0408053
0.0155886
0.00452137
0.00177894
-0.000274913
-0.00230863
-0.00341159
-0.00394696
-0.00485654
-0.00616562
-0.00746066
-0.00865076
-0.00983708
-0.0110676
-0.0123482
-0.0136323
-0.0148041
-0.0158576
-0.016994
-0.0182337
-0.0194388
-0.0206342
-0.0218989
-0.0231862
-0.0244877
-0.0258376
-0.0272394
-0.0287336
-0.03027
-0.0318485
-0.0334202
-0.0350318
-0.0367703
-0.0386292
-0.0405043
-0.0424386
-0.0444711
-0.0465439
-0.0487379
-0.0509618
-0.0533361
-0.0557269
-0.0582662
-0.0608592
-0.0635506
-0.0664275
-0.069306
-0.072509
-0.0757353
-0.0790072
0.0399839
0.0157228
0.00464497
0.00182164
-0.000254254
-0.00229543
-0.00340319
-0.00394156
-0.00485305
-0.00616307
-0.00745836
-0.00864856
-0.00983508
-0.0110658
-0.0123468
-0.0136311
-0.0148031
-0.0158568
-0.0169933
-0.0182332
-0.0194383
-0.0206337
-0.0218984
-0.0231858
-0.0244873
-0.0258373
-0.0272391
-0.0287333
-0.0302697
-0.0318482
-0.03342
-0.0350316
-0.0367701
-0.0386291
-0.0405042
-0.0424385
-0.0444709
-0.0465438
-0.0487378
-0.0509617
-0.053336
-0.0557268
-0.0582661
-0.0608591
-0.0635505
-0.0664274
-0.0693059
-0.072509
-0.0757353
-0.0790075
0.0391454
0.0158558
0.00478015
0.00186934
-0.000230168
-0.00227884
-0.00339203
-0.00393442
-0.00484877
-0.00616024
-0.00745586
-0.00864609
-0.00983275
-0.0110637
-0.012345
-0.0136297
-0.0148019
-0.0158558
-0.0169924
-0.0182325
-0.0194378
-0.0206332
-0.021898
-0.0231853
-0.0244869
-0.0258369
-0.0272388
-0.028733
-0.0302694
-0.031848
-0.0334198
-0.0350313
-0.0367699
-0.0386289
-0.040504
-0.0424383
-0.0444708
-0.0465436
-0.0487377
-0.0509615
-0.0533359
-0.0557267
-0.058266
-0.060859
-0.0635504
-0.0664273
-0.0693058
-0.0725089
-0.0757353
-0.0790077
0.0382942
0.0159845
0.00492134
0.00191869
-0.000204893
-0.0022605
-0.00337899
-0.0039256
-0.00484338
-0.00615684
-0.00745304
-0.00864337
-0.0098301
-0.0110612
-0.0123427
-0.0136277
-0.0148003
-0.0158544
-0.0169913
-0.0182317
-0.0194371
-0.0206326
-0.0218975
-0.0231849
-0.0244865
-0.0258365
-0.0272384
-0.0287327
-0.0302691
-0.0318477
-0.0334195
-0.0350311
-0.0367696
-0.0386287
-0.0405038
-0.0424381
-0.0444706
-0.0465435
-0.0487376
-0.0509614
-0.0533358
-0.0557266
-0.0582659
-0.0608589
-0.0635503
-0.0664272
-0.0693057
-0.0725088
-0.0757353
-0.079008
0.0374352
0.0161068
0.00506701
0.00196852
-0.000179776
-0.0022418
-0.00336524
-0.00391567
-0.00483684
-0.00615261
-0.00744978
-0.00864039
-0.00982722
-0.0110584
-0.01234
-0.0136253
-0.0147982
-0.0158527
-0.01699
-0.0182306
-0.0194363
-0.020632
-0.0218969
-0.0231844
-0.024486
-0.025836
-0.027238
-0.0287323
-0.0302688
-0.0318474
-0.0334193
-0.0350308
-0.0367694
-0.0386284
-0.0405036
-0.0424379
-0.0444704
-0.0465433
-0.0487374
-0.0509613
-0.0533357
-0.0557265
-0.0582658
-0.0608588
-0.0635502
-0.0664271
-0.0693056
-0.0725087
-0.0757352
-0.0790084
0.0365715
0.0162217
0.00521722
0.00201869
-0.000155436
-0.00222347
-0.00335161
-0.00390532
-0.00482943
-0.00614756
-0.007446
-0.00863718
-0.0098242
-0.0110554
-0.0123371
-0.0136225
-0.0147957
-0.0158506
-0.0169883
-0.0182293
-0.0194353
-0.0206312
-0.0218963
-0.0231838
-0.0244855
-0.0258355
-0.0272375
-0.0287319
-0.0302685
-0.0318471
-0.033419
-0.0350305
-0.0367691
-0.0386282
-0.0405034
-0.0424377
-0.0444702
-0.0465431
-0.0487372
-0.0509611
-0.0533355
-0.0557263
-0.0582657
-0.0608587
-0.0635501
-0.066427
-0.0693055
-0.0725086
-0.0757352
-0.0790089
0.0357052
0.0163278
0.00537214
0.00206927
-0.000132177
-0.00220577
-0.00333847
-0.00389515
-0.00482166
-0.00614192
-0.00744177
-0.00863377
-0.00982112
-0.0110523
-0.0123339
-0.0136193
-0.0147927
-0.0158481
-0.0169863
-0.0182277
-0.019434
-0.0206302
-0.0218955
-0.0231832
-0.0244849
-0.025835
-0.0272369
-0.0287314
-0.0302681
-0.0318468
-0.0334187
-0.0350302
-0.0367687
-0.0386279
-0.0405031
-0.0424374
-0.04447
-0.0465429
-0.0487371
-0.050961
-0.0533354
-0.0557262
-0.0582656
-0.0608586
-0.06355
-0.0664269
-0.0693054
-0.0725084
-0.0757351
-0.0790094
0.0348385
0.0164242
0.00553154
0.00212032
-0.00011016
-0.00218874
-0.00332591
-0.00388555
-0.00481405
-0.00613607
-0.00743728
-0.00863023
-0.00981803
-0.0110493
-0.0123308
-0.013616
-0.0147894
-0.0158453
-0.0169841
-0.0182258
-0.0194324
-0.020629
-0.0218946
-0.0231825
-0.0244843
-0.0258344
-0.0272362
-0.0287308
-0.0302677
-0.0318465
-0.0334184
-0.0350298
-0.0367684
-0.0386276
-0.0405028
-0.0424372
-0.0444697
-0.0465427
-0.0487368
-0.0509608
-0.0533352
-0.0557261
-0.0582655
-0.0608585
-0.0635499
-0.0664268
-0.0693052
-0.0725082
-0.0757349
-0.07901
0.0339737
0.0165094
0.00569489
0.00217195
-8.94496e-05
-0.00217234
-0.00331387
-0.00387675
-0.00480699
-0.00613034
-0.00743273
-0.00862664
-0.00981496
-0.0110463
-0.0123277
-0.0136127
-0.0147859
-0.0158422
-0.0169816
-0.0182236
-0.0194305
-0.0206275
-0.0218934
-0.0231816
-0.0244836
-0.0258338
-0.0272355
-0.0287301
-0.0302671
-0.0318461
-0.0334181
-0.0350295
-0.036768
-0.0386272
-0.0405025
-0.0424369
-0.0444694
-0.0465424
-0.0487366
-0.0509606
-0.0533351
-0.0557259
-0.0582653
-0.0608583
-0.0635497
-0.0664266
-0.0693051
-0.0725079
-0.0757346
-0.0790106
0.0331127
0.0165821
0.00586149
0.00222428
-7.00148e-05
-0.00215642
-0.00330219
-0.00386886
-0.00480077
-0.00612498
-0.00742825
-0.00862307
-0.00981192
-0.0110434
-0.0123247
-0.0136095
-0.0147824
-0.0158389
-0.016979
-0.0182214
-0.0194285
-0.0206258
-0.0218921