/*--------------------------------*- C++ -*----------------------------------*\
| =========                 |                                                 |
| \\      /  F ield         | OpenFOAM: The Open Source CFD Toolbox           |
|  \\    /   O peration     | Version:  v2012                                 |
|   \\  /    A nd           | Website:  www.openfoam.com                      |
|    \\/     M anipulation  |                                                 |
\*---------------------------------------------------------------------------*/
FoamFile
{
    version     2.0;
    format      ascii;
    class       volVectorField;
    location    "5.9";
    object      U;
}
// * * * * * * * * * * * * * * * * * * * * * * * * * * * * * * * * * * * * * //

dimensions      [0 1 -1 0 0 0 0];


internalField   nonuniform List<vector> 
7000
(
(0.968857 -0.00626236 0)
(0.989188 0.00393467 0)
(0.997132 -0.0132913 0)
(1.00552 -0.00678348 0)
(1.03584 0.0155594 0)
(1.05883 0.0109123 0)
(1.00137 0.0271728 0)
(1.0856 0.0225948 0)
(0.995936 -0.00150908 0)
(1.06186 -0.0106217 0)
(0.981338 -0.0290846 0)
(1.04172 -0.0300765 0)
(0.939786 -0.0412474 0)
(1.03398 -0.0347509 0)
(0.918294 -0.040051 0)
(1.04794 -0.0342637 0)
(0.90324 -0.0318377 0)
(1.07237 -0.0309416 0)
(0.881645 -0.0210672 0)
(1.09308 -0.0251801 0)
(0.973529 -0.0060918 0)
(0.987146 0.0038153 0)
(1.00058 -0.0133884 0)
(1.00702 -0.00701551 0)
(1.03712 0.0152667 0)
(1.0565 0.0111204 0)
(1.00711 0.0269806 0)
(1.0693 0.0226167 0)
(1.02598 -0.0012017 0)
(1.03062 -0.0104057 0)
(1.0209 -0.0286223 0)
(1.00014 -0.0293679 0)
(0.990141 -0.0408443 0)
(0.982775 -0.034468 0)
(0.975293 -0.0401151 0)
(0.98571 -0.0342764 0)
(0.971846 -0.0321979 0)
(0.996503 -0.031018 0)
(0.965879 -0.0209505 0)
(1.00312 -0.0258455 0)
(0.980778 -0.00592376 0)
(0.983229 0.00367017 0)
(1.00342 -0.0135028 0)
(1.00852 -0.00724373 0)
(1.0401 0.0149 0)
(1.05227 0.0113706 0)
(1.01688 0.0268249 0)
(1.05284 0.0224261 0)
(1.04066 -0.00072267 0)
(1.02416 -0.0104308 0)
(1.02157 -0.0280401 0)
(0.995684 -0.0292334 0)
(0.991911 -0.0402379 0)
(0.970761 -0.0345758 0)
(0.981332 -0.0397194 0)
(0.965608 -0.0346494 0)
(0.984944 -0.0320673 0)
(0.970933 -0.0311939 0)
(0.987434 -0.0212214 0)
(0.976895 -0.0249243 0)
(0.989052 -0.00577474 0)
(0.978107 0.00355694 0)
(1.00413 -0.013646 0)
(1.00897 -0.00747402 0)
(1.04408 0.0146108 0)
(1.04809 0.0115509 0)
(1.02692 0.0268352 0)
(1.04342 0.0221708 0)
(1.04718 -0.000369749 0)
(1.02379 -0.0103121 0)
(1.0224 -0.0275007 0)
(0.999506 -0.0289513 0)
(0.992753 -0.0395586 0)
(0.974362 -0.0346255 0)
(0.979985 -0.0392809 0)
(0.966516 -0.0351086 0)
(0.982642 -0.0317783 0)
(0.968847 -0.031822 0)
(0.987222 -0.0209754 0)
(0.973866 -0.0246564 0)
(0.997017 -0.00562918 0)
(0.973051 0.00348061 0)
(1.0024 -0.0138232 0)
(1.00793 -0.00774009 0)
(1.04775 0.0143694 0)
(1.04533 0.0116739 0)
(1.03509 0.0269072 0)
(1.04072 0.021942 0)
(1.04949 -6.49686e-05 0)
(1.02716 -0.0101276 0)
(1.02102 -0.0269871 0)
(1.00512 -0.0286969 0)
(0.991989 -0.0388755 0)
(0.979678 -0.0346434 0)
(0.978025 -0.0387818 0)
(0.970775 -0.0354965 0)
(0.978737 -0.0314746 0)
(0.971846 -0.0323538 0)
(0.98295 -0.0207141 0)
(0.976354 -0.0246663 0)
(1.00354 -0.00548609 0)
(0.96962 0.00344519 0)
(0.998875 -0.0140227 0)
(1.00543 -0.00805026 0)
(1.05002 0.0141201 0)
(1.04375 0.0117619 0)
(1.04124 0.026956 0)
(1.041 0.0217614 0)
(1.05094 0.000208272 0)
(1.03005 -0.0099097 0)
(1.02132 -0.026474 0)
(1.00921 -0.0284347 0)
(0.993479 -0.0381375 0)
(0.983226 -0.0346271 0)
(0.978266 -0.0382376 0)
(0.973133 -0.0358401 0)
(0.976737 -0.0311438 0)
(0.973386 -0.0328134 0)
(0.979844 -0.0205558 0)
(0.977685 -0.0247405 0)
(1.00795 -0.00535075 0)
(0.968964 0.00345447 0)
(0.994787 -0.0142223 0)
(1.00163 -0.00840805 0)
(1.05048 0.0138413 0)
(1.04207 0.0118171 0)
(1.04586 0.0269815 0)
(1.04143 0.0216149 0)
(1.05231 0.000475451 0)
(1.03175 -0.00968337 0)
(1.02257 -0.0259448 0)
(1.01164 -0.0282007 0)
(0.996104 -0.0373523 0)
(0.985153 -0.0345951 0)
(0.97982 -0.0376399 0)
(0.973697 -0.0361217 0)
(0.976171 -0.0308037 0)
(0.97313 -0.0331966 0)
(0.97812 -0.0204819 0)
(0.97729 -0.0247791 0)
(1.01018 -0.00522951 0)
(0.971245 0.00350302 0)
(0.99141 -0.0143949 0)
(0.996733 -0.0088065 0)
(1.04921 0.0135353 0)
(1.03899 0.0118332 0)
(1.04928 0.0269949 0)
(1.04081 0.0214877 0)
(1.05349 0.000745775 0)
(1.03233 -0.00946484 0)
(1.02411 -0.0253936 0)
(1.01312 -0.0279953 0)
(0.998961 -0.0365164 0)
(0.986559 -0.0345435 0)
(0.981729 -0.0369855 0)
(0.973714 -0.0363357 0)
(0.976001 -0.0304633 0)
(0.97215 -0.0334858 0)
(0.976813 -0.0204781 0)
(0.97607 -0.0247683 0)
(1.01068 -0.00512773 0)
(0.975627 0.00357757 0)
(0.989585 -0.0145142 0)
(0.991037 -0.00922637 0)
(1.04633 0.0132107 0)
(1.03375 0.0118012 0)
(1.05142 0.0269892 0)
(1.03901 0.0213697 0)
(1.05417 0.00101816 0)
(1.03203 -0.00925965 0)
(1.02546 -0.0248257 0)
(1.01401 -0.0278199 0)
(1.00152 -0.0356471 0)
(0.98799 -0.0344716 0)
(0.983551 -0.0362809 0)
(0.973909 -0.0364672 0)
(0.975748 -0.0301199 0)
(0.971086 -0.0336651 0)
(0.975323 -0.0205353 0)
(0.974505 -0.0247185 0)
(1.01008 -0.00504773 0)
(0.980787 0.00366191 0)
(0.989531 -0.0145617 0)
(0.985053 -0.00964301 0)
(1.04177 0.0128805 0)
(1.02607 0.0117136 0)
(1.0519 0.0269473 0)
(1.03624 0.0212514 0)
(1.05411 0.00128807 0)
(1.03105 -0.00907328 0)
(1.02636 -0.0242474 0)
(1.01443 -0.0276697 0)
(1.00356 -0.0347609 0)
(0.989487 -0.0343754 0)
(0.985217 -0.0355363 0)
(0.974457 -0.0364989 0)
(0.975455 -0.0297702 0)
(0.970116 -0.0337194 0)
(0.973589 -0.0206342 0)
(0.972648 -0.0246347 0)
(1.00896 -0.00498785 0)
(0.98558 0.00374111 0)
(0.990914 -0.0145316 0)
(0.979488 -0.0100299 0)
(1.03535 0.0125656 0)
(1.01619 0.0115673 0)
(1.0503 0.0268487 0)
(1.0328 0.0211207 0)
(1.05315 0.00154904 0)
(1.02962 -0.00891063 0)
(1.02669 -0.0236632 0)
(1.01439 -0.0275417 0)
(1.005 -0.0338752 0)
(0.990912 -0.0342557 0)
(0.986762 -0.0347692 0)
(0.975312 -0.0364196 0)
(0.975327 -0.0294121 0)
(0.969311 -0.0336335 0)
(0.9718 -0.0207472 0)
(0.970537 -0.024508 0)
(1.00763 -0.00494339 0)
(0.98943 0.00380396 0)
(0.993072 -0.0144309 0)
(0.97506 -0.0103583 0)
(1.02722 0.0122918 0)
(1.00508 0.0113628 0)
(1.04645 0.0266717 0)
(1.02907 0.0209622 0)
(1.05126 0.00179652 0)
(1.02798 -0.00877615 0)
(1.02644 -0.023075 0)
(1.01399 -0.0274332 0)
(1.00584 -0.0330026 0)
(0.992123 -0.034116 0)
(0.988159 -0.0339999 0)
(0.976382 -0.0362257 0)
(0.97548 -0.029044 0)
(0.968784 -0.0333961 0)
(0.970166 -0.0208453 0)
(0.96837 -0.0243179 0)
(1.00626 -0.0049088 0)
(0.992321 0.00384433 0)
(0.995283 -0.0142741 0)
(0.972265 -0.0106079 0)
(1.01812 0.0120785 0)
(0.994417 0.0111048 0)
(1.04073 0.026401 0)
(1.02559 0.0207607 0)
(1.04853 0.00202721 0)
(1.02641 -0.00867319 0)
(1.02565 -0.022482 0)
(1.01333 -0.0273385 0)
(1.0061 -0.032154 0)
(0.993039 -0.0339563 0)
(0.98933 -0.0332547 0)
(0.977569 -0.035918 0)
(0.97589 -0.0286675 0)
(0.968648 -0.0330046 0)
(0.968826 -0.0209036 0)
(0.966435 -0.0240397 0)
(1.00492 -0.00487978 0)
(0.994525 0.00386167 0)
(0.997011 -0.0140776 0)
(0.971217 -0.0107719 0)
(1.00925 0.0119295 0)
(0.986179 0.0108034 0)
(1.03398 0.0260365 0)
(1.02291 0.020507 0)
(1.04513 0.00224177 0)
(1.0251 -0.00860364 0)
(1.02442 -0.0218824 0)
(1.01253 -0.0272495 0)
(1.00589 -0.0313383 0)
(0.993649 -0.0337716 0)
(0.99019 -0.0325566 0)
(0.978768 -0.035504 0)
(0.976429 -0.0282894 0)
(0.968929 -0.0324641 0)
(0.967846 -0.0209041 0)
(0.96497 -0.023656 0)
(1.0037 -0.00485377 0)
(0.996312 0.00385909 0)
(0.998039 -0.0138565 0)
(0.971651 -0.0108571 0)
(1.00184 0.0118304 0)
(0.981754 0.0104756 0)
(1.02721 0.0255959 0)
(1.02131 0.0202038 0)
(1.04132 0.00244564 0)
(1.02415 -0.0085674 0)
(1.02291 -0.0212754 0)
(1.0117 -0.0271568 0)
(1.00535 -0.0305633 0)
(0.993993 -0.0335513 0)
(0.990698 -0.0319207 0)
(0.979876 -0.0349989 0)
(0.976959 -0.0279188 0)
(0.969539 -0.0317909 0)
(0.967243 -0.0208353 0)
(0.964073 -0.0231642 0)
(1.00269 -0.00482955 0)
(0.997804 0.0038408 0)
(0.99845 -0.013621 0)
(0.973058 -0.0108816 0)
(0.996562 0.0117538 0)
(0.981294 0.0101427 0)
(1.02112 0.0251105 0)
(1.02069 0.0198626 0)
(1.03738 0.0026461 0)
(1.02349 -0.00856338 0)
(1.0213 -0.020661 0)
(1.01089 -0.0270515 0)
(1.00465 -0.0298379 0)
(0.994133 -0.0332823 0)
(0.990885 -0.0313546 0)
(0.980809 -0.0344176 0)
(0.977395 -0.0275635 0)
(0.970309 -0.0310208 0)
(0.967004 -0.0206931 0)
(0.963695 -0.0225736 0)
(1.00195 -0.00480682 0)
(0.998984 0.00381109 0)
(0.998505 -0.0133768 0)
(0.974892 -0.0108646 0)
(0.993338 0.0116716 0)
(0.983714 0.00982473 0)
(1.016 0.0246151 0)
(1.02061 0.0194956 0)
(1.03357 0.00284735 0)
(1.02302 -0.00859068 0)
(1.01973 -0.0200407 0)
(1.0101 -0.0269261 0)
(1.00395 -0.0291693 0)
(0.994132 -0.0329579 0)
(0.990844 -0.0308585 0)
(0.981519 -0.0337714 0)
(0.977727 -0.0272232 0)
(0.971071 -0.0302 0)
(0.9671 -0.0204891 0)
(0.96371 -0.0219054 0)
(1.00151 -0.00478512 0)
(0.999792 0.00377309 0)
(0.998479 -0.0131269 0)
(0.97672 -0.0108215 0)
(0.991541 0.0115648 0)
(0.987326 0.00953513 0)
(1.01174 0.0241355 0)
(1.02058 0.0191118 0)
(1.03015 0.00304996 0)
(1.0226 -0.00864753 0)
(1.01834 -0.0194179 0)
(1.00934 -0.0267715 0)
(1.00337 -0.0285668 0)
(0.994037 -0.0325673 0)
(0.990696 -0.0304316 0)
(0.982001 -0.0330777 0)
(0.977998 -0.0268841 0)
(0.971718 -0.0293626 0)
(0.967475 -0.020247 0)
(0.963986 -0.0211945 0)
(1.00131 -0.00476344 0)
(1.00021 0.00372792 0)
(0.998549 -0.012873 0)
(0.978294 -0.0107606 0)
(0.990438 0.0114284 0)
(0.990647 0.00927872 0)
(1.00814 0.0236823 0)
(1.02023 0.0187156 0)
(1.02728 0.00324873 0)
(1.02214 -0.0087276 0)
(1.0172 -0.0188004 0)
(1.00861 -0.0265765 0)
(1.00298 -0.0280385 0)
(0.993883 -0.0321007 0)
(0.990544 -0.0300603 0)
(0.98229 -0.0323642 0)
(0.978259 -0.0265359 0)
(0.972222 -0.0285216 0)
(0.968051 -0.0199828 0)
(0.964429 -0.0204749 0)
(1.00129 -0.0047403 0)
(1.00028 0.00367502 0)
(0.998763 -0.0126156 0)
(0.979527 -0.0106847 0)
(0.989533 0.0112683 0)
(0.992882 0.00905366 0)
(1.00508 0.0232524 0)
(1.01949 0.0183067 0)
(1.02503 0.00343195 0)
(1.02162 -0.00881974 0)
(1.01629 -0.0182014 0)
(1.00795 -0.0263271 0)
(1.00276 -0.0275829 0)
(0.993697 -0.0315675 0)
(0.99045 -0.0297156 0)
(0.982449 -0.0316454 0)
(0.978538 -0.0261836 0)
(0.972618 -0.0276827 0)
(0.968737 -0.0197015 0)
(0.964986 -0.0197674 0)
(1.00137 -0.0047142 0)
(1.0001 0.00361319 0)
(0.999084 -0.0123548 0)
(0.980437 -0.0105943 0)
(0.988657 0.0110952 0)
(0.993954 0.00885391 0)
(1.00257 0.0228346 0)
(1.01848 0.0178833 0)
(1.02337 0.0035922 0)
(1.02104 -0.00891081 0)
(1.0156 -0.0176369 0)
(1.00736 -0.0260127 0)
(1.00268 -0.0271885 0)
(0.993506 -0.0309798 0)
(0.990429 -0.0293841 0)
(0.982543 -0.0309159 0)
(0.978836 -0.0258266 0)
(0.972965 -0.0268611 0)
(0.969454 -0.0193999 0)
(0.965624 -0.0190808 0)
(1.0015 -0.00468384 0)
(0.999784 0.00354137 0)
(0.999441 -0.0120897 0)
(0.981097 -0.0104896 0)
(0.987852 0.0109188 0)
(0.994212 0.00867133 0)
(1.00064 0.0224174 0)
(1.01739 0.0174428 0)
(1.02223 0.00372818 0)
(1.02041 -0.00898661 0)
(1.01508 -0.0171139 0)
(1.00686 -0.0256373 0)
(1.00266 -0.026845 0)
(0.993338 -0.0303383 0)
(0.990461 -0.0290614 0)
(0.98263 -0.0301737 0)
(0.979136 -0.0254437 0)
(0.973312 -0.0260842 0)
(0.970149 -0.0190948 0)
(0.966316 -0.0184113 0)
(1.00163 -0.00464832 0)
(0.999418 0.00345883 0)
(0.999772 -0.0118186 0)
(0.981596 -0.0103719 0)
(0.9872 0.0107448 0)
(0.994091 0.00849926 0)
(0.999276 0.0219928 0)
(1.01636 0.0169854 0)
(1.02147 0.00383155 0)
(1.01975 -0.00903135 0)
(1.01466 -0.0166328 0)
(1.00647 -0.0251965 0)
(1.00266 -0.0265529 0)
(0.993219 -0.0296514 0)
(0.990513 -0.0287266 0)
(0.982749 -0.0294491 0)
(0.979417 -0.0250016 0)
(0.973681 -0.025323 0)
(0.970804 -0.0188323 0)
(0.967034 -0.0177851 0)
(1.00174 -0.00460701 0)
(0.999059 0.00336515 0)
(1.00004 -0.0115399 0)
(0.982023 -0.0102436 0)
(0.986728 0.010575 0)
(0.993905 0.00833084 0)
(0.998397 0.0215581 0)
(1.01544 0.016521 0)
(1.02098 0.0038948 0)
(1.0191 -0.0090339 0)
(1.0143 -0.0162129 0)
(1.00618 -0.0246738 0)
(1.00263 -0.0262948 0)
(0.993168 -0.0289416 0)
(0.990557 -0.0283426 0)
(0.982922 -0.0287839 0)
(0.97968 -0.0245473 0)
(0.974064 -0.0244963 0)
(0.971416 -0.0185591 0)
(0.967753 -0.0172265 0)
(1.00181 -0.00455958 0)
(0.998743 0.00326038 0)
(1.00021 -0.011253 0)
(0.982449 -0.0101075 0)
(0.986397 0.0104099 0)
(0.993792 0.00816348 0)
(0.997881 0.0211053 0)
(1.01462 0.0160609 0)
(1.02066 0.00392106 0)
(1.01845 -0.00897156 0)
(1.01398 -0.0158752 0)
(1.006 -0.0240926 0)
(1.00254 -0.0260357 0)
(0.993198 -0.0282331 0)
(0.990575 -0.027889 0)
(0.983146 -0.028107 0)
(0.97994 -0.0241742 0)
(0.974461 -0.0236942 0)
(0.971981 -0.0181968 0)
(0.968443 -0.0166655 0)
(1.00185 -0.00450609 0)
(0.998489 0.00314525 0)
(1.00028 -0.0109581 0)
(0.982917 -0.00996351 0)
(0.986145 0.0102442 0)
(0.993759 0.00800461 0)
(0.997612 0.0206291 0)
(1.01387 0.015602 0)
(1.02041 0.00389622 0)
(1.01785 -0.00883539 0)
(1.01369 -0.0155833 0)
(1.0059 -0.0234833 0)
(1.00241 -0.0257849 0)
(0.993307 -0.0275257 0)
(0.99057 -0.0274285 0)
(0.983407 -0.0273514 0)
(0.98019 -0.0237506 0)
(0.974881 -0.0230107 0)
(0.972526 -0.0178742 0)
(0.969092 -0.0161128 0)
(1.00185 -0.00444645 0)
(0.998311 0.0030201 0)
(1.00025 -0.0106558 0)
(0.983444 -0.00981098 0)
(0.985925 0.0100762 0)
(0.993762 0.00784212 0)
(0.997499 0.0201452 0)
(1.01315 0.0151494 0)
(1.02021 0.00382413 0)
(1.01731 -0.00867591 0)
(1.01339 -0.0153113 0)
(1.00588 -0.0228231 0)
(1.00224 -0.0255208 0)
(0.993483 -0.0268461 0)
(0.990552 -0.0269221 0)
(0.983713 -0.0266757 0)
(0.980426 -0.0232119 0)
(0.975293 -0.0222669 0)
(0.973056 -0.0175804 0)
(0.96972 -0.0156457 0)
(1.00183 -0.00438062 0)
(0.998214 0.00288472 0)
(1.00011 -0.0103436 0)
(0.984022 -0.00966076 0)
(0.985724 0.00992574 0)
(0.993762 0.00765775 0)
(0.997488 0.0196518 0)
(1.01247 0.0147098 0)
(1.01999 0.00373572 0)
(1.01683 -0.00847027 0)
(1.01309 -0.0150956 0)
(1.0059 -0.0221685 0)
(1.00206 -0.0251409 0)
(0.993713 -0.0262562 0)
(0.990519 -0.0262714 0)
(0.984053 -0.0260392 0)
(0.980682 -0.0227144 0)
(0.975722 -0.0215531 0)
(0.97356 -0.0172204 0)
(0.970332 -0.0151767 0)
(1.00178 -0.00431008 0)
(0.9982 0.00274208 0)
(0.999873 -0.0100239 0)
(0.984625 -0.00950469 0)
(0.985549 0.00976893 0)
(0.993744 0.00750292 0)
(0.997544 0.0191009 0)
(1.01181 0.0143043 0)
(1.01975 0.00356285 0)
(1.01642 -0.00815703 0)
(1.01279 -0.0149331 0)
(1.00595 -0.0214781 0)
(1.00187 -0.0248295 0)
(0.993975 -0.0255483 0)
(0.990497 -0.0257347 0)
(0.984407 -0.025293 0)
(0.980928 -0.0221659 0)
(0.976154 -0.0208282 0)
(0.974029 -0.016907 0)
(0.970915 -0.0147294 0)
(1.00171 -0.00423427 0)
(0.998266 0.00259137 0)
(0.999552 -0.00969688 0)
(0.985227 -0.00933455 0)
(0.985421 0.00959461 0)
(0.99372 0.00735377 0)
(0.99764 0.0185263 0)
(1.01121 0.0139261 0)
(1.01944 0.00331676 0)
(1.01607 -0.00781959 0)
(1.01247 -0.0148202 0)
(1.006 -0.0206873 0)
(1.0017 -0.024535 0)
(0.994251 -0.024849 0)
(0.990475 -0.0251521 0)
(0.984805 -0.024602 0)
(0.98119 -0.021727 0)
(0.976594 -0.0199336 0)
(0.974474 -0.0164912 0)
(0.971532 -0.014358 0)
(1.00163 -0.00415113 0)
(0.9984 0.00242728 0)
(0.999173 -0.00935404 0)
(0.985801 -0.00919116 0)
(0.985354 0.00947097 0)
(0.993716 0.00714606 0)
(0.997759 0.0179734 0)
(1.01065 0.0135386 0)
(1.01907 0.00310593 0)
(1.01575 -0.0074965 0)
(1.01213 -0.0146402 0)
(1.00604 -0.0201415 0)
(1.00152 -0.0238275 0)
(0.994549 -0.0245087 0)
(0.990464 -0.0243084 0)
(0.985187 -0.0238376 0)
(0.981507 -0.0213465 0)
(0.977138 -0.0194116 0)
(0.974918 -0.0159719 0)
(0.972159 -0.0138383 0)
(1.00154 -0.00407303 0)
(0.998581 0.00227778 0)
(0.99877 -0.00902771 0)
(0.986327 -0.00899832 0)
(0.985357 0.00926591 0)
(0.993754 0.00705804 0)
(0.99789 0.0172754 0)
(1.01016 0.0132283 0)
(1.01864 0.00280891 0)
(1.01544 -0.00716713 0)
(1.01177 -0.0143855 0)
(1.00608 -0.0196145 0)
(1.00135 -0.0233286 0)
(0.994831 -0.0238153 0)
(0.99052 -0.0237298 0)
(0.985561 -0.0231909 0)
(0.981756 -0.0205606 0)
(0.977655 -0.0188105 0)
(0.975368 -0.0156117 0)
(0.972751 -0.0133848 0)
(1.00145 -0.00398178 0)
(0.998782 0.00210237 0)
(0.998379 -0.00865066 0)
(0.986792 -0.00885362 0)
(0.985433 0.00912608 0)
(0.993847 0.00687687 0)
(0.998032 0.016672 0)
(1.00972 0.012823 0)
(1.01814 0.00257841 0)
(1.01512 -0.00694159 0)
(1.01139 -0.0140558 0)
(1.00606 -0.0191354 0)
(1.00122 -0.0225796 0)
(0.995113 -0.0234415 0)
(0.99054 -0.0228682 0)
(0.986025 -0.0226723 0)
(0.982141 -0.0199117 0)
(0.97822 -0.0181646 0)
(0.975875 -0.0151408 0)
(0.973456 -0.0130218 0)
(1.00136 -0.00388411 0)
(0.998978 0.00191595 0)
(0.998021 -0.00828377 0)
(0.987202 -0.00870952 0)
(0.98557 0.0089882 0)
(0.993996 0.00670534 0)
(0.998178 0.0160225 0)
(1.00932 0.0124967 0)
(1.01761 0.00227945 0)
(1.01478 -0.00650328 0)
(1.01099 -0.013947 0)
(1.00603 -0.0185495 0)
(1.00104 -0.0218195 0)
(0.995379 -0.0229869 0)
(0.99067 -0.0221442 0)
(0.986406 -0.0217907 0)
(0.982481 -0.0195168 0)
(0.978777 -0.0175422 0)
(0.976354 -0.0143918 0)
(0.974049 -0.0124249 0)
(1.00128 -0.00380932 0)
(0.999147 0.00177135 0)
(0.997718 -0.00796075 0)
(0.98757 -0.00845783 0)
(0.985757 0.00866832 0)
(0.994188 0.00677588 0)
(0.998325 0.0150792 0)
(1.00895 0.0123724 0)
(1.01705 0.00179188 0)
(1.0144 -0.00604937 0)
(1.01058 -0.0137779 0)
(1.00594 -0.0178729 0)
(1.00092 -0.0216227 0)
(0.995609 -0.0217821 0)
(0.990796 -0.021938 0)
(0.986802 -0.0207896 0)
(0.982871 -0.0188336 0)
(0.979415 -0.0166981 0)
(0.976896 -0.0141951 0)
(0.97469 -0.0121999 0)
(1.00121 -0.00369661 0)
(0.99928 0.00155928 0)
(0.997471 -0.00750123 0)
(0.987922 -0.00836524 0)
(0.985976 0.00857793 0)
(0.994409 0.00654994 0)
(0.998463 0.0145221 0)
(1.00861 0.0118717 0)
(1.01644 0.00168115 0)
(1.014 -0.00613176 0)
(1.01014 -0.0131142 0)
(1.0058 -0.0176907 0)
(1.00081 -0.0205395 0)
(0.995824 -0.0216191 0)
(0.990968 -0.0208173 0)
(0.987298 -0.0203258 0)
(0.983359 -0.0180817 0)
(0.980052 -0.0161438 0)
(0.977502 -0.0137577 0)
(0.975463 -0.0118597 0)
(1.00115 -0.00358706 0)
(0.99936 0.00135947 0)
(0.997285 -0.00711967 0)
(0.988261 -0.00819457 0)
(0.986223 0.00835054 0)
(0.994644 0.00645583 0)
(0.998592 0.0138024 0)
(1.00827 0.0115676 0)
(1.01583 0.00142288 0)
(1.01357 -0.00587059 0)
(1.0097 -0.0128176 0)
(1.00565 -0.0171614 0)
(1.00065 -0.0197206 0)
(0.996033 -0.0211599 0)
(0.991171 -0.0199555 0)
(0.987651 -0.0195723 0)
(0.98382 -0.0174614 0)
(0.980636 -0.015568 0)
(0.978035 -0.012983 0)
(0.976052 -0.0112494 0)
(1.00111 -0.00351441 0)
(0.999393 0.00121062 0)
(0.997144 -0.00680482 0)
(0.988598 -0.00789587 0)
(0.986507 0.00791135 0)
(0.994863 0.00666704 0)
(0.998724 0.0126722 0)
(1.00792 0.0115629 0)
(1.01522 0.000883464 0)
(1.0131 -0.00535134 0)
(1.00926 -0.0127037 0)
(1.00544 -0.0164129 0)
(1.00056 -0.0195065 0)
(0.996207 -0.0198162 0)
(0.991431 -0.0198631 0)
(0.988094 -0.0182639 0)
(0.984309 -0.0168429 0)
(0.981298 -0.0148862 0)
(0.978684 -0.0128976 0)
(0.976754 -0.0110817 0)
(1.00107 -0.00337568 0)
(0.999395 0.000974023 0)
(0.997027 -0.00631275 0)
(0.988955 -0.00778542 0)
(0.986809 0.00777767 0)
(0.995069 0.00642028 0)
(0.998842 0.0122157 0)
(1.00757 0.0109108 0)
(1.01459 0.000999269 0)
(1.01262 -0.00572045 0)
(1.0088 -0.011916 0)
(1.00522 -0.0162956 0)
(1.00047 -0.0182729 0)
(0.996347 -0.0195854 0)
(0.991709 -0.0186623 0)
(0.988594 -0.018056 0)
(0.984852 -0.0161964 0)
(0.981973 -0.0144078 0)
(0.979386 -0.0123166 0)
(0.977569 -0.0106144 0)
(1.00105 -0.00325345 0)
(0.999365 0.000751979 0)
(0.996934 -0.00590791 0)
(0.98932 -0.00760153 0)
(0.987136 0.00750377 0)
(0.995265 0.00636404 0)
(0.998949 0.0114697 0)
(1.00722 0.0105658 0)
(1.01395 0.000850613 0)
(1.01213 -0.0056693 0)
(1.00835 -0.0113824 0)
(1.00502 -0.0159083 0)
(1.00036 -0.017572 0)
(0.996527 -0.0190368 0)
(0.991967 -0.0176468 0)
(0.988934 -0.0174913 0)
(0.985393 -0.0155111 0)
(0.982591 -0.0138122 0)
(0.980009 -0.0115079 0)
(0.97816 -0.0099793 0)
(1.00104 -0.0031795 0)
(0.999316 0.000599652 0)
(0.996853 -0.00562902 0)
(0.989678 -0.00720573 0)
(0.987509 0.0068938 0)
(0.995422 0.0066936 0)
(0.999076 0.0102804 0)
(1.00685 0.0105848 0)
(1.01333 0.0003283 0)
(1.01163 -0.00506379 0)
(1.0079 -0.0114721 0)
(1.00474 -0.0149701 0)
(1.0003 -0.0175133 0)
(0.996657 -0.0175482 0)
(0.99224 -0.0176638 0)
(0.989336 -0.0159933 0)
(0.985912 -0.0149549 0)
(0.983242 -0.0130444 0)
(0.980687 -0.0115195 0)
(0.978848 -0.00986878 0)
(1.00102 -0.00300978 0)
(0.999279 0.000349481 0)
(0.996762 -0.00513746 0)
(0.990053 -0.00706695 0)
(0.987894 0.0067339 0)
(0.995585 0.00641292 0)
(0.999182 0.0099326 0)
(1.0065 0.00980318 0)
(1.01268 0.000565677 0)
(1.01111 -0.00542391 0)
(1.00745 -0.0106877 0)
(1.00451 -0.0147693 0)
(1.00028 -0.0163644 0)
(0.996808 -0.0174454 0)
(0.992609 -0.0165007 0)
(0.98987 -0.0156888 0)
(0.986519 -0.0141953 0)
(0.98395 -0.0126187 0)
(0.981433 -0.0108707 0)
(0.979695 -0.0092651 0)
(1.00102 -0.00287895 0)
(0.99924 0.000108583 0)
(0.996679 -0.00473271 0)
(0.990429 -0.00682703 0)
(0.988294 0.00640163 0)
(0.995744 0.0063865 0)
(0.999292 0.0092398 0)
(1.00615 0.00934992 0)
(1.01203 0.000524778 0)
(1.01063 -0.00542476 0)
(1.00701 -0.0100718 0)
(1.00427 -0.0143767 0)
(1.00017 -0.0156889 0)
(0.996962 -0.0169447 0)
(0.992885 -0.015564 0)
(0.990166 -0.0151944 0)
(0.987005 -0.0133054 0)
(0.98451 -0.0120136 0)
(0.982083 -0.0101089 0)
(0.980229 -0.00853316 0)
(1.00101 -0.00280824 0)
(0.999204 -1.63399e-05 0)
(0.996606 -0.00454224 0)
(0.990778 -0.00629171 0)
(0.988739 0.00564894 0)
(0.995881 0.00672606 0)
(0.999412 0.00818836 0)
(1.0058 0.00929249 0)
(1.01142 3.43763e-05 0)
(1.01013 -0.00481283 0)
(1.0066 -0.0101795 0)
(1.00399 -0.0132094 0)
(1.00017 -0.0156253 0)
(0.997098 -0.0154192 0)
(0.993217 -0.0157627 0)
(0.990647 -0.0139376 0)
(0.987558 -0.0129934 0)
(0.985099 -0.0109605 0)
(0.982788 -0.0101243 0)
(0.98096 -0.00854038 0)
(1.00097 -0.00259305 0)
(0.999204 -0.000332562 0)
(0.996518 -0.00403463 0)
(0.991152 -0.00617945 0)
(0.989167 0.00556074 0)
(0.996031 0.0063516 0)
(0.999522 0.00792084 0)
(1.00547 0.00845023 0)
(1.01079 0.000332041 0)
(1.00965 -0.00507956 0)
(1.00621 -0.00930388 0)
(1.00375 -0.0129899 0)
(1.00014 -0.0144552 0)
(0.997227 -0.0153493 0)
(0.993573 -0.0147055 0)
(0.991154 -0.0137753 0)
(0.988243 -0.0126176 0)
(0.985805 -0.0107217 0)
(0.983414 -0.00924689 0)
(0.981712 -0.00766071 0)
(1.00094 -0.00248988 0)
(0.999219 -0.000493929 0)
(0.996437 -0.00376814 0)
(0.991518 -0.00574765 0)
(0.989614 0.00506696 0)
(0.996181 0.00634395 0)
(0.999612 0.007424 0)
(1.00518 0.00780364 0)
(1.01016 0.000487044 0)
(1.0092 -0.00517729 0)
(1.00579 -0.00868504 0)
(1.00353 -0.0125104 0)
(1.00008 -0.0136981 0)
(0.997389 -0.0147492 0)
(0.993907 -0.0138938 0)
(0.991502 -0.013758 0)
(0.988791 -0.0118701 0)
(0.986518 -0.0104079 0)
(0.984266 -0.00841203 0)
(0.98228 -0.00672584 0)
(1.00092 -0.00238151 0)
(0.999217 -0.000644794 0)
(0.996397 -0.00356996 0)
(0.991841 -0.00524548 0)
(0.990087 0.00448512 0)
(0.996322 0.00644005 0)
(0.999709 0.00665403 0)
(1.00488 0.00756745 0)
(1.00957 0.000236036 0)
(1.00874 -0.00478373 0)
(1.00545 -0.00851195 0)
(1.00327 -0.0115347 0)
(1.00009 -0.0133396 0)
(0.997518 -0.0136899 0)
(0.994136 -0.0137522 0)
(0.992025 -0.0126958 0)
(0.989512 -0.011534 0)
(0.987212 -0.00979451 0)
(0.985033 -0.00825292 0)
(0.982933 -0.00664228 0)
(1.00089 -0.00216171 0)
(0.999249 -0.000959403 0)
(0.996348 -0.0031668 0)
(0.99218 -0.00503069 0)
(0.990551 0.00429488 0)
(0.996443 0.00612686 0)
(0.999818 0.00632434 0)
(1.00461 0.0069656 0)
(1.00899 0.000278645 0)
(1.00831 -0.00465374 0)
(1.0051 -0.00800113 0)
(1.00305 -0.0110157 0)
(1.00006 -0.0125179 0)
(0.997633 -0.0132535 0)
(0.994538 -0.0129364 0)
(0.992441 -0.0119282 0)
(0.990045 -0.0112472 0)
(0.987999 -0.00914956 0)
(0.985872 -0.00783814 0)
(0.983576 -0.00660042 0)
(1.00085 -0.002094 0)
(0.999288 -0.00104561 0)
(0.996323 -0.00305091 0)
(0.992509 -0.00446308 0)
(0.991008 0.00375616 0)
(0.996587 0.00611965 0)
(0.9999 0.00585422 0)
(1.00435 0.00644506 0)
(1.00843 0.000317115 0)
(1.00789 -0.00449034 0)
(1.00479 -0.00758769 0)
(1.00283 -0.0103009 0)
(1.00002 -0.0119819 0)
(0.997793 -0.0125097 0)
(0.994844 -0.0122675 0)
(0.992851 -0.0114314 0)
(0.990797 -0.0104137 0)
(0.988775 -0.00848124 0)
(0.986447 -0.00782488 0)
(0.984132 -0.00669672 0)
(1.00081 -0.0019087 0)
(0.999337 -0.00128008 0)
(0.99631 -0.00276938 0)
(0.992832 -0.00416398 0)
(0.991472 0.00354015 0)
(0.996716 0.00586978 0)
(0.999974 0.00543274 0)
(1.00413 0.00600207 0)
(1.00789 0.000343664 0)
(1.00749 -0.00434906 0)
(1.00449 -0.00711936 0)
(1.00262 -0.00984513 0)
(0.999998 -0.0113039 0)
(0.99794 -0.0118992 0)
(0.995207 -0.0115784 0)
(0.993363 -0.0105387 0)
(0.991408 -0.00979232 0)
(0.989308 -0.00852541 0)
(0.987041 -0.00776746 0)
(0.984828 -0.00642294 0)
(1.00076 -0.00178277 0)
(0.999394 -0.00143019 0)
(0.996314 -0.00262581 0)
(0.993151 -0.00369366 0)
(0.991926 0.00317558 0)
(0.99685 0.0056733 0)
(1.00005 0.00516996 0)
(1.0039 0.00546039 0)
(1.00737 0.000369 0)
(1.00711 -0.00413435 0)
(1.00421 -0.00671081 0)
(1.00242 -0.00932184 0)
(0.999984 -0.0106395 0)
(0.998117 -0.0111969 0)
(0.99561 -0.01085 0)
(0.993771 -0.0100318 0)
(0.99189 -0.00955093 0)
(0.989944 -0.00825304 0)
(0.987786 -0.00722086 0)
(0.985502 -0.00606261 0)
(1.00072 -0.00163832 0)
(0.999454 -0.001603 0)
(0.996342 -0.00242195 0)
(0.993455 -0.00335506 0)
(0.992382 0.00296148 0)
(0.997 0.00545569 0)
(1.0001 0.00482375 0)
(1.0037 0.00493812 0)
(1.00688 0.000474315 0)
(1.00674 -0.00393082 0)
(1.00394 -0.00635243 0)
(1.00224 -0.00878511 0)
(0.999991 -0.00992862 0)
(0.998288 -0.0105474 0)
(0.995936 -0.0103326 0)
(0.994167 -0.00952556 0)
(0.992468 -0.00899428 0)
(0.990637 -0.00772177 0)
(0.988446 -0.00687074 0)
(0.986099 -0.00591856 0)
(1.00068 -0.00150202 0)
(0.999522 -0.00173687 0)
(0.996381 -0.00228831 0)
(0.993764 -0.00296536 0)
(0.99283 0.00272266 0)
(0.997134 0.00519088 0)
(1.00016 0.00457773 0)
(1.00353 0.0045122 0)
(1.00642 0.000459538 0)
(1.00637 -0.00380819 0)
(1.00369 -0.00595797 0)
(1.00209 -0.00818887 0)
(0.999993 -0.00930258 0)
(0.998424 -0.00998073 0)
(0.996325 -0.00978243 0)
(0.994616 -0.00890746 0)
(0.992987 -0.00844226 0)
(0.991227 -0.00737565 0)
(0.989063 -0.00664908 0)
(0.986709 -0.00568926 0)
(1.00064 -0.00137148 0)
(0.999586 -0.00186613 0)
(0.996449 -0.00214572 0)
(0.994054 -0.00261863 0)
(0.993268 0.00248808 0)
(0.997301 0.00499497 0)
(1.0002 0.00432654 0)
(1.00335 0.00407701 0)
(1.00597 0.000438722 0)
(1.00603 -0.00356674 0)
(1.00349 -0.00555111 0)
(1.00193 -0.00768518 0)
(0.999988 -0.00875852 0)
(0.998586 -0.00932552 0)
(0.996687 -0.00921085 0)
(0.995032 -0.00834434 0)
(0.993499 -0.0079818 0)
(0.99183 -0.00703844 0)
(0.989713 -0.00634496 0)
(0.987341 -0.00543103 0)
(1.00059 -0.0012385 0)
(0.999661 -0.00198578 0)
(0.996524 -0.00202569 0)
(0.99435 -0.00229033 0)
(0.993704 0.00233349 0)
(0.997449 0.00471801 0)
(1.00024 0.00408073 0)
(1.0032 0.00369796 0)
(1.00557 0.000444294 0)
(1.00571 -0.00334757 0)
(1.00327 -0.00523287 0)
(1.0018 -0.00721596 0)
(1.00003 -0.00814591 0)
(0.998735 -0.00866716 0)
(0.997075 -0.00870866 0)
(0.995472 -0.0078714 0)
(0.993964 -0.0075344 0)
(0.992391 -0.0066446 0)
(0.99033 -0.00602312 0)
(0.987939 -0.00520199 0)
(1.00056 -0.00111602 0)
(0.99973 -0.00206741 0)
(0.99663 -0.00195175 0)
(0.994634 -0.00195044 0)
(0.994119 0.00212353 0)
(0.997628 0.00450202 0)
(1.00027 0.0038885 0)
(1.00305 0.00336848 0)
(1.00518 0.000420537 0)
(1.00539 -0.00318395 0)
(1.00311 -0.00492164 0)
(1.00169 -0.00670304 0)
(1.00006 -0.00760267 0)
(0.99887 -0.00804819 0)
(0.997401 -0.00824545 0)
(0.995892 -0.007402 0)
(0.994475 -0.00701823 0)
(0.992976 -0.00623021 0)
(0.990937 -0.00569534 0)
(0.988549 -0.00495687 0)
(1.00051 -0.000998226 0)
(0.999806 -0.00213158 0)
(0.996741 -0.0018631 0)
(0.994923 -0.00167354 0)
(0.994534 0.00200321 0)
(0.997796 0.00427552 0)
(1.0003 0.00365435 0)
(1.00292 0.00305662 0)
(1.00483 0.000407768 0)
(1.0051 -0.00296851 0)
(1.00294 -0.00455672 0)
(1.0016 -0.00622577 0)
(1.00012 -0.00710952 0)
(0.998996 -0.00743198 0)
(0.997767 -0.00771655 0)
(0.996379 -0.00690216 0)
(0.994941 -0.0065433 0)
(0.993483 -0.00587602 0)
(0.991502 -0.00538031 0)
(0.989126 -0.00474198 0)
(1.00048 -0.000897996 0)
(0.999875 -0.0021615 0)
(0.996878 -0.0018387 0)
(0.995203 -0.00136038 0)
(0.994924 0.0018081 0)
(0.997986 0.00411306 0)
(1.00033 0.00344945 0)
(1.0028 0.00276671 0)
(1.00449 0.000380781 0)
(1.00482 -0.00276822 0)
(1.00281 -0.0042418 0)
(1.0015 -0.00575004 0)
(1.00019 -0.00666202 0)
(0.999143 -0.00682426 0)
(0.998073 -0.00718609 0)
(0.996802 -0.00653762 0)
(0.995417 -0.00615576 0)
(0.994029 -0.00551593 0)
(0.992068 -0.00505304 0)
(0.98971 -0.00450447 0)
(1.00044 -0.000783229 0)
(0.999948 -0.00220269 0)
(0.997016 -0.00176437 0)
(0.995486 -0.00118171 0)
(0.995326 0.0017474 0)
(0.998164 0.00380329 0)
(1.00034 0.00330471 0)
(1.00268 0.00257025 0)
(1.00419 0.000392571 0)
(1.00456 -0.00256481 0)
(1.00269 -0.003952 0)
(1.00143 -0.00529451 0)
(1.00029 -0.00620826 0)
(0.999303 -0.00627135 0)
(0.998381 -0.00665509 0)
(0.997275 -0.00612364 0)
(0.995914 -0.00569642 0)
(0.994541 -0.00515365 0)
(0.9926 -0.00470619 0)
(0.990263 -0.00424172 0)
(1.0004 -0.000690114 0)
(1.00001 -0.00218174 0)
(0.997177 -0.00176968 0)
(0.995773 -0.000951743 0)
(0.995687 0.00161201 0)
(0.998361 0.00354621 0)
(1.0004 0.0032139 0)
(1.00258 0.00240123 0)
(1.0039 0.000385856 0)
(1.00432 -0.00236834 0)
(1.00259 -0.00366944 0)
(1.00135 -0.00478647 0)
(1.00037 -0.00577202 0)
(0.999453 -0.00575326 0)
(0.998627 -0.00609677 0)
(0.997674 -0.0057157 0)
(0.99637 -0.00530836 0)
(0.995046 -0.00482781 0)
(0.993123 -0.00436655 0)
(0.990798 -0.00397769 0)
(1.00036 -0.000610281 0)
(1.00008 -0.00213159 0)
(0.997339 -0.00176539 0)
(0.996052 -0.000779664 0)
(0.996054 0.00152636 0)
(0.99857 0.00341048 0)
(1.00044 0.00303205 0)
(1.00248 0.00217446 0)
(1.00365 0.000396303 0)
(1.00409 -0.00214902 0)
(1.00251 -0.00340312 0)
(1.00128 -0.004337 0)
(1.00045 -0.00534044 0)
(0.999631 -0.00530876 0)
(0.998881 -0.00556285 0)
(0.998085 -0.0053085 0)
(0.996838 -0.00491826 0)
(0.995548 -0.00449734 0)
(0.993633 -0.00405238 0)
(0.991307 -0.00372054 0)
(1.00033 -0.0005364 0)
(1.00014 -0.00203693 0)
(0.997507 -0.0017774 0)
(0.996337 -0.000581559 0)
(0.996408 0.00148577 0)
(0.998771 0.00319345 0)
(1.00049 0.00283295 0)
(1.0024 0.00198493 0)
(1.00341 0.000397464 0)
(1.00387 -0.00194725 0)
(1.00246 -0.00318737 0)
(1.00123 -0.00389561 0)
(1.00053 -0.00491065 0)
(0.99983 -0.00491167 0)
(0.999127 -0.00505648 0)