/*--------------------------------*- C++ -*----------------------------------*\
| =========                 |                                                 |
| \\      /  F ield         | OpenFOAM: The Open Source CFD Toolbox           |
|  \\    /   O peration     | Version:  v2012                                 |
|   \\  /    A nd           | Website:  www.openfoam.com                      |
|    \\/     M anipulation  |                                                 |
\*---------------------------------------------------------------------------*/
FoamFile
{
    version     2.0;
    format      ascii;
    class       surfaceScalarField;
    location    "4.8";
    object      phi;
}
// * * * * * * * * * * * * * * * * * * * * * * * * * * * * * * * * * * * * * //

dimensions      [0 3 -1 0 0 0 0];
oriented        oriented;


internalField   nonuniform List<scalar> 
13830
(
9.66966e-07
-2.26621e-06
1.07915e-06
7.88938e-07
1.04241e-06
1.08737e-06
9.11442e-07
-3.07226e-09
1.01048e-06
-1.91123e-06
9.92842e-07
-4.06481e-07
9.72114e-07
3.47225e-07
9.59414e-07
1.23514e-06
9.37897e-07
4.29883e-07
9.73516e-07
2.21685e-07
1.00613e-06
-5.79747e-07
1.008e-06
-5.20587e-07
1.02079e-06
-4.85528e-07
1.0089e-06
-2.69833e-07
1.00261e-06
-1.22598e-07
9.88849e-07
-8.04882e-09
9.76376e-07
5.93446e-08
9.66538e-07
9.76098e-08
9.55401e-07
9.76231e-08
1.16868e-07
9.39823e-07
1.01237e-06
-2.30605e-06
1.12741e-06
6.73894e-07
1.09008e-06
1.1247e-06
9.66466e-07
1.20545e-07
1.06617e-06
-2.01093e-06
1.03576e-06
-3.76074e-07
1.0086e-06
3.74387e-07
1.01692e-06
1.22682e-06
9.82993e-07
4.6381e-07
1.02598e-06
1.78697e-07
1.05094e-06
-6.04703e-07
1.05167e-06
-5.2132e-07
1.06232e-06
-4.96183e-07
1.05299e-06
-2.60494e-07
1.04295e-06
-1.12561e-07
1.03419e-06
7.07501e-10
1.01265e-06
8.08856e-08
1.0118e-06
9.84629e-08
9.86361e-07
1.23061e-07
1.11931e-07
9.91298e-07
1.05566e-06
-2.35226e-06
1.18131e-06
5.48242e-07
1.14752e-06
1.15849e-06
1.02856e-06
2.395e-07
1.12059e-06
-2.10296e-06
1.09138e-06
-3.46865e-07
1.04843e-06
4.1734e-07
1.081e-06
1.19425e-06
1.03926e-06
5.05553e-07
1.07812e-06
1.39832e-07
1.08826e-06
-6.14836e-07
1.09231e-06
-5.25379e-07
1.09556e-06
-4.99428e-07
1.09743e-06
-2.62362e-07
1.0816e-06
-9.67297e-08
1.08095e-06
1.35706e-09
1.05417e-06
1.07662e-07
1.05393e-06
9.87037e-08
1.0303e-06
1.46687e-07
1.14885e-07
1.02735e-06
1.09515e-06
-2.39963e-06
1.23607e-06
4.07321e-07
1.2093e-06
1.18526e-06
1.09295e-06
3.55852e-07
1.16847e-06
-2.17848e-06
1.1516e-06
-3.3e-07
1.09306e-06
4.75885e-07
1.14066e-06
1.14665e-06
1.10276e-06
5.43448e-07
1.12833e-06
1.14269e-07
1.12125e-06
-6.07756e-07
1.12485e-06
-5.28982e-07
1.12193e-06
-4.96507e-07
1.13151e-06
-2.71943e-07
1.11867e-06
-8.38847e-08
1.12067e-06
-6.4664e-10
1.09935e-06
1.28981e-07
1.09515e-06
1.0291e-07
1.07785e-06
1.6398e-07
1.22732e-07
1.07001e-06
1.13025e-06
-2.44232e-06
1.28646e-06
2.51105e-07
1.26975e-06
1.20197e-06
1.15551e-06
4.70084e-07
1.20537e-06
-2.22834e-06
1.20685e-06
-3.31479e-07
1.14432e-06
5.38415e-07
1.19542e-06
1.09555e-06
1.17068e-06
5.68184e-07
1.17845e-06
1.06504e-07
1.15504e-06
-5.8435e-07
1.15267e-06
-5.26608e-07
1.14576e-06
-4.89596e-07
1.1583e-06
-2.84488e-07
1.15294e-06
-7.85252e-08
1.15687e-06
-4.57699e-09
1.14319e-06
1.42661e-07
1.13808e-06
1.08025e-07
1.12529e-06
1.76767e-07
1.31407e-07
1.11661e-06
1.16208e-06
-2.47556e-06
1.32964e-06
8.35476e-08
1.32514e-06
1.20647e-06
1.21304e-06
5.82184e-07
1.23069e-06
-2.24598e-06
1.25047e-06
-3.51257e-07
1.20242e-06
5.86459e-07
1.25064e-06
1.04734e-06
1.24034e-06
5.78484e-07
1.23051e-06
1.16332e-07
1.19256e-06
-5.46405e-07
1.18099e-06
-5.15039e-07
1.17065e-06
-4.79254e-07
1.18318e-06
-2.97015e-07
1.18456e-06
-7.99089e-08
1.19188e-06
-1.18895e-08
1.18447e-06
1.50063e-07
1.18174e-06
1.10757e-07
1.17237e-06
1.86137e-07
1.38592e-07
1.16519e-06
1.1931e-06
-2.49696e-06
1.36524e-06
-8.85869e-08
1.37369e-06
1.19802e-06
1.26415e-06
6.91725e-07
1.24825e-06
-2.23008e-06
1.28254e-06
-3.8555e-07
1.26497e-06
6.04024e-07
1.31005e-06
1.00226e-06
1.30866e-06
5.79875e-07
1.28435e-06
1.40637e-07
1.23365e-06
-4.95699e-07
1.21281e-06
-4.94197e-07
1.19849e-06
-4.64941e-07
1.20944e-06
-3.07962e-07
1.21499e-06
-8.54629e-08
1.22652e-06
-2.34185e-08
1.22429e-06
1.52292e-07
1.2255e-06
1.09548e-07
1.2197e-06
1.9194e-07
1.43202e-07
1.21509e-06
1.2262e-06
-2.50698e-06
1.39454e-06
-2.56926e-07
1.41488e-06
1.17768e-06
1.30952e-06
7.97085e-07
1.26466e-06
-2.18522e-06
1.30866e-06
-4.2955e-07
1.32787e-06
5.84816e-07
1.37258e-06
9.5755e-07
1.37278e-06
5.79671e-07
1.33794e-06
1.75482e-07
1.27679e-06
-4.34547e-07
1.24876e-06
-4.66171e-07
1.23019e-06
-4.46369e-07
1.23867e-06
-3.16441e-07
1.246e-06
-9.27984e-08
1.26126e-06
-3.86733e-08
1.26378e-06
1.4977e-07
1.26909e-06
1.04241e-07
1.26735e-06
1.93679e-07
1.44872e-07
1.26568e-06
1.26351e-06
-2.50814e-06
1.41937e-06
-4.1278e-07
1.44894e-06
1.14811e-06
1.3511e-06
8.94929e-07
1.28609e-06
-2.12021e-06
1.33566e-06
-4.7912e-07
1.38735e-06
5.33122e-07
1.4338e-06
9.11109e-07
1.43038e-06
5.83083e-07
1.38877e-06
2.17099e-07
1.32062e-06
-3.66404e-07
1.28845e-06
-4.33998e-07
1.26618e-06
-4.24095e-07
1.27175e-06
-3.22014e-07
1.27893e-06
-9.99763e-08
1.29645e-06
-5.62008e-08
1.3033e-06
1.42927e-07
1.31199e-06
9.55519e-08
1.31446e-06
1.91201e-07
1.43714e-07
1.31562e-06
1.30565e-06
-2.50351e-06
1.44135e-06
-5.48481e-07
1.47677e-06
1.11269e-06
1.39104e-06
9.80653e-07
1.31582e-06
-2.04499e-06
1.36783e-06
-5.31127e-07
1.44117e-06
4.5978e-07
1.48891e-06
8.63372e-07
1.47989e-06
5.92099e-07
1.43512e-06
2.6187e-07
1.36448e-06
-2.9576e-07
1.33129e-06
-4.0081e-07
1.30654e-06
-3.99342e-07
1.30924e-06
-3.24718e-07
1.31463e-06
-1.05365e-07
1.33253e-06
-7.41018e-08
1.34275e-06
1.32704e-07
1.35357e-06
8.47349e-08
1.3598e-06
1.84972e-07
1.40232e-07
1.36328e-06
1.35194e-06
-2.49543e-06
1.46206e-06
-6.58598e-07
1.50005e-06
1.0747e-06
1.43105e-06
1.04966e-06
1.35415e-06
-1.96809e-06
1.40586e-06
-5.82844e-07
1.48829e-06
3.77357e-07
1.53485e-06
8.16812e-07
1.52087e-06
6.06077e-07
1.47668e-06
3.06059e-07
1.40836e-06
-2.27438e-07
1.37689e-06
-3.69345e-07
1.35107e-06
-3.73524e-07
1.35132e-06
-3.24962e-07
1.3537e-06
-1.07749e-07
1.37005e-06
-9.04474e-08
1.3822e-06
1.20554e-07
1.3936e-06
7.33359e-08
1.40255e-06
1.76021e-07
1.3523e-07
1.40755e-06
1.40128e-06
-2.48506e-06
1.48342e-06
-7.4073e-07
1.52144e-06
1.03667e-06
1.47229e-06
1.0988e-06
1.39964e-06
-1.89544e-06
1.4482e-06
-6.31407e-07
1.52859e-06
2.96968e-07
1.57107e-06
7.74331e-07
1.55437e-06
6.22786e-07
1.51452e-06
3.45909e-07
1.45275e-06
-1.65668e-07
1.42508e-06
-3.41676e-07
1.39941e-06
-3.47861e-07
1.39775e-06
-3.23293e-07
1.39659e-06
-1.06596e-07
1.40978e-06
-1.03636e-07
1.42222e-06
1.08111e-07
1.43267e-06
6.28887e-08
1.44301e-06
1.65687e-07
1.29646e-07
1.44859e-06
1.45287e-06
-2.47268e-06
1.50781e-06
-7.95671e-07
1.54419e-06
1.00029e-06
1.51563e-06
1.12736e-06
1.45049e-06
-1.83029e-06
1.4931e-06
-6.74016e-07
1.56329e-06
2.26775e-07
1.59971e-06
7.37917e-07
1.58308e-06
6.39411e-07
1.55082e-06
3.78167e-07
1.49847e-06
-1.13316e-07
1.47584e-06
-3.19043e-07
1.45116e-06
-3.23187e-07
1.44803e-06
-3.20163e-07
1.44362e-06
-1.02184e-07
1.45264e-06
-1.12656e-07
1.46401e-06
9.67463e-08
1.4723e-06
5.45909e-08
1.48271e-06
1.55285e-07
1.2433e-07
1.48802e-06
1.50644e-06
-2.45825e-06
1.53763e-06
-8.26861e-07
1.57148e-06
9.66437e-07
1.5618e-06
1.13704e-06
1.50513e-06
-1.77362e-06
1.53976e-06
-7.08647e-07
1.59513e-06
1.71401e-07
1.62491e-06
7.08142e-07
1.61087e-06
6.5345e-07
1.5883e-06
4.00735e-07
1.54646e-06
-7.1479e-08
1.52923e-06
-3.01806e-07
1.50599e-06
-2.99947e-07
1.50164e-06
-3.15819e-07
1.49492e-06
-9.5464e-08
1.49945e-06
-1.1718e-07
1.50893e-06
8.72593e-08
1.51445e-06
4.90734e-08
1.52392e-06
1.45815e-07
1.19866e-07
1.52838e-06
1.56211e-06
-2.44174e-06
1.57456e-06
-8.39319e-07
1.6056e-06
9.35405e-07
1.61138e-06
1.13125e-06
1.56241e-06
-1.72465e-06
1.58835e-06
-7.34581e-07
1.62777e-06
1.31976e-07
1.65162e-06
6.84294e-07
1.64177e-06
6.63301e-07
1.62946e-06
4.13043e-07
1.59759e-06
-3.96078e-08
1.58532e-06
-2.89535e-07
1.56367e-06
-2.78299e-07
1.55815e-06
-3.10301e-07
1.55038e-06
-8.7685e-08
1.55069e-06
-1.17491e-07
1.55813e-06
7.98122e-08
1.56083e-06
4.63723e-08
1.56884e-06
1.37814e-07
1.16502e-07
1.5722e-06
1.62006e-06
-2.42326e-06
1.61918e-06
-8.38436e-07
1.64752e-06
9.07063e-07
1.6648e-06
1.11398e-06
1.62167e-06
-1.68153e-06
1.63944e-06
-7.5235e-07
1.66455e-06
1.06866e-07
1.68405e-06
6.64799e-07
1.67895e-06
6.684e-07
1.67607e-06
4.15918e-07
1.65249e-06
-1.60293e-08
1.64418e-06
-2.81218e-07
1.62413e-06
-2.5825e-07
1.61733e-06
-3.03507e-07
1.60962e-06
-7.99665e-08
1.60641e-06
-1.14287e-07
1.61209e-06
7.413e-08
1.61239e-06
4.60785e-08
1.61882e-06
1.31381e-07
1.14189e-07
1.62113e-06
1.68041e-06
-2.40293e-06
1.671e-06
-8.29027e-07
1.69706e-06
8.81004e-07
1.72219e-06
1.08886e-06
1.68265e-06
-1.64199e-06
1.69352e-06
-7.63222e-07
1.70749e-06
9.28959e-08
1.72457e-06
6.47724e-07
1.72402e-06
6.68942e-07
1.72888e-06
4.11059e-07
1.7115e-06
1.35273e-09
1.70581e-06
-2.75525e-07
1.68734e-06
-2.39782e-07
1.6791e-06
-2.95273e-07
1.6722e-06
-7.3059e-08
1.66628e-06
-1.08373e-07
1.67065e-06
6.97623e-08
1.66915e-06
4.75845e-08
1.67419e-06
1.26335e-07
1.12713e-07
1.67567e-06
1.74316e-06
-2.38077e-06
1.729e-06
-8.14864e-07
1.75333e-06
8.56672e-07
1.78348e-06
1.05871e-06
1.74543e-06
-1.60394e-06
1.75085e-06
-7.68637e-07
1.75714e-06
8.66068e-08
1.77363e-06
6.31228e-07
1.77713e-06
6.65441e-07
1.78779e-06
4.00401e-07
1.77468e-06
1.44655e-08
1.7702e-06
-2.71047e-07
1.75331e-06
-2.22888e-07
1.7435e-06
-2.85471e-07
1.73772e-06
-6.72743e-08
1.72983e-06
-1.00483e-07
1.73327e-06
6.63235e-08
1.73055e-06
5.03015e-08
1.73448e-06
1.22405e-07
1.11836e-07
1.73536e-06
1.80834e-06
-2.35677e-06
1.79214e-06
-7.98666e-07
1.81533e-06
8.33481e-07
1.84851e-06
1.02553e-06
1.81031e-06
-1.56575e-06
1.81154e-06
-7.69864e-07
1.81305e-06
8.50941e-08
1.8304e-06
6.13875e-07
1.83745e-06
6.58397e-07
1.85218e-06
3.8567e-07
1.84191e-06
2.47323e-08
1.83733e-06
-2.66468e-07
1.822e-06
-2.07561e-07
1.8106e-06
-2.74068e-07
1.8059e-06
-6.25772e-08
1.79664e-06
-9.12188e-08
1.79937e-06
6.35915e-08
1.7959e-06
5.37718e-08
1.79895e-06
1.19359e-07
1.11382e-07
1.7994e-06
1.87603e-06
-2.3309e-06
1.85968e-06
-7.82323e-07
1.88223e-06
8.10935e-07
1.91705e-06
9.90708e-07
1.87762e-06
-1.52631e-06
1.87569e-06
-7.67941e-07
1.8745e-06
8.62875e-08
1.89361e-06
5.94768e-07
1.9038e-06
6.48201e-07
1.92123e-06
3.68247e-07
1.91296e-06
3.29971e-08
1.90719e-06
-2.607e-07
1.89338e-06
-1.9375e-07
1.88047e-06
-2.61153e-07
1.87663e-06
-5.8736e-08
1.86645e-06
-8.10429e-08
1.86857e-06
6.14696e-08
1.86466e-06
5.76791e-08
1.86699e-06
1.17029e-07
1.11245e-07
1.86713e-06
1.94641e-06
-2.3032e-06
1.93122e-06
-7.67134e-07
1.95345e-06
7.88708e-07
1.9889e-06
9.55254e-07
1.94764e-06
-1.48505e-06
1.94347e-06
-7.63774e-07
1.94094e-06
8.88203e-08
1.96217e-06
5.73538e-07
1.97516e-06
6.35217e-07
1.99414e-06
3.49261e-07
1.98753e-06
3.96117e-08
1.97982e-06
-2.52991e-07
1.9674e-06
-1.8133e-07
1.95316e-06
-2.4691e-07
1.94985e-06
-5.54318e-08
1.93914e-06
-7.03286e-08
1.94069e-06
5.9918e-08
1.93657e-06
6.18034e-08
1.9383e-06
1.15293e-07
1.11355e-07
1.93819e-06
2.01968e-06
-2.27383e-06
2.00648e-06
-7.53934e-07
2.02852e-06
7.66662e-07
2.06389e-06
9.19882e-07
2.02059e-06
-1.44175e-06
2.01501e-06
-7.58198e-07
2.01206e-06
9.17721e-08
2.03536e-06
5.50242e-07
2.05071e-06
6.19866e-07
2.07022e-06
3.29744e-07
2.06522e-06
4.46112e-08
2.05526e-06
-2.4303e-07
2.04403e-06
-1.70093e-07
2.02872e-06
-2.31608e-07
2.02565e-06
-5.23568e-08
2.01469e-06
-5.9371e-08
2.01571e-06
5.88992e-08
2.01153e-06
6.59809e-08
2.01279e-06
1.14039e-07
1.11642e-07
2.0125e-06
2.09596e-06
-2.24295e-06
2.08516e-06
-7.43137e-07
2.10701e-06
7.44811e-07
2.1419e-06
8.85002e-07
2.09661e-06
-1.39646e-06
2.09036e-06
-7.51952e-07
2.08764e-06
9.44912e-08
2.11264e-06
5.25248e-07
2.12987e-06
6.02631e-07
2.14892e-06
3.10697e-07
2.1456e-06
4.79309e-08
2.13353e-06
-2.3096e-07
2.12327e-06
-1.59833e-07
2.10722e-06
-2.15562e-07
2.10414e-06
-4.92688e-08
2.09316e-06
-4.83911e-08
2.09369e-06
5.83691e-08
2.08958e-06
7.00868e-08
2.09046e-06
1.13158e-07
1.12032e-07
2.09007e-06
2.17533e-06
-2.21069e-06
2.16698e-06
-7.34794e-07
2.18857e-06
7.23226e-07
2.22287e-06
8.50696e-07
2.17585e-06
-1.34944e-06
2.16947e-06
-7.45574e-07
2.16742e-06
9.65423e-08
2.19355e-06
4.99115e-07
2.21224e-06
5.83944e-07
2.22989e-06
2.93043e-07
2.22833e-06
4.94982e-08
2.2146e-06
-2.17233e-07
2.20516e-06
-1.50393e-07
2.18874e-06
-1.99141e-07
2.18547e-06
-4.60014e-08
2.17464e-06
-3.7561e-08
2.17471e-06
5.82978e-08
2.17076e-06
7.40431e-08
2.17137e-06
1.12543e-07
1.12471e-07
2.17093e-06
2.2578e-06
-2.1771e-06
2.25171e-06
-7.28707e-07
2.27297e-06
7.0197e-07
2.30687e-06
8.1679e-07
2.25846e-06
-1.30103e-06
2.25223e-06
-7.3934e-07
2.25107e-06
9.77006e-08
2.27768e-06
4.72506e-07
2.29755e-06
5.64072e-07
2.31308e-06
2.77519e-07
2.31326e-06
4.93124e-08
2.29846e-06
-2.02427e-07
2.28973e-06
-1.41662e-07
2.27333e-06
-1.82742e-07
2.26982e-06
-4.24908e-08
2.25926e-06
-2.70055e-08
2.2589e-06
5.86617e-08
2.25508e-06
7.78613e-08
2.25557e-06
1.12048e-07
1.12946e-07
2.2551e-06
2.34343e-06
-2.14214e-06
2.33929e-06
-7.24574e-07
2.3602e-06
6.81061e-07
2.39402e-06
7.82978e-07
2.34462e-06
-1.25163e-06
2.33856e-06
-7.33288e-07
2.33835e-06
9.79099e-08
2.36474e-06
4.46121e-07
2.38573e-06
5.4308e-07
2.3987e-06
2.64553e-07
2.40047e-06
4.7539e-08
2.38515e-06
-1.87112e-07
2.37702e-06
-1.3353e-07
2.36104e-06
-1.6676e-07
2.3573e-06
-3.87465e-08
2.34713e-06
-1.68444e-08
2.34624e-06
5.95559e-08
2.34248e-06
8.16234e-08
2.34316e-06
1.11369e-07
1.13473e-07
2.34263e-06
2.43231e-06
-2.10578e-06
2.42985e-06
-7.22106e-07
2.45043e-06
6.60477e-07
2.48446e-06
7.48952e-07
2.43446e-06
-1.20164e-06
2.42847e-06
-7.27298e-07
2.4292e-06
9.71881e-08
2.45466e-06
4.2066e-07
2.4768e-06
5.20933e-07
2.48711e-06
2.54243e-07
2.49016e-06
4.44949e-08
2.47483e-06
-1.71785e-07
2.46714e-06
-1.25837e-07
2.45192e-06
-1.51545e-07
2.44799e-06
-3.48159e-08
2.4384e-06
-7.25053e-09
2.43625e-06
6.17027e-08
2.43274e-06
8.51341e-08
2.43423e-06
1.0988e-07
1.14069e-07
2.43363e-06
2.52461e-06
-2.06798e-06
2.52356e-06
-7.21055e-07
2.54385e-06
6.40184e-07
2.57834e-06
7.14458e-07
2.52814e-06
-1.15143e-06
2.52202e-06
-7.21176e-07
2.52368e-06
9.55297e-08
2.54755e-06
3.96791e-07
2.57084e-06
4.97639e-07
2.57869e-06
2.46393e-07
2.58262e-06
4.05625e-08
2.56768e-06
-1.56841e-07
2.56024e-06
-1.18401e-07
2.54601e-06
-1.37308e-07
2.54193e-06
-3.07439e-08
2.53321e-06
1.47089e-09
2.53484e-06
6.00751e-08
2.53432e-06
8.56513e-08
2.52889e-06
1.15314e-07
1.1473e-07
2.52823e-06
2.62047e-06
-2.02878e-06
2.62062e-06
-7.212e-07
2.64066e-06
6.20143e-07
2.67581e-06
6.79303e-07
2.62576e-06
-1.10138e-06
2.61927e-06
-7.1468e-07
2.62195e-06
9.28494e-08
2.64363e-06
3.75106e-07
2.66804e-06
4.73228e-07
2.67376e-06
2.40672e-07
2.67818e-06
3.61498e-08
2.66394e-06
-1.42606e-07
2.65655e-06
-1.11007e-07
2.64335e-06
-1.24113e-07
2.63964e-06
-2.70363e-08
2.62978e-06
1.13295e-08
2.62688e-06
6.29802e-08
2.62425e-06
8.82813e-08
2.62709e-06
1.12475e-07
1.15306e-07
2.62651e-06
2.72007e-06
-1.98819e-06
2.72118e-06
-7.22313e-07
2.741e-06
6.00324e-07
2.77698e-06
6.4333e-07
2.72743e-06
-1.05183e-06
2.72027e-06
-7.07519e-07
2.7241e-06
8.90142e-08
2.74322e-06
3.55986e-07
2.7686e-06
4.4785e-07
2.77269e-06
2.36584e-07
2.77702e-06
3.18175e-08
2.76401e-06
-1.29592e-07
2.75614e-06
-1.03134e-07
2.74436e-06
-1.12334e-07
2.74074e-06
-2.34146e-08
2.73065e-06
2.14146e-08
2.72678e-06
6.68512e-08
2.72403e-06
9.10271e-08
2.72914e-06
1.0737e-07
1.15997e-07
2.72845e-06
2.82355e-06
-1.94629e-06
2.82539e-06
-7.24154e-07
2.84503e-06
5.80689e-07
2.88193e-06
6.06428e-07
2.83324e-06
-1.00314e-06
2.82506e-06
-6.99342e-07
2.83019e-06
8.38831e-08
2.84666e-06
3.39516e-07
2.87271e-06
4.218e-07
2.87577e-06
2.33528e-07
2.87939e-06
2.81905e-08
2.86822e-06
-1.18422e-07
2.85922e-06
-9.41343e-08
2.84915e-06
-1.02258e-07
2.8464e-06
-2.0665e-08
2.84423e-06
2.35829e-08
2.84533e-06
6.57533e-08
2.84498e-06
9.13742e-08
2.83512e-06
1.1723e-07
1.17097e-07
2.83402e-06
2.93107e-06
-1.90312e-06
2.9334e-06
-7.26482e-07
2.95289e-06
5.61195e-07
2.99077e-06
5.68551e-07
2.94328e-06
-9.55649e-07
2.93369e-06
-6.89749e-07
2.94024e-06
7.73324e-08
2.95417e-06
3.25587e-07
2.9806e-06
3.95367e-07
2.98317e-06
2.30959e-07
2.98569e-06
2.56702e-08
2.97658e-06
-1.09309e-07
2.96652e-06
-8.40758e-08
2.95802e-06
-9.37608e-08
2.95151e-06
-1.41514e-08
2.94371e-06
3.13755e-08
2.93795e-06
7.15162e-08
2.93444e-06
9.48903e-08
2.94437e-06
1.07298e-07
1.17967e-07
2.9435e-06
3.04277e-06
-1.85872e-06
3.04537e-06
-7.29083e-07
3.06477e-06
5.41795e-07
3.10357e-06
5.29746e-07
3.05764e-06
-9.09713e-07
3.04625e-06
-6.78363e-07
3.05426e-06
6.93247e-08
3.06593e-06
3.13915e-07
3.09251e-06
3.68784e-07
3.09497e-06
2.28499e-07
3.09637e-06
2.42685e-08
3.08876e-06
-1.01693e-07
3.07865e-06
-7.39693e-08
3.07055e-06
-8.56654e-08
3.06918e-06
-1.27763e-08
3.07049e-06
3.0068e-08
3.07126e-06
7.07388e-08
3.07085e-06
9.53034e-08
3.05761e-06
1.20539e-07
1.1882e-07
3.05676e-06
3.1588e-06
-1.81316e-06
3.16149e-06
-7.31779e-07
3.18086e-06
5.22431e-07
3.2204e-06
4.90201e-07
3.17643e-06
-8.65736e-07
3.16286e-06
-6.64795e-07
3.17238e-06
5.97987e-08
3.18203e-06
3.04274e-07
3.20872e-06
3.42089e-07
3.2112e-06
2.26022e-07
3.21196e-06
2.35079e-08
3.2042e-06
-9.39373e-08
3.19694e-06
-6.67034e-08
3.18708e-06
-7.58077e-08
3.18616e-06
-1.18609e-08
3.17188e-06
4.43479e-08
3.16597e-06
7.66556e-08
3.16498e-06
9.62937e-08
3.17372e-06
1.11797e-07
1.18183e-07
3.17436e-06
3.27932e-06
-1.76647e-06
3.28199e-06
-7.34451e-07
3.30137e-06
5.0305e-07
3.34137e-06
4.50206e-07
3.2997e-06
-8.24067e-07
3.28382e-06
-6.48918e-07
3.29463e-06
4.89943e-08
3.30286e-06
2.96038e-07
3.32908e-06
3.15868e-07
3.33258e-06
2.22527e-07
3.33177e-06
2.43175e-08
3.32517e-06
-8.73372e-08
3.31817e-06
-5.97026e-08
3.30191e-06
-5.9549e-08
3.29617e-06
-6.12238e-09
3.29098e-06
4.9542e-08
3.28652e-06
8.11107e-08
3.2844e-06
9.84124e-08
3.29493e-06
1.01266e-07
1.17216e-07
3.2959e-06
3.40451e-06
-1.71869e-06
3.40709e-06
-7.37035e-07
3.42651e-06
4.83632e-07
3.46663e-06
4.10086e-07
3.42751e-06
-7.84948e-07
3.40947e-06
-6.30877e-07
3.42099e-06
3.74696e-08
3.42882e-06
2.8821e-07
3.45357e-06
2.91115e-07
3.4596e-06
2.16504e-07
3.45564e-06
2.82746e-08
3.4514e-06
-8.31007e-08
3.44077e-06
-4.9067e-08
3.43929e-06
-5.80726e-08
3.43808e-06
-4.90529e-09
3.44026e-06
4.73552e-08
3.44242e-06
7.89567e-08
3.44025e-06
1.00582e-07
3.42177e-06
1.19746e-07
1.17519e-07
3.42146e-06
3.53455e-06
-1.66989e-06
3.537e-06
-7.39491e-07
3.55656e-06
4.64076e-07
3.59627e-06
3.70373e-07
3.56012e-06
-7.48795e-07
3.53974e-06
-6.10493e-07
3.55222e-06
2.49824e-08
3.5593e-06
2.81139e-07
3.58358e-06
2.66834e-07
3.58981e-06
2.10273e-07
3.58706e-06
3.10227e-08
3.5801e-06
-7.61368e-08
3.5747e-06
-4.36684e-08
3.558e-06
-4.13784e-08
3.55136e-06
1.73918e-09
3.54473e-06
5.39884e-08
3.54067e-06
8.30171e-08
3.54002e-06
1.01229e-07
3.55066e-06
1.09104e-07
1.15614e-07
3.55257e-06
3.66962e-06
-1.62013e-06
3.67197e-06
-7.4184e-07
3.69173e-06
4.44318e-07
3.73057e-06
3.31526e-07
3.69747e-06
-7.15687e-07
3.67517e-06
-5.88202e-07
3.68803e-06
1.21299e-08
3.69526e-06
2.73902e-07
3.71808e-06
2.44014e-07
3.72592e-06
2.0244e-07
3.72259e-06
3.43508e-08
3.71521e-06
-6.87556e-08
3.71258e-06
-4.10378e-08
3.69294e-06
-2.17406e-08
3.68591e-06
8.77236e-09
3.67957e-06
6.03208e-08
3.67522e-06
8.73689e-08
3.67382e-06
1.02631e-07
3.68622e-06
9.6701e-08
1.13754e-07
3.68808e-06
3.80992e-06
-1.56946e-06
3.81222e-06
-7.4414e-07
3.8322e-06
4.24336e-07
3.86988e-06
2.93846e-07
3.83949e-06
-6.85299e-07
3.81635e-06
-5.65062e-07
3.82811e-06
3.72016e-10
3.83749e-06
2.64518e-07
3.85649e-06
2.25022e-07
3.86897e-06
1.8996e-07
3.85975e-06
4.35652e-08
3.85674e-06
-6.57455e-08
3.84593e-06
-3.02287e-08
3.85172e-06
-2.75243e-08
3.851e-06
9.48982e-09
3.85393e-06
5.73895e-08
3.85719e-06
8.41047e-08
3.85271e-06
1.07114e-07
3.82915e-06
1.20265e-07
1.14883e-07
3.82802e-06
3.95567e-06
-1.51797e-06
3.95792e-06
-7.46393e-07
3.97835e-06
4.03911e-07
4.01419e-06
2.58003e-07
3.9869e-06
-6.58011e-07
3.96251e-06
-5.40667e-07
3.97439e-06
-1.15134e-08
3.98342e-06
2.55488e-07
4.00297e-06
2.05475e-07
4.01269e-06
1.80236e-07
4.01099e-06
4.52643e-08
4.00524e-06
-5.99886e-08
4.00357e-06
-2.85624e-08
3.97937e-06
-3.32746e-09
3.97106e-06
1.78056e-08
3.96448e-06
6.39635e-08
3.96102e-06
8.75656e-08
3.96142e-06
1.06721e-07
3.97272e-06
1.08962e-07
1.1272e-07
3.97488e-06
4.10706e-06
-1.46575e-06
4.10932e-06
-7.48655e-07
4.13027e-06
3.82968e-07
4.16407e-06
2.24197e-07
4.13939e-06
-6.33333e-07
4.1147e-06
-5.15974e-07
4.12566e-06
-2.2476e-08
4.1356e-06
2.45553e-07
4.15399e-06
1.87079e-07
4.16365e-06
1.70577e-07
4.16346e-06
4.546e-08
4.14484e-06
-4.13739e-08
4.13964e-06
-2.33638e-08
4.12876e-06
7.55306e-09
4.12246e-06
2.41122e-08
4.11595e-06
7.04755e-08
4.11202e-06
9.14931e-08
4.11177e-06
1.0697e-07
4.12476e-06
9.59662e-08
1.11045e-07
4.12644e-06
4.26431e-06
-1.41287e-06
4.26663e-06
-7.50974e-07
4.28809e-06
3.61507e-07
4.31991e-06
1.92376e-07
4.297e-06
-6.10426e-07
4.27373e-06
-4.92707e-07
4.28128e-06
-3.00244e-08
4.29549e-06
2.3135e-07
4.30753e-06
1.75038e-07
4.32395e-06
1.54153e-07
4.31319e-06
5.62231e-08
4.31881e-06
-4.69949e-08
4.31608e-06
-2.06362e-08
4.31604e-06
7.59008e-09
4.31326e-06
2.69015e-08
4.31792e-06
6.58136e-08
4.32148e-06
8.79338e-08
4.31499e-06
1.13458e-07
4.28629e-06
1.24665e-07
1.14721e-07
4.28261e-06
4.42768e-06
-1.35946e-06
4.42997e-06
-7.53273e-07
4.45226e-06
3.39219e-07
4.48153e-06
1.63109e-07
4.46089e-06
-5.89788e-07
4.43775e-06
-4.69571e-07
4.44519e-06
-3.74619e-08
4.45811e-06
2.18433e-07
4.47145e-06
1.61698e-07
4.48453e-06
1.41071e-07
4.47659e-06
6.41627e-08
4.46418e-06
-3.45885e-08
4.45759e-06
-1.40387e-08
4.44978e-06
1.54014e-08
4.44192e-06
3.47584e-08
4.43798e-06
6.97552e-08
4.43282e-06
9.30936e-08
4.43193e-06
1.14347e-07
4.44599e-06
1.10599e-07
1.13534e-07
4.44718e-06
4.59734e-06
-1.30559e-06
4.59965e-06
-7.55582e-07
4.62272e-06
3.16152e-07
4.64971e-06
1.36121e-07
4.63055e-06
-5.70631e-07
4.60838e-06
-4.47401e-07
4.6153e-06
-4.43838e-08
4.62668e-06
2.07059e-07
4.6419e-06
1.46478e-07
4.64964e-06
1.33331e-07
4.64713e-06
6.66649e-08
4.63156e-06
-1.90177e-08
4.62719e-06
-9.6613e-09
4.61826e-06
2.43281e-08
4.61221e-06
4.08024e-08
4.60655e-06
7.54183e-08
4.6069e-06
9.27453e-08
4.60773e-06
1.1352e-07
4.61431e-06
1.04011e-07
1.10507e-07
4.61734e-06
4.77357e-06
-1.25138e-06
4.77582e-06
-7.5783e-07
4.79964e-06
2.92332e-07
4.82472e-06
1.11047e-07
4.80608e-06
-5.5199e-07
4.78624e-06
-4.27561e-07
4.79084e-06
-4.89831e-08
4.80328e-06
1.94618e-07
4.8156e-06
1.34159e-07
4.82563e-06
1.23297e-07
4.81913e-06
7.31667e-08
4.80668e-06
-6.56779e-09
4.80147e-06
-4.45491e-09
4.79442e-06
3.13818e-08
4.78793e-06
4.72869e-08
4.78495e-06
7.84036e-08
4.79128e-06
8.64167e-08
4.80041e-06
1.04383e-07
4.79125e-06
1.13171e-07
1.08494e-07
4.79327e-06
4.95664e-06
-1.19695e-06
4.95868e-06
-7.59871e-07
4.98339e-06
2.67619e-07
5.00649e-06
8.79468e-08
4.98835e-06
-5.33846e-07
4.97027e-06
-4.09487e-07
4.97384e-06
-5.25515e-08
4.9859e-06
1.82561e-07
4.99629e-06
1.23772e-07
5.00688e-06
1.127e-07
5.00081e-06
7.92426e-08
4.98835e-06
5.88925e-09
4.98268e-06
1.22102e-09
4.97705e-06
3.70066e-08
4.97141e-06
5.29232e-08
4.96884e-06
8.09791e-08
4.96686e-06
8.83996e-08
4.96272e-06
1.08515e-07
4.97352e-06
1.02374e-07
1.05701e-07
4.97631e-06
5.14677e-06
-1.14241e-06
5.14856e-06
-7.61663e-07
5.17396e-06
2.42221e-07
5.19564e-06
6.62688e-08
5.17723e-06
-5.1544e-07
5.16123e-06
-3.93487e-07
5.16388e-06
-5.51962e-08
5.17543e-06
1.71011e-07
5.18365e-06
1.15551e-07
5.19466e-06
1.01689e-07
5.18946e-06
8.44437e-08
5.17714e-06
1.82119e-08
5.17098e-06
7.38032e-09
5.16642e-06
4.15686e-08
5.16186e-06
5.74799e-08
5.15905e-06
8.37826e-08
5.15996e-06
8.74986e-08
5.16781e-06
1.00663e-07
5.16349e-06
1.06688e-07
1.0307e-07
5.16612e-06
5.34426e-06
-1.08789e-06
5.34566e-06
-7.63064e-07
5.37168e-06
2.16202e-07
5.39226e-06
4.5694e-08
5.37329e-06
-4.96473e-07
5.35906e-06
-3.79259e-07
5.36131e-06
-5.74427e-08
5.372e-06
1.60314e-07
5.37842e-06
1.09138e-07
5.3889e-06
9.12094e-08
5.38558e-06
8.77618e-08
5.37329e-06
3.05005e-08
5.36674e-06
1.39324e-08
5.36281e-06
4.54959e-08
5.35952e-06
6.07743e-08
5.35649e-06
8.68126e-08
5.35431e-06
8.96758e-08
5.35303e-06
1.0194e-07
5.36017e-06
9.9549e-08
9.99105e-08
5.36333e-06
5.54938e-06
-1.03354e-06
5.55029e-06
-7.63966e-07
5.57682e-06
1.89672e-07
5.59652e-06
2.59935e-08
5.57693e-06
-4.76881e-07
5.56403e-06
-3.66358e-07
5.5663e-06
-5.97191e-08
5.57607e-06
1.50542e-07
5.58076e-06
1.04454e-07
5.59064e-06
8.13237e-08
5.58923e-06
8.91752e-08
5.57715e-06
4.25803e-08
5.57021e-06
2.08706e-08
5.56663e-06
4.90742e-08
5.56428e-06
6.31231e-08
5.56166e-06
8.94371e-08
5.5596e-06
9.17355e-08
5.56124e-06
1.00301e-07
5.56465e-06
9.6133e-08
9.6588e-08
5.56798e-06
5.76243e-06
-9.79493e-07
5.76273e-06
-7.64258e-07
5.78955e-06
1.6285e-07
5.80876e-06
6.78106e-09
5.7885e-06
-4.56618e-07
5.77658e-06
-3.54436e-07
5.77879e-06
-6.19368e-08
5.78816e-06
1.41172e-07
5.79108e-06
1.01538e-07
5.80025e-06
7.21527e-08
5.80041e-06
8.90111e-08
5.78902e-06
5.39789e-08
5.78165e-06
2.82397e-08
5.77826e-06
5.24615e-08
5.77641e-06
6.49719e-08
5.77482e-06
9.10315e-08
5.77433e-06
9.22179e-08
5.77995e-06
9.4684e-08
5.77716e-06
9.89206e-08
9.34543e-08
5.7803e-06
5.98371e-06
-9.25906e-07
5.98324e-06
-7.63785e-07
6.01032e-06
1.35767e-07
6.02894e-06
-1.18379e-08
6.00869e-06
-4.36368e-07
5.99659e-06
-3.42334e-07
5.99942e-06
-6.47708e-08
6.0082e-06
1.32396e-07
6.01007e-06
9.96647e-08
6.01754e-06
6.46871e-08
6.01962e-06
8.69239e-08
6.00903e-06
6.45695e-08
6.00142e-06
3.58502e-08
5.99803e-06
5.58526e-08
5.9964e-06
6.66008e-08
5.99602e-06
9.14171e-08
5.99321e-06
9.50255e-08
5.99098e-06
9.69174e-08
5.99738e-06
9.25116e-08
9.00916e-08
6.00075e-06
6.21352e-06
-8.72925e-07
6.2122e-06
-7.62461e-07
6.23936e-06
1.08601e-07
6.25742e-06
-2.98918e-08
6.23749e-06
-4.16438e-07
6.22504e-06
-3.29891e-07
6.22818e-06
-6.79053e-08
6.2367e-06
1.23876e-07
6.23775e-06
9.86119e-08
6.24325e-06
5.91863e-08
6.24701e-06
8.31686e-08
6.23758e-06
7.39949e-08
6.22971e-06
4.37201e-08
6.22632e-06
5.92399e-08
6.22455e-06
6.83736e-08
6.22528e-06
9.06851e-08
6.22426e-06
9.60465e-08
6.22847e-06
9.27088e-08
6.22632e-06
9.46661e-08
8.69821e-08
6.22943e-06
6.45219e-06
-8.20706e-07
6.44987e-06
-7.60149e-07
6.47702e-06
8.14519e-08
6.49446e-06
-4.73248e-08
6.47533e-06
-3.97311e-07
6.46222e-06
-3.16782e-07
6.46545e-06
-7.11336e-08
6.4739e-06
1.1542e-07
6.47438e-06
9.81412e-08
6.47789e-06
5.56763e-08
6.48274e-06
7.83106e-08
6.47494e-06
8.1794e-08
6.46675e-06
5.19162e-08
6.46355e-06
6.24353e-08
6.46143e-06
7.04944e-08
6.46306e-06
8.90567e-08
6.46115e-06
9.7958e-08
6.4591e-06
9.47536e-08
6.46386e-06
8.99071e-08
8.40968e-08
6.46675e-06
6.70003e-06
-7.69396e-07
6.69664e-06
-7.56758e-07
6.72369e-06
5.44011e-08
6.74035e-06
-6.39872e-08
6.72243e-06
-3.79388e-07
6.70856e-06
-3.02914e-07
6.71158e-06
-7.41532e-08
6.72002e-06
1.0698e-07
6.72028e-06
9.78811e-08
6.72182e-06
5.41378e-08
6.72723e-06
7.29009e-08
6.72143e-06
8.75882e-08
6.71295e-06
6.03981e-08
6.71002e-06
6.53652e-08
6.70744e-06
7.30803e-08
6.70955e-06
8.6941e-08
6.70956e-06
9.79473e-08
6.71282e-06
9.14983e-08
6.71073e-06
9.19917e-08
8.18333e-08
6.713e-06
6.9574e-06
-7.19145e-07
6.9528e-06
-7.52156e-07
6.97967e-06
2.75306e-08
6.9955e-06
-7.98222e-08
6.97914e-06
-3.63026e-07
6.96457e-06
-2.8834e-07
6.96692e-06
-7.65066e-08
6.97536e-06
9.85393e-08
6.97565e-06
9.75861e-08
6.9755e-06
5.42944e-08
6.98079e-06
6.76107e-08
6.97725e-06
9.1125e-08
6.9686e-06
6.9051e-08
6.96589e-06
6.80773e-08
6.96303e-06
7.59408e-08
6.96519e-06
8.47742e-08
6.965e-06
9.81414e-08
6.96336e-06
9.31383e-08
6.96698e-06
8.83713e-08
8.01485e-08
6.96866e-06
7.22464e-06
-6.70093e-07
7.21872e-06
-7.46239e-07
7.24538e-06
8.68993e-10
7.26031e-06
-9.47455e-08
7.24604e-06
-3.48762e-07
7.23052e-06
-2.72818e-07
7.23184e-06
-7.7828e-08
7.24026e-06
9.01183e-08
7.2408e-06
9.70509e-08
7.23934e-06
5.575e-08
7.2439e-06
6.30554e-08
7.24265e-06
9.23699e-08
7.23415e-06
7.75501e-08
7.23151e-06
7.07191e-08
7.22864e-06
7.88118e-08
7.23047e-06
8.2946e-08
7.23202e-06
9.65887e-08
7.23482e-06
9.03393e-08
7.23316e-06
9.00299e-08
7.91584e-08
7.23415e-06
7.50211e-06
-6.22375e-07
7.49479e-06
-7.38918e-07
7.52112e-06
-2.54623e-08
7.53524e-06
-1.08866e-07
7.52258e-06
-3.36101e-07
7.50648e-06
-2.56718e-07
7.50697e-06
-7.83168e-08
7.51509e-06
8.20032e-08
7.51603e-06
9.61114e-08
7.5137e-06
5.80766e-08
7.517e-06
5.9757e-08
7.5179e-06
9.14701e-08
7.50998e-06
8.54676e-08
7.50721e-06
7.34906e-08
7.50459e-06
8.14312e-08
7.50579e-06
8.17501e-08
7.50728e-06
9.5097e-08
7.50615e-06
9.14643e-08
7.50929e-06
8.68925e-08
7.86733e-08
7.50978e-06
7.79019e-06
-5.76107e-07
7.78155e-06
-7.30281e-07
7.80712e-06
-5.10321e-08
7.82101e-06
-1.22758e-07
7.80887e-06
-3.23965e-07
7.79261e-06
-2.40452e-07
7.79298e-06
-7.86832e-08
7.80018e-06
7.4797e-08
7.8016e-06
9.4689e-08
7.79889e-06
6.07945e-08
7.80067e-06
5.79761e-08
7.80331e-06
8.88251e-08
7.79648e-06
9.22951e-08
7.79337e-06
7.66046e-08
7.79119e-06
8.36094e-08
7.79165e-06
8.12929e-08
7.79415e-06
9.25972e-08
7.79682e-06
8.87948e-08
7.79602e-06
8.76889e-08
7.8603e-08
7.79609e-06
8.08927e-06
-5.31415e-07
8.07928e-06
-7.20291e-07
8.10389e-06
-7.56436e-08
8.11757e-06
-1.36439e-07
8.10855e-06
-3.14946e-07
8.09978e-06
-2.31679e-07
8.09098e-06
-6.98835e-08
8.09589e-06
6.98864e-08
8.09794e-06
9.26421e-08
8.09528e-06
6.34538e-08
8.09546e-06
5.77935e-08
8.09924e-06
8.50488e-08
8.09398e-06
9.75482e-08
8.0904e-06
8.01847e-08
8.08876e-06
8.52496e-08
8.08853e-06
8.15307e-08
8.09068e-06
9.0443e-08
8.09049e-06
8.89855e-08
8.09339e-06
8.47884e-08
7.85946e-08
8.0934e-06
8.39977e-06
-4.8842e-07
8.38797e-06
-7.08498e-07
8.41247e-06
-1.00137e-07
8.42469e-06
-1.48658e-07
8.41745e-06
-3.07712e-07
8.40011e-06
-2.1434e-07
8.39646e-06
-6.6228e-08
8.40308e-06
6.32676e-08
8.40544e-06
9.02735e-08
8.40314e-06
6.57595e-08
8.40192e-06
5.90127e-08
8.40608e-06
8.08837e-08
8.40277e-06
1.00861e-07
8.39877e-06
8.41847e-08
8.39758e-06
8.64371e-08
8.39684e-06
8.22794e-08
8.39937e-06
8.79081e-08
8.40075e-06
8.76024e-08
8.40206e-06
8.34807e-08
7.84344e-08
8.40222e-06
8.72207e-06
-4.47205e-07
8.70869e-06
-6.95114e-07
8.73224e-06
-1.23692e-07
8.74147e-06
-1.57885e-07