/*--------------------------------*- C++ -*----------------------------------*\
| =========                 |                                                 |
| \\      /  F ield         | OpenFOAM: The Open Source CFD Toolbox           |
|  \\    /   O peration     | Version:  v2012                                 |
|   \\  /    A nd           | Website:  www.openfoam.com                      |
|    \\/     M anipulation  |                                                 |
\*---------------------------------------------------------------------------*/
FoamFile
{
    version     2.0;
    format      ascii;
    class       volVectorField;
    location    "4.8";
    object      U;
}
// * * * * * * * * * * * * * * * * * * * * * * * * * * * * * * * * * * * * * //

dimensions      [0 1 -1 0 0 0 0];


internalField   nonuniform List<vector> 
7000
(
(0.601731 -0.0179157 0)
(1.41803 0.00773048 0)
(0.917287 0.0108875 0)
(1.28676 -0.00113385 0)
(0.68769 -0.0237793 0)
(1.43431 -0.00610728 0)
(0.719929 0.00550643 0)
(1.31665 0.0228432 0)
(0.767668 0.00865871 0)
(1.20769 0.0058497 0)
(0.887672 -0.0149007 0)
(1.24322 -0.0156266 0)
(0.920159 -0.0162917 0)
(1.24784 -0.0106309 0)
(0.915731 -0.00557617 0)
(1.21683 -0.000860539 0)
(0.900675 0.00262111 0)
(1.17667 0.00597349 0)
(0.890216 0.00609132 0)
(1.14113 0.00914598 0)
(0.628054 -0.0182598 0)
(1.40958 0.0067515 0)
(0.937475 0.0111728 0)
(1.28449 0.000674619 0)
(0.72983 -0.0254742 0)
(1.42819 -0.00576731 0)
(0.739723 0.00584626 0)
(1.29983 0.0228973 0)
(0.822265 0.00938833 0)
(1.17712 0.00477762 0)
(0.945539 -0.0160131 0)
(1.20396 -0.0157738 0)
(0.966912 -0.0168974 0)
(1.20911 -0.0102079 0)
(0.965681 -0.00520768 0)
(1.17198 -7.20263e-05 0)
(0.962134 0.00381794 0)
(1.11464 0.00600768 0)
(0.970559 0.00789951 0)
(1.05615 0.00855676 0)
(0.664884 -0.0186156 0)
(1.38624 0.00554126 0)
(0.978941 0.0116335 0)
(1.27774 0.00211309 0)
(0.782898 -0.0267957 0)
(1.40767 -0.00527224 0)
(0.788182 0.00645792 0)
(1.25971 0.0226962 0)
(0.905429 0.0102476 0)
(1.13902 0.00373342 0)
(1.00365 -0.0165195 0)
(1.14791 -0.0158791 0)
(1.01765 -0.0170989 0)
(1.15114 -0.010043 0)
(1.02521 -0.00454584 0)
(1.11754 6.19923e-05 0)
(1.0243 0.0053175 0)
(1.06527 0.00604676 0)
(1.02158 0.00970011 0)
(1.02272 0.00870887 0)
(0.709106 -0.0190004 0)
(1.34622 0.0043379 0)
(1.03228 0.0119744 0)
(1.26327 0.00344825 0)
(0.840934 -0.027915 0)
(1.36628 -0.00489474 0)
(0.858489 0.00735439 0)
(1.20606 0.0219658 0)
(0.98645 0.011083 0)
(1.11078 0.00294669 0)
(1.04505 -0.0165224 0)
(1.09649 -0.0160485 0)
(1.04694 -0.0170422 0)
(1.09796 -0.0103262 0)
(1.05858 -0.00386139 0)
(1.08079 -3.47451e-07 0)
(1.05451 0.00667034 0)
(1.04771 0.00626738 0)
(1.03975 0.0110471 0)
(1.02135 0.00938909 0)
(0.757166 -0.0193614 0)
(1.29264 0.00301243 0)
(1.08581 0.0121811 0)
(1.24105 0.00478374 0)
(0.896765 -0.0287145 0)
(1.30429 -0.0047838 0)
(0.933225 0.00841637 0)
(1.15677 0.0209589 0)
(1.0499 0.0117427 0)
(1.10004 0.00254285 0)
(1.06687 -0.0160813 0)
(1.06215 -0.0160921 0)
(1.05141 -0.0168588 0)
(1.06155 -0.0107815 0)
(1.06276 -0.0034564 0)
(1.06281 -0.000128833 0)
(1.05952 0.0076314 0)
(1.04677 0.00661354 0)
(1.0434 0.012075 0)
(1.02897 0.0102015 0)
(0.805039 -0.0196576 0)
(1.23197 0.00152738 0)
(1.13014 0.012274 0)
(1.21379 0.00609563 0)
(0.943361 -0.0291056 0)
(1.22922 -0.00496635 0)
(0.995886 0.0093899 0)
(1.12575 0.0199884 0)
(1.09368 0.012114 0)
(1.10369 0.00257157 0)
(1.07553 -0.0152327 0)
(1.04408 -0.0158609 0)
(1.04155 -0.0165743 0)
(1.03927 -0.0112557 0)
(1.05062 -0.00339075 0)
(1.05313 -0.000374478 0)
(1.05336 0.00821475 0)
(1.04847 0.00688562 0)
(1.04319 0.0128884 0)
(1.03604 0.0108789 0)
(0.849227 -0.0198663 0)
(1.17198 -4.28131e-05 0)
(1.15936 0.0122454 0)
(1.18508 0.00737251 0)
(0.976583 -0.0290618 0)
(1.15319 -0.00538209 0)
(1.03831 0.00998709 0)
(1.11541 0.0191331 0)
(1.12188 0.0122308 0)
(1.11324 0.00300191 0)
(1.07822 -0.0140149 0)
(1.0351 -0.0153315 0)
(1.02848 -0.0161612 0)
(1.02412 -0.0116918 0)
(1.03407 -0.00356216 0)
(1.04417 -0.000826492 0)
(1.04449 0.00848817 0)
(1.04772 0.006944 0)
(1.04266 0.0134494 0)
(1.04069 0.0113398 0)
(0.887512 -0.0199831 0)
(1.11941 -0.0016081 0)
(1.17102 0.0120908 0)
(1.15775 0.00860462 0)
(0.996407 -0.0286259 0)
(1.08789 -0.00596131 0)
(1.06103 0.00999585 0)
(1.11841 0.0183211 0)
(1.13886 0.0122295 0)
(1.12094 0.00373808 0)
(1.07856 -0.0124849 0)
(1.0292 -0.0145559 0)
(1.01805 -0.015592 0)
(1.01192 -0.0120614 0)
(1.01913 -0.00385781 0)
(1.03366 -0.00149639 0)
(1.03581 0.00848188 0)
(1.04416 0.00673444 0)
(1.0419 0.0137079 0)
(1.04312 0.0115741 0)
(0.919114 -0.0200212 0)
(1.07786 -0.00308912 0)
(1.16583 0.0118277 0)
(1.133 0.00976842 0)
(1.00589 -0.0278922 0)
(1.04003 -0.00665086 0)
(1.06941 0.00937875 0)
(1.12463 0.0174729 0)
(1.14672 0.0122473 0)
(1.12252 0.00466614 0)
(1.07692 -0.0107232 0)
(1.02382 -0.0136192 0)
(1.0113 -0.0148807 0)
(1.00181 -0.0123403 0)
(1.00745 -0.00418931 0)
(1.02213 -0.00233299 0)
(1.02754 0.00820896 0)
(1.03835 0.00627832 0)
(1.03986 0.0136561 0)
(1.04316 0.011583 0)
(0.944308 -0.0200031 0)
(1.0474 -0.00441798 0)
(1.14688 0.0114895 0)
(1.11067 0.010822 0)
(1.00908 -0.0269758 0)
(1.00997 -0.00740555 0)
(1.06924 0.00827451 0)
(1.12653 0.0165672 0)
(1.14577 0.0123675 0)
(1.11681 0.00570905 0)
(1.07254 -0.00883769 0)
(1.01873 -0.012615 0)
(1.00713 -0.0140653 0)
(0.994272 -0.0125087 0)
(0.998879 -0.00447819 0)
(1.01074 -0.00323795 0)
(1.01929 0.00770946 0)
(1.03067 0.00564707 0)
(1.03553 0.0133172 0)
(1.0402 0.011383 0)
(0.963859 -0.0199496 0)
(1.0258 -0.00553214 0)
(1.11882 0.0111126 0)
(1.09009 0.0117117 0)
(1.00932 -0.025986 0)
(0.993828 -0.00817863 0)
(1.06415 0.00690914 0)
(1.12063 0.0156475 0)
(1.13604 0.0126066 0)
(1.10468 0.00677847 0)
(1.06513 -0.00695618 0)
(1.01433 -0.0116276 0)
(1.00427 -0.0131923 0)
(0.98957 -0.0125628 0)
(0.992823 -0.00466464 0)
(1.00048 -0.00410562 0)
(1.0109 0.00705481 0)
(1.0215 0.00493312 0)
(1.02856 0.0127468 0)
(1.0339 0.0110232 0)
(0.978605 -0.0198745 0)
(1.01034 -0.00638989 0)
(1.08682 0.0107264 0)
(1.07095 0.0123901 0)
(1.0086 -0.025012 0)
(0.986755 -0.00892252 0)
(1.05557 0.00550614 0)
(1.10675 0.0147868 0)
(1.1186 0.0129261 0)
(1.08805 0.00778491 0)
(1.05531 -0.00520124 0)
(1.01089 -0.0107261 0)
(1.00202 -0.0123061 0)
(0.987351 -0.012528 0)
(0.988718 -0.00469104 0)
(0.992076 -0.00484287 0)
(1.00267 0.00633824 0)
(1.01156 0.00423704 0)
(1.01946 0.0120359 0)
(1.02476 0.01058 0)
(0.989307 -0.0197833 0)
(0.999052 -0.0069886 0)
(1.05564 0.0103507 0)
(1.05354 0.0128336 0)
(1.00768 -0.0241148 0)
(0.984782 -0.00959352 0)
(1.04423 0.00423504 0)
(1.08694 0.0140373 0)
(1.09595 0.0132763 0)
(1.06942 0.00864725 0)
(1.04438 -0.00366703 0)
(1.00837 -0.00996245 0)
(1.00016 -0.0114391 0)
(0.986872 -0.0124312 0)
(0.986084 -0.00455848 0)
(0.985936 -0.00538378 0)
(0.995163 0.00564998 0)
(1.00193 0.00364863 0)
(1.00944 0.0112866 0)
(1.01416 0.0101312 0)
(0.99667 -0.0196767 0)
(0.990832 -0.00735742 0)
(1.02878 0.00999663 0)
(1.03852 0.0130465 0)
(1.00674 -0.0233254 0)
(0.985224 -0.0101557 0)
(1.0313 0.00319655 0)
(1.06445 0.0134221 0)
(1.07152 0.0136035 0)
(1.05126 0.00929991 0)
(1.03382 -0.0024068 0)
(1.00658 -0.00936338 0)
(0.99876 -0.0106156 0)
(0.987358 -0.012285 0)
(0.984553 -0.00431159 0)
(0.982124 -0.00570559 0)
(0.98898 0.00505383 0)
(0.993732 0.00322507 0)
(0.999997 0.0105818 0)
(1.00382 0.00973539 0)
(1.0014 -0.0195548 0)
(0.985103 -0.00753934 0)
(1.00808 0.00966837 0)
(1.0264 0.013059 0)
(1.00576 -0.0226467 0)
(0.986373 -0.0105902 0)
(1.01839 0.0024282 0)
(1.04272 0.012935 0)
(1.04871 0.0138614 0)
(1.03554 0.0097092 0)
(1.02482 -0.00142694 0)
(1.00531 -0.00892608 0)
(0.997894 -0.00984869 0)
(0.988226 -0.0120996 0)
(0.983852 -0.00398186 0)
(0.980334 -0.00580678 0)
(0.984518 0.00457685 0)
(0.987672 0.00298063 0)
(0.992309 0.00997039 0)
(0.995189 0.00942316 0)
(1.00417 -0.0194177 0)
(0.981373 -0.00757905 0)
(0.993736 0.00936654 0)
(1.01727 0.0129157 0)
(1.00482 -0.022059 0)
(0.98723 -0.0109011 0)
(1.00694 0.00191564 0)
(1.02425 0.0125469 0)
(1.02996 0.0140242 0)
(1.02339 0.00987998 0)
(1.01804 -0.000695629 0)
(1.00444 -0.00862654 0)
(0.997571 -0.00913778 0)
(0.989166 -0.0118675 0)
(0.983777 -0.00363737 0)
(0.980018 -0.00571616 0)
(0.981813 0.00421241 0)
(0.983866 0.0028968 0)
(0.986928 0.00946903 0)
(0.988981 0.00919932 0)
(1.00561 -0.0192654 0)
(0.979095 -0.00752404 0)
(0.984817 0.0090891 0)
(1.01084 0.0126628 0)
(1.00401 -0.0215319 0)
(0.987359 -0.0111043 0)
(0.997696 0.00161304 0)
(1.01015 0.0122195 0)
(1.01624 0.0140878 0)
(1.01497 0.00984525 0)
(1.01358 -0.000156536 0)
(1.0039 -0.00843063 0)
(0.997692 -0.00848017 0)
(0.990078 -0.0115728 0)
(0.984157 -0.00332612 0)
(0.980579 -0.00547663 0)
(0.980583 0.00393673 0)
(0.981925 0.00294028 0)
(0.983728 0.00907313 0)
(0.985128 0.00905083 0)
(1.0062 -0.0190978 0)
(0.977742 -0.00741226 0)
(0.979936 0.00883309 0)
(1.00655 0.0123389 0)
(1.00341 -0.0210352 0)
(0.98676 -0.0112184 0)
(0.99071 0.00146208 0)
(1.00029 0.0119164 0)
(1.00725 0.0140608 0)
(1.00981 0.00964973 0)
(1.01114 0.000246447 0)
(1.00371 -0.00829166 0)
(0.998096 -0.00787695 0)
(0.990975 -0.0112175 0)
(0.984839 -0.00304967 0)
(0.981538 -0.00513392 0)
(0.980396 0.00371738 0)
(0.98125 0.00307034 0)
(0.982179 0.00876593 0)
(0.983076 0.00895829 0)
(1.00625 -0.018915 0)
(0.976935 -0.00727145 0)
(0.977783 0.00859298 0)
(1.00386 0.0119716 0)
(1.00301 -0.0205444 0)
(0.985697 -0.0112624 0)
(0.985641 0.00140906 0)
(0.993804 0.0116079 0)
(1.00196 0.0139543 0)
(1.00711 0.00933796 0)
(1.0102 0.000556184 0)
(1.00384 -0.00816336 0)
(0.998623 -0.00733316 0)
(0.991884 -0.0107985 0)
(0.985692 -0.00282844 0)
(0.982594 -0.00470471 0)
(0.980844 0.00354786 0)
(0.981293 0.00325647 0)
(0.98168 0.00852983 0)
(0.982171 0.00890669 0)
(1.00599 -0.0187167 0)
(0.976488 -0.00712161 0)
(0.97738 0.00836231 0)
(1.00234 0.0115791 0)
(1.00275 -0.0200424 0)
(0.984509 -0.011254 0)
(0.982077 0.00141429 0)
(0.989753 0.0112715 0)
(0.999209 0.0137777 0)
(1.00607 0.00894851 0)
(1.01022 0.000803838 0)
(1.00425 -0.00800901 0)
(0.999164 -0.00684615 0)
(0.992799 -0.0103214 0)
(0.986615 -0.00265487 0)
(0.983602 -0.00421358 0)
(0.98162 0.00342163 0)
(0.981694 0.00347392 0)
(0.981767 0.00834652 0)
(0.981918 0.00888562 0)
(1.00554 -0.0185035 0)
(0.976353 -0.00697729 0)
(0.978066 0.0081363 0)
(1.00164 0.011174 0)
(1.00254 -0.0195195 0)
(0.983462 -0.0112064 0)
(0.979711 0.00145188 0)
(0.987406 0.0108949 0)
(0.99807 0.0135368 0)
(1.00599 0.00851214 0)
(1.01074 0.000995394 0)
(1.00486 -0.00780051 0)
(0.999669 -0.00640431 0)
(0.993679 -0.0097954 0)
(0.987543 -0.00250669 0)
(0.984512 -0.00369644 0)
(0.982535 0.00333013 0)
(0.982267 0.0037088 0)
(0.982172 0.00819973 0)
(0.98204 0.00888632 0)
(1.00501 -0.0182762 0)
(0.976508 -0.00684839 0)
(0.979372 0.00791226 0)
(1.00145 0.0107663 0)
(1.00229 -0.0189714 0)
(0.982698 -0.0111328 0)
(0.978334 0.00150239 0)
(0.986286 0.0104777 0)
(0.997892 0.0132389 0)
(1.00636 0.00804926 0)
(1.01134 0.00114924 0)
(1.00552 -0.0075245 0)
(1.00012 -0.00600574 0)
(0.994477 -0.00921531 0)
(0.988439 -0.00236987 0)
(0.985328 -0.00316362 0)
(0.983489 0.00328103 0)
(0.982936 0.00396401 0)
(0.98276 0.0080834 0)
(0.982413 0.00890243 0)
(1.00447 -0.0180361 0)
(0.976887 -0.00674037 0)
(0.980919 0.00768915 0)
(1.00152 0.0103622 0)
(1.00201 -0.018397 0)
(0.982243 -0.0110473 0)
(0.977766 0.00155188 0)
(0.986044 0.010024 0)
(0.998233 0.0128956 0)
(1.0068 0.00758372 0)
(1.01174 0.00126209 0)
(1.00607 -0.00717745 0)
(1.00052 -0.00564688 0)
(0.995161 -0.00860058 0)
(0.989291 -0.00222651 0)
(0.986076 -0.00263203 0)
(0.984434 0.00326055 0)
(0.983668 0.004234 0)
(0.983462 0.00799523 0)
(0.982969 0.0089276 0)
(1.00399 -0.0177842 0)
(0.977379 -0.00665518 0)
(0.982406 0.00746812 0)
(1.00166 0.0099645 0)
(1.00172 -0.0177994 0)
(0.982068 -0.0109564 0)
(0.977792 0.00159216 0)
(0.986364 0.00953876 0)
(0.998763 0.0125179 0)
(1.00707 0.00714502 0)
(1.01176 0.00131915 0)
(1.00639 -0.00677298 0)
(1.00082 -0.00531771 0)
(0.995719 -0.00797115 0)
(0.990093 -0.00208525 0)
(0.986792 -0.0021113 0)
(0.985362 0.00324995 0)
(0.984444 0.0045067 0)
(0.984235 0.00793643 0)
(0.983647 0.00895793 0)
(1.00358 -0.0175212 0)
(0.977878 -0.0065914 0)
(0.983645 0.00724983 0)
(1.00176 0.0095732 0)
(1.00147 -0.0171801 0)
(0.982137 -0.0108676 0)
(0.978191 0.00162178 0)
(0.986961 0.00903847 0)
(0.999243 0.0121093 0)
(1.00707 0.00675218 0)
(1.01136 0.00133412 0)
(1.00642 -0.00633012 0)
(1.00098 -0.00500965 0)
(0.996151 -0.00733989 0)
(0.990833 -0.00193998 0)
(0.987501 -0.00159506 0)
(0.986277 0.00324695 0)
(0.985256 0.00476645 0)
(0.985052 0.0079088 0)
(0.984393 0.00899437 0)
(1.00324 -0.0172472 0)
(0.978328 -0.00654646 0)
(0.984575 0.00703599 0)
(1.00179 0.00918208 0)
(1.00129 -0.0165412 0)
(0.982424 -0.0107837 0)
(0.978782 0.00163351 0)
(0.987623 0.00854164 0)
(0.999537 0.011677 0)
(1.00678 0.00642269 0)
(1.01062 0.00130713 0)
(1.00614 -0.00587037 0)
(1.00097 -0.00471799 0)
(0.996459 -0.00671595 0)
(0.991498 -0.00177709 0)
(0.988201 -0.00107926 0)
(0.987185 0.00326321 0)
(0.986097 0.00499746 0)
(0.985902 0.00790541 0)
(0.985176 0.00903977 0)
(1.00294 -0.0169623 0)
(0.978729 -0.00651726 0)
(0.985225 0.0068253 0)
(1.00177 0.00879405 0)
(1.00118 -0.0159013 0)
(0.982907 -0.0106902 0)
(0.979464 0.00162317 0)
(0.988249 0.00805389 0)
(0.999618 0.0112132 0)
(1.00626 0.00616383 0)
(1.00965 0.00123733 0)
(1.00562 -0.00540111 0)
(1.00079 -0.00445352 0)
(0.996642 -0.00611222 0)
(0.992068 -0.00160097 0)
(0.988875 -0.000587775 0)
(0.988074 0.00330554 0)
(0.986957 0.00519813 0)
(0.986779 0.00791327 0)
(0.985982 0.00909059 0)
(1.00268 -0.0166663 0)
(0.979109 -0.00650093 0)
(0.985656 0.00661621 0)
(1.00174 0.00840339 0)
(1.00116 -0.0152486 0)
(0.983558 -0.0106083 0)
(0.980194 0.00161222 0)
(0.988818 0.00759293 0)
(0.999532 0.0107253 0)
(1.00561 0.00594614 0)
(1.00856 0.00113884 0)
(1.00495 -0.00495148 0)
(1.00045 -0.00418028 0)
(0.996707 -0.00557054 0)
(0.992526 -0.00140327 0)
(0.989489 -0.000142812 0)
(0.988918 0.00338547 0)
(0.987816 0.00532617 0)
(0.987667 0.0079257 0)
(0.986805 0.00914082 0)
(1.00246 -0.0163575 0)
(0.979491 -0.00650197 0)
(0.985916 0.00641944 0)
(1.00171 0.00799116 0)
(1.0012 -0.0145841 0)
(0.984336 -0.0105297 0)
(0.980959 0.00158013 0)
(0.989339 0.00716347 0)
(0.999348 0.0102348 0)
(1.00488 0.00577465 0)
(1.00746 0.00102579 0)
(1.0042 -0.0045142 0)
(1.00001 -0.00391304 0)
(0.996667 -0.00506021 0)
(0.992872 -0.00122673 0)
(0.990016 0.000319041 0)
(0.989676 0.00347973 0)
(0.988634 0.00549041 0)
(0.988537 0.00793961 0)
(0.987619 0.00919507 0)
(1.00227 -0.0160407 0)
(0.979882 -0.0065015 0)
(0.986035 0.00620543 0)
(1.00167 0.00760011 0)
(1.00131 -0.0139575 0)
(0.985191 -0.010409 0)
(0.981738 0.00150952 0)
(0.989817 0.006792 0)
(0.999127 0.00968443 0)
(1.00414 0.00568643 0)
(1.00641 0.000869734 0)
(1.00343 -0.00405409 0)
(0.999519 -0.00370165 0)
(0.996545 -0.00452785 0)
(0.993122 -0.00113085 0)
(0.990444 0.000819214 0)
(0.990327 0.00354312 0)
(0.989375 0.0057375 0)
(0.989329 0.00791172 0)
(0.988393 0.00922367 0)
(1.00214 -0.0157084 0)
(0.980272 -0.00652229 0)
(0.986037 0.00601639 0)
(1.00162 0.00716353 0)
(1.00146 -0.0132963 0)
(0.986075 -0.0103169 0)
(0.982505 0.00145673 0)
(0.990236 0.00646165 0)
(0.998911 0.00914057 0)
(1.00343 0.00558987 0)
(1.00545 0.000783864 0)
(1.00269 -0.003726 0)
(0.999027 -0.00337516 0)
(0.996377 -0.00412742 0)
(0.993292 -0.000969652 0)
(0.990786 0.00111903 0)
(0.990851 0.0036522 0)
(0.990025 0.0057817 0)
(0.990002 0.00793154 0)
(0.98909 0.00930056 0)
(1.00207 -0.0153706 0)
(0.980653 -0.00654015 0)
(0.985948 0.00581542 0)
(1.00155 0.00673632 0)
(1.00163 -0.0126838 0)
(0.986944 -0.0101722 0)
(0.983233 0.00132661 0)
(0.990584 0.00620386 0)
(0.998717 0.00857161 0)
(1.00277 0.00555209 0)
(1.0046 0.000686989 0)
(1.00204 -0.0034036 0)
(0.998566 -0.00306487 0)
(0.996201 -0.00376151 0)
(0.993398 -0.000762768 0)
(0.991054 0.00139186 0)
(0.991247 0.00378256 0)
(0.990579 0.00585015 0)
(0.990585 0.00797834 0)
(0.989684 0.00939868 0)
(1.00206 -0.0150235 0)
(0.981014 -0.00655012 0)
(0.985808 0.00560063 0)
(1.00143 0.00632888 0)
(1.00181 -0.0121102 0)
(0.987764 -0.00998446 0)
(0.983908 0.00119719 0)
(0.990853 0.00595022 0)
(0.998563 0.00802323 0)
(1.00218 0.0054708 0)
(1.00387 0.000651717 0)
(1.00148 -0.0031849 0)
(0.998166 -0.00268515 0)
(0.996048 -0.00350642 0)
(0.993483 -0.000540052 0)
(0.99128 0.00152618 0)
(0.991537 0.00395628 0)
(0.991033 0.00577541 0)
(0.991026 0.00800534 0)
(0.990162 0.00947785 0)
(1.00209 -0.0146519 0)
(0.981354 -0.00660564 0)
(0.985649 0.00544501 0)
(1.00127 0.00581322 0)
(1.00197 -0.0114377 0)
(0.988509 -0.00989387 0)
(0.984523 0.00113339 0)
(0.991049 0.00570511 0)
(0.998447 0.00752952 0)
(1.00167 0.00534003 0)
(1.00324 0.000700551 0)
(1.00103 -0.00307946 0)
(0.997832 -0.0022596 0)
(0.995932 -0.00320019 0)
(0.993556 -0.000507497 0)
(0.991494 0.00171945 0)
(0.991752 0.00417351 0)
(0.991426 0.00585687 0)
(0.991441 0.0080056 0)
(0.990542 0.00953959 0)
(1.00217 -0.0142976 0)
(0.981676 -0.00660468 0)
(0.985507 0.0052041 0)
(1.00107 0.00541262 0)
(1.00207 -0.0109609 0)
(0.989164 -0.00960848 0)
(0.985095 0.000870914 0)
(0.991188 0.00563237 0)
(0.998369 0.0068557 0)
(1.00123 0.00542188 0)
(1.00272 0.000541916 0)
(1.00068 -0.00262116 0)
(0.997596 -0.00230231 0)
(0.995838 -0.00247548 0)
(0.993663 -0.000416128 0)
(0.99173 0.00237906 0)
(0.991935 0.00423136 0)
(0.991736 0.00635356 0)
(0.991737 0.00774021 0)
(0.99086 0.00934423 0)
(1.00226 -0.0139212 0)
(0.981998 -0.00661281 0)
(0.985403 0.00500506 0)
(1.00083 0.00496608 0)
(1.00212 -0.0104626 0)
(0.989738 -0.00930814 0)
(0.985616 0.000660388 0)
(0.991294 0.00547316 0)
(0.998324 0.00633263 0)
(1.00087 0.00524159 0)
(1.00226 0.000675389 0)
(1.0004 -0.00255401 0)
(0.997443 -0.00187632 0)
(0.995843 -0.00226645 0)
(0.993824 -0.000238145 0)
(0.991983 0.00234545 0)
(0.992123 0.00443437 0)
(0.991995 0.00619 0)
(0.99192 0.00776152 0)
(0.991123 0.00936761 0)
(1.00236 -0.0135104 0)
(0.982333 -0.00669151 0)
(0.985349 0.00487237 0)
(1.00057 0.00440957 0)
(1.00208 -0.00984146 0)
(0.990239 -0.00918362 0)
(0.986104 0.000619277 0)
(0.991397 0.00522088 0)
(0.998284 0.00597771 0)
(1.00058 0.00493943 0)
(1.00185 0.000932556 0)
(1.00023 -0.00264202 0)
(0.997342 -0.00132274 0)
(0.995841 -0.00206481 0)
(0.993999 -7.16407e-05 0)
(0.992305 0.00231653 0)
(0.992329 0.00468798 0)
(0.992287 0.00614228 0)
(0.992263 0.00782314 0)
(0.991373 0.00940938 0)
(1.00244 -0.0131464 0)
(0.982687 -0.00667183 0)
(0.985366 0.00460836 0)
(1.0003 0.00403907 0)
(1.00199 -0.00953157 0)
(0.990671 -0.00872795 0)
(0.986576 0.00025073 0)
(0.991493 0.00523983 0)
(0.998267 0.00527512 0)
(1.00034 0.00504478 0)
(1.00148 0.000746376 0)
(1.00008 -0.00198068 0)
(0.99733 -0.00174326 0)
(0.995897 -0.000937465 0)
(0.994237 0.00021135 0)
(0.992639 0.00310568 0)
(0.992588 0.00461347 0)
(0.992545 0.00678269 0)
(0.992522 0.00745988 0)
(0.991629 0.00903827 0)
(1.0025 -0.012743 0)
(0.983077 -0.00667303 0)
(0.985444 0.0043965 0)
(1.00003 0.00362617 0)
(1.00185 -0.00911561 0)
(0.991051 -0.00838176 0)
(0.987034 3.11608e-05 0)
(0.991601 0.00507039 0)
(0.998258 0.00488369 0)
(1.00015 0.00469642 0)
(1.00115 0.00103437 0)
(0.999932 -0.00205681 0)
(0.99739 -0.00118137 0)
(0.996042 -0.000949703 0)
(0.994501 0.0003546 0)
(0.992992 0.00291979 0)
(0.992897 0.00475302 0)
(0.992791 0.0065225 0)
(0.992676 0.00760607 0)
(0.991882 0.00911376 0)
(1.00252 -0.0122928 0)
(0.983512 -0.00678077 0)
(0.985581 0.00428598 0)
(0.999786 0.00307457 0)
(1.00166 -0.00858604 0)
(0.991405 -0.00821821 0)
(0.987471 4.23876e-05 0)
(0.991738 0.00471278 0)
(0.998231 0.00469035 0)
(1.00001 0.00417541 0)
(1.00081 0.00141149 0)
(0.999871 -0.00208786 0)
(0.997437 -0.000786692 0)
(0.99611 -0.000829362 0)
(0.994796 0.000659302 0)
(0.993407 0.00274393 0)
(0.993232 0.00498894 0)
(0.993135 0.00638364 0)
(0.993112 0.00780797 0)
(0.992152 0.00922346 0)
(1.00252 -0.0119442 0)
(0.983971 -0.00669317 0)
(0.985784 0.00395314 0)
(0.999547 0.00281444 0)
(1.00145 -0.00844651 0)
(0.99171 -0.00764647 0)
(0.987919 -0.000367927 0)
(0.991879 0.00477651 0)
(0.998217 0.00399 0)
(0.999867 0.00436173 0)
(1.00053 0.00103612 0)
(0.99973 -0.00135188 0)
(0.997554 -0.00106385 0)
(0.996284 0.000497965 0)
(0.995072 0.000857412 0)
(0.993794 0.00362022 0)
(0.993615 0.00485086 0)
(0.993439 0.00719305 0)
(0.99341 0.00740884 0)
(0.992432 0.00874644 0)
(1.00248 -0.0114806 0)
(0.984469 -0.00676389 0)
(0.98603 0.00380037 0)
(0.99932 0.0023894 0)
(1.00123 -0.00807676 0)
(0.992003 -0.0073451 0)
(0.988356 -0.000468617 0)
(0.992024 0.0044814 0)
(0.998212 0.00378278 0)
(0.999746 0.00389341 0)
(1.00023 0.00133951 0)
(0.999665 -0.00134736 0)
(0.997729 -0.00071505 0)
(0.996413 0.000297859 0)
(0.995383 0.00105663 0)
(0.994203 0.00336297 0)
(0.994049 0.00495058 0)
(0.993734 0.00694043 0)
(0.993542 0.00772041 0)
(0.99271 0.00895216 0)
(1.00242 -0.0110462 0)
(0.985002 -0.00682046 0)
(0.986307 0.00360635 0)
(0.999132 0.00196836 0)
(1.001 -0.00769205 0)
(0.992287 -0.00713332 0)
(0.988774 -0.00047002 0)
(0.992204 0.0040665 0)
(0.998173 0.00367593 0)
(0.999665 0.00332706 0)
(0.999969 0.00178161 0)
(0.999533 -0.00134349 0)
(0.997814 -0.000549602 0)
(0.996599 0.00017266 0)
(0.995664 0.00148558 0)
(0.99462 0.00308614 0)
(0.994475 0.00515075 0)
(0.994161 0.00669495 0)
(0.994019 0.00824318 0)
(0.992962 0.00934975 0)
(1.00236 -0.0106725 0)
(0.985535 -0.0067557 0)
(0.986634 0.00328098 0)
(0.99894 0.00179527 0)
(1.00078 -0.00762172 0)
(0.992553 -0.00663299 0)
(0.989198 -0.00073489 0)
(0.992372 0.00400349 0)
(0.998161 0.00318092 0)
(0.999583 0.00335221 0)
(0.999712 0.00166009 0)
(0.999414 -0.000780991 0)
(0.997972 -0.000446564 0)
(0.996784 0.000912556 0)
(0.995945 0.00159135 0)
(0.995006 0.00357775 0)
(0.994929 0.00492202 0)
(0.994597 0.00708368 0)
(0.994373 0.00792905 0)
(0.993199 0.00897237 0)
(1.00229 -0.0101801 0)
(0.986079 -0.00684721 0)
(0.986975 0.00313147 0)
(0.998758 0.00137073 0)
(1.00058 -0.00726252 0)
(0.992816 -0.0063943 0)
(0.989616 -0.000784105 0)
(0.992538 0.00375601 0)
(0.998146 0.00293538 0)
(0.999519 0.00304283 0)
(0.999494 0.0018825 0)
(0.99928 -0.000370578 0)
(0.998104 -0.000247639 0)
(0.996966 0.00112932 0)
(0.996225 0.00188475 0)
(0.995376 0.00370911 0)
(0.995394 0.00492395 0)
(0.995016 0.00691673 0)
(0.994644 0.0076896 0)
(0.993452 0.00870914 0)
(1.00221 -0.00977574 0)
(0.986633 -0.0068459 0)
(0.987326 0.00284651 0)
(0.998592 0.00113051 0)
(1.00038 -0.00702978 0)
(0.993077 -0.0061539 0)
(0.990025 -0.000813113 0)
(0.992706 0.00350384 0)
(0.998126 0.00269387 0)
(0.999487 0.00278461 0)
(0.999295 0.00207482 0)
(0.999138 -2.58498e-05 0)
(0.998228 -4.69775e-05 0)
(0.997175 0.0013251 0)
(0.996491 0.0022393 0)
(0.995718 0.00386123 0)
(0.995794 0.00494282 0)
(0.995416 0.00666369 0)
(0.99499 0.0075758 0)
(0.993713 0.00855411 0)
(1.00213 -0.00934908 0)
(0.987188 -0.00684131 0)
(0.987691 0.00257677 0)
(0.998424 0.00091181 0)
(1.00019 -0.00685653 0)
(0.993343 -0.0058411 0)
(0.990428 -0.000889848 0)
(0.992868 0.00328949 0)
(0.998111 0.00249535 0)
(0.99947 0.00254686 0)
(0.999132 0.00219205 0)
(0.998985 0.00039184 0)
(0.998338 0.000112116 0)
(0.997395 0.00153297 0)
(0.996768 0.00244891 0)
(0.996028 0.00408427 0)
(0.996169 0.00490468 0)
(0.995826 0.00652869 0)
(0.995308 0.0074057 0)
(0.993978 0.00833292 0)
(1.00205 -0.00888304 0)
(0.987748 -0.00689184 0)
(0.988056 0.002341 0)
(0.998266 0.000609811 0)
(1.00002 -0.00654599 0)
(0.993605 -0.0056559 0)
(0.990822 -0.000933605 0)
(0.993036 0.00309236 0)
(0.998086 0.00237222 0)
(0.999474 0.00224186 0)
(0.999003 0.00235424 0)
(0.998829 0.000735248 0)
(0.998432 0.000364847 0)
(0.997626 0.00166385 0)
(0.997053 0.00265332 0)
(0.996322 0.0042453 0)
(0.996493 0.00496055 0)
(0.996211 0.00633478 0)
(0.995646 0.00723189 0)
(0.994249 0.0081049 0)
(1.00196 -0.00847668 0)
(0.988306 -0.00688142 0)
(0.988431 0.00204539 0)
(0.998113 0.000443178 0)
(0.999858 -0.00632619 0)
(0.993865 -0.00547264 0)
(0.991221 -0.000960745 0)
(0.993201 0.00293042 0)
(0.998053 0.00221428 0)
(0.999493 0.00203459 0)
(0.998915 0.00239791 0)
(0.998673 0.00114113 0)
(0.998509 0.000565251 0)
(0.997853 0.0018213 0)
(0.997355 0.00272846 0)
(0.996613 0.0044341 0)
(0.996783 0.00501172 0)
(0.996576 0.0062385 0)
(0.995971 0.00705565 0)
(0.994526 0.00785265 0)
(1.00188 -0.00802967 0)
(0.988866 -0.00688965 0)
(0.988804 0.00179846 0)
(0.997964 0.000175929 0)
(0.999706 -0.00605702 0)
(0.994128 -0.00526734 0)
(0.991614 -0.000993652 0)
(0.993364 0.00271729 0)
(0.998013 0.00216007 0)
(0.999521 0.001812 0)
(0.998863 0.0024116 0)
(0.998524 0.00146682 0)
(0.998562 0.000830367 0)
(0.998072 0.00193368 0)
(0.997672 0.00281181 0)
(0.996917 0.00452687 0)
(0.997041 0.00512866 0)
(0.99691 0.00609039 0)
(0.996272 0.00687126 0)
(0.994801 0.00757142 0)
(1.0018 -0.00760091 0)
(0.989424 -0.00689334 0)
(0.989177 0.00150738 0)
(0.997827 -2.36416e-05 0)
(0.999563 -0.00576382 0)
(0.994381 -0.00511608 0)
(0.992002 -0.00105816 0)
(0.993535 0.00255064 0)
(0.997965 0.00212796 0)
(0.99955 0.00159144 0)
(0.99885 0.00235278 0)
(0.998398 0.00181101 0)
(0.9986 0.00112661 0)
(0.998279 0.00207827 0)
(0.997995 0.00288998 0)
(0.997242 0.00456882 0)
(0.997271 0.00527145 0)
(0.997197 0.00599729 0)
(0.996564 0.00673073 0)
(0.995073 0.00731557 0)
(1.00172 -0.0071801 0)
(0.989978 -0.00687852 0)
(0.989557 0.0012344 0)
(0.997697 -0.000226227 0)
(0.999424 -0.00552893 0)
(0.994627 -0.00492614 0)
(0.992392 -0.00109418 0)
(0.99371 0.0024206 0)
(0.997904 0.00209506 0)
(0.999574 0.00143686 0)
(0.998886 0.00228671 0)
(0.998297 0.0021556 0)
(0.998616 0.00137196 0)
(0.998465 0.00219754 0)
(0.998312 0.00291673 0)
(0.997592 0.00454085 0)
(0.997497 0.00537931 0)
(0.997451 0.00594186 0)
(0.996817 0.00660134 0)
(0.995337 0.00705024 0)
(1.00164 -0.00675438 0)
(0.99053 -0.00686587 0)
(0.989934 0.000963937 0)
(0.997577 -0.000446502 0)
(0.999301 -0.00525807 0)
(0.994866 -0.00472899 0)
(0.992774 -0.00115521 0)
(0.993889 0.00223111 0)
(0.997838 0.00207328 0)
(0.999596 0.00133063 0)
(0.998956 0.00218481 0)
(0.998214 0.00239471 0)
(0.998608 0.00161508 0)
(0.998637 0.00232069 0)
(0.998622 0.00300705 0)
(0.997972 0.00447747 0)
(0.997731 0.00548478 0)
(0.997668 0.00590603 0)
(0.997037 0.00650964 0)
(0.99558 0.0068104 0)
(1.00157 -0.0063454 0)
(0.991074 -0.00683512 0)
(0.990318 0.000680221 0)
(0.997472 -0.000636598 0)
(0.999181 -0.00501791 0)
(0.995088 -0.00453764 0)
(0.993147 -0.00121675 0)
(0.994076 0.00207309 0)
(0.997773 0.00207597 0)
(0.999604 0.00129174 0)
(0.999055 0.00201682 0)
(0.998171 0.00258877 0)
(0.9986 0.00191838 0)
(0.998804 0.00249297 0)
(0.998912 0.00314001 0)
(0.998363 0.00437404 0)
(0.997982 0.00552108 0)
(0.997863 0.00586457 0)
(0.997212 0.00643234 0)
(0.995796 0.00659702 0)
(1.00149 -0.00593723 0)
(0.991611 -0.00680226 0)
(0.9907 0.00041444 0)
(0.997375 -0.000838972 0)
(0.999077 -0.00480025 0)
(0.995307 -0.00431773 0)
(0.993514 -0.00124737 0)
(0.994273 0.00191493 0)
(0.997709 0.00208119 0)
(0.999592 0.00127486 0)
(0.999174 0.00184947 0)
(0.998174 0.0027335 0)
(0.998583 0.00224093 0)
(0.998947 0.00260403 0)
(0.999162 0.00324728 0)
(0.998749 0.00422065 0)
(0.998254 0.00549762 0)
(0.998051 0.0058257 0)
(0.997363 0.00639389 0)
(0.995978 0.00645897 0)
(1.00142 -0.00554229 0)
(0.992137 -0.00675754 0)
(0.991088 0.00013671 0)
(0.997293 -0.00100652 0)
(0.998983 -0.00459755 0)
(0.995512 -0.00409647 0)
(0.993866 -0.0012882 0)
(0.994473 0.00173879 0)
(0.99765 0.00205458 0)
(0.999563 0.00128839 0)
(0.999312 0.001712 0)
(0.998229 0.00282157 0)
(0.998561 0.00254165 0)
(0.999072 0.0026993 0)
(0.999391 0.00338305 0)
(0.999136 0.00413146 0)
(0.99857 0.00547926 0)
(0.998258 0.00581009 0)
(0.997502 0.00637711 0)
(0.996128 0.00637498 0)
(1.00134 -0.00515064 0)
(0.992653 -0.00669143 0)
(0.991475 -0.000125291 0)
(0.997221 -0.00118286 0)
(0.998903 -0.00442752 0)
(0.995713 -0.00387402 0)
(0.994209 -0.00129201 0)
(0.994682 0.00159022 0)
(0.997602 0.00204756 0)
(0.999522 0.00134881 0)
(0.999452 0.00161586 0)
(0.998326 0.00280883 0)
(0.998536 0.00281041 0)
(0.999182 0.00278415 0)
(0.999597 0.00351088 0)
(0.999502 0.00406828 0)
(0.998893 0.00538713 0)
(0.998461 0.00574627 0)
(0.997628 0.00630321 0)
(0.996238 0.00629966 0)
(1.00127 -0.00478821 0)
(0.993155 -0.00661704 0)
(0.991864 -0.00040279 0)
(0.997161 -0.00131515 0)
(0.998833 -0.00428651 0)
(0.995905 -0.00360448 0)
(0.994535 -0.00130972 0)
(0.994893 0.00143344 0)
(0.997563 0.00200972 0)
(0.999465 0.00141358 0)
(0.999581 0.00153844 0)
(0.998467 0.00272123 0)
(0.998526 0.00305289 0)
(0.999276 0.00288638 0)
(0.999788 0.00362482 0)
(0.999838 0.00402964 0)
(0.999234 0.00526115 0)
(0.998692 0.00569095 0)
(0.997771 0.00622138 0)
(0.996346 0.00628642 0)
(1.0012 -0.00441218 0)
(0.993644 -0.00654034 0)
(0.99225 -0.000643204 0)
(0.997108 -0.00151259 0)
(0.998783 -0.00413811 0)
(0.996099 -0.00345069 0)
(0.994844 -0.00123663 0)
(0.99511 0.0013248 0)
(0.997538 0.00198152 0)
(0.999404 0.00150096 0)
(0.999695 0.00152539 0)
(0.998648 0.00261975 0)
(0.998541 0.00328369 0)
(0.999354 0.00304329 0)
(0.999956 0.00371818 0)
(1.00014 0.0040286 0)
(0.999577 0.00512845 0)
(0.998929 0.00562937 0)
(0.997932 0.00612813 0)
(0.996441 0.00628256 0)
(1.00113 -0.00406303 0)
(0.994116 -0.00644497 0)
(0.992638 -0.00089367 0)
(0.997073 -0.00165154 0)
(0.998737 -0.00401508 0)
(0.996291 -0.00328307 0)
(0.995156 -0.00111204 0)
(0.995322 0.00123051 0)
(0.997527 0.00194138 0)
(0.999338 0.00156023 0)
(0.999786 0.00154825 0)
(0.99886 0.00250164 0)
(0.998591 0.00344794 0)
(0.999407 0.00319747 0)
(1.0001 0.00376589 0)
(1.00041 0.00405735 0)
(0.999921 0.00499034 0)
(0.999194 0.00558944 0)
(0.998124 0.00604877 0)
(0.996548 0.00629464 0)
(1.00107 -0.00373709 0)
(0.99457 -0.00632147 0)
(0.99303 -0.0011429 0)
(0.997045 -0.00174878 0)
(0.998702 -0.00394042 0)
(0.996484 -0.00303232 0)
(0.995446 -0.00106468 0)
(0.995534 0.00111718 0)
(0.99753 0.00189219 0)
(0.999281 0.00161552 0)
(0.999861 0.0016245 0)
(0.99909 0.00238244 0)
(0.998672 0.00351381 0)
(0.99944 0.00335157 0)
(1.00023 0.0038116 0)
(1.00064 0.00410352 0)
(1.00026 0.00485785 0)
(0.999471 0.0055278 0)
(0.998328 0.00593364 0)
(0.996651 0.00625683 0)
(1.001 -0.00340475 0)
(0.995009 -0.00619512 0)
(0.993417 -0.00136406 0)
(0.997026 -0.00186544 0)
(0.998682 -0.00381335 0)
(0.996677 -0.0028664 0)
(0.995724 -0.00102031 0)