/*--------------------------------*- C++ -*----------------------------------*\
| =========                 |                                                 |
| \\      /  F ield         | OpenFOAM: The Open Source CFD Toolbox           |
|  \\    /   O peration     | Version:  v2012                                 |
|   \\  /    A nd           | Website:  www.openfoam.com                      |
|    \\/     M anipulation  |                                                 |
\*---------------------------------------------------------------------------*/
FoamFile
{
    version     2.0;
    format      ascii;
    class       volVectorField;
    location    "8.1";
    object      U;
}
// * * * * * * * * * * * * * * * * * * * * * * * * * * * * * * * * * * * * * //

dimensions      [0 1 -1 0 0 0 0];


internalField   nonuniform List<vector> 
7000
(
(0.920803 -0.00428051 0)
(1.06738 0.0169527 0)
(0.895177 -0.0118676 0)
(1.00468 -0.0238407 0)
(0.994688 -0.0260599 0)
(1.14382 -0.00758095 0)
(0.98392 -0.000350297 0)
(1.08898 0.0177453 0)
(1.06866 0.0134081 0)
(1.06762 0.0165774 0)
(1.07441 0.0141633 0)
(1.06065 -0.00024302 0)
(1.06448 0.0120147 0)
(1.07054 -0.00787273 0)
(1.01944 0.00284536 0)
(1.07217 -0.0172565 0)
(0.956693 -0.00553375 0)
(1.0738 -0.0257517 0)
(0.889896 -0.0127806 0)
(1.07376 -0.0304494 0)
(0.927855 -0.00427078 0)
(1.06202 0.0170669 0)
(0.918852 -0.0115358 0)
(0.986278 -0.0244736 0)
(0.991462 -0.0272674 0)
(1.13351 -0.00746197 0)
(0.989238 0.000104547 0)
(1.08517 0.0172167 0)
(1.07369 0.0135566 0)
(1.06438 0.0165135 0)
(1.08002 0.0143016 0)
(1.05348 -0.000126343 0)
(1.07525 0.0117782 0)
(1.05261 -0.00704369 0)
(1.04593 0.00277649 0)
(1.03505 -0.0157654 0)
(1.00881 -0.00548348 0)
(1.01546 -0.0241424 0)
(0.969013 -0.0117655 0)
(0.998429 -0.0296487 0)
(0.940338 -0.00425895 0)
(1.05158 0.0171936 0)
(0.942181 -0.0111806 0)
(0.968691 -0.0248134 0)
(0.98987 -0.0282192 0)
(1.11398 -0.00736804 0)
(1.0013 0.000442942 0)
(1.07643 0.0163725 0)
(1.08064 0.0137977 0)
(1.06224 0.0164069 0)
(1.08277 0.0145247 0)
(1.05205 -0.00012668 0)
(1.07654 0.0119134 0)
(1.05075 -0.00659847 0)
(1.05102 0.00338123 0)
(1.03145 -0.0150545 0)
(1.02338 -0.00487011 0)
(1.00803 -0.0229871 0)
(0.995828 -0.011475 0)
(0.985324 -0.0273059 0)
(0.955824 -0.00424671 0)
(1.03771 0.0172309 0)
(0.961944 -0.0107739 0)
(0.955618 -0.0250627 0)
(0.988381 -0.0291474 0)
(1.08775 -0.00744876 0)
(1.01647 0.000641355 0)
(1.06632 0.0155982 0)
(1.08421 0.0139486 0)
(1.06359 0.0163464 0)
(1.08159 0.0147163 0)
(1.05401 -5.78929e-05 0)
(1.07216 0.0120403 0)
(1.0523 -0.00619093 0)
(1.04798 0.00395384 0)
(1.03213 -0.0146628 0)
(1.02418 -0.00380498 0)
(1.00704 -0.0225756 0)
(1.00025 -0.0102613 0)
(0.982695 -0.0257475 0)
(0.971407 -0.00423202 0)
(1.02318 0.017215 0)
(0.977505 -0.0103522 0)
(0.949545 -0.0252066 0)
(0.98571 -0.0299631 0)
(1.05982 -0.00771675 0)
(1.02914 0.000720415 0)
(1.05922 0.0149796 0)
(1.08364 0.0139554 0)
(1.06687 0.0163386 0)
(1.07963 0.0149149 0)
(1.05591 8.6021e-05 0)
(1.06701 0.0121062 0)
(1.05349 -0.00573141 0)
(1.04331 0.00446268 0)
(1.0333 -0.0141542 0)
(1.02123 -0.0028543 0)
(1.00836 -0.0220819 0)
(0.998587 -0.00890913 0)
(0.984321 -0.0244832 0)
(0.984553 -0.00421429 0)
(1.01087 0.0171894 0)
(0.989615 -0.00995728 0)
(0.950233 -0.0252524 0)
(0.982073 -0.0306285 0)
(1.03483 -0.00812956 0)
(1.03626 0.000646822 0)
(1.05643 0.0144586 0)
(1.08165 0.013865 0)
(1.07022 0.0163391 0)
(1.07892 0.0151571 0)
(1.05679 0.000283422 0)
(1.06307 0.0121915 0)
(1.05313 -0.00526534 0)
(1.03971 0.0049951 0)
(1.03271 -0.0136449 0)
(1.01869 -0.00198315 0)
(1.00843 -0.0214676 0)
(0.99664 -0.00769384 0)
(0.985407 -0.0232837 0)
(0.993762 -0.00419498 0)
(1.00271 0.0171581 0)
(0.999521 -0.00961228 0)
(0.955516 -0.0252039 0)
(0.978786 -0.0311226 0)
(1.01495 -0.00863985 0)
(1.03839 0.000385264 0)
(1.05656 0.0139713 0)
(1.08061 0.0137282 0)
(1.07312 0.0163165 0)
(1.07955 0.0154515 0)
(1.05695 0.000546591 0)
(1.06003 0.0123079 0)
(1.05138 -0.00478498 0)
(1.03686 0.00555322 0)
(1.03064 -0.0131434 0)
(1.01683 -0.00113315 0)
(1.00735 -0.0207605 0)
(0.995536 -0.0066221 0)
(0.985634 -0.0220445 0)
(0.998788 -0.00417773 0)
(0.999042 0.0171079 0)
(1.00813 -0.0093199 0)
(0.962931 -0.0250739 0)
(0.976909 -0.031449 0)
(1.00005 -0.00921726 0)
(1.03777 -5.7531e-05 0)
(1.05778 0.0134666 0)
(1.08102 0.0135672 0)
(1.07567 0.0162685 0)
(1.08066 0.0158078 0)
(1.05661 0.000887843 0)
(1.05688 0.0124711 0)
(1.04848 -0.00428702 0)
(1.03393 0.00612837 0)
(1.02759 -0.0126377 0)
(1.01503 -0.00031532 0)
(1.00565 -0.0199901 0)
(0.994841 -0.00567385 0)
(0.985408 -0.0207653 0)
(1.00041 -0.00416581 0)
(0.998887 0.0170237 0)
(1.01563 -0.00906992 0)
(0.970783 -0.0248761 0)
(0.976477 -0.0316244 0)
(0.989063 -0.00983836 0)
(1.03626 -0.000653884 0)
(1.05903 0.0129102 0)
(1.08212 0.0133884 0)
(1.07772 0.0162101 0)
(1.08123 0.0162351 0)
(1.05557 0.00132257 0)
(1.05286 0.0126993 0)
(1.0445 -0.00377492 0)
(1.03044 0.0067089 0)
(1.02391 -0.0121194 0)
(1.01292 0.000426459 0)
(1.00368 -0.0191669 0)
(0.99411 -0.00483691 0)
(0.985055 -0.0194641 0)
(0.999946 -0.00416006 0)
(1.00057 0.0168952 0)
(1.02163 -0.00885137 0)
(0.97824 -0.0246221 0)
(0.976845 -0.0316648 0)
(0.980858 -0.0104855 0)
(1.03442 -0.00137948 0)
(1.05975 0.0122898 0)
(1.08278 0.0131985 0)
(1.07861 0.0161605 0)
(1.08028 0.0167395 0)
(1.05342 0.00186046 0)
(1.04761 0.0129995 0)
(1.0395 -0.00325788 0)
(1.02636 0.0072764 0)
(1.01978 -0.0115885 0)
(1.01045 0.00108283 0)
(1.00162 -0.0182936 0)
(0.993209 -0.00411032 0)
(0.984687 -0.0181613 0)
(0.998686 -0.00415883 0)
(1.0025 0.0167208 0)
(1.02564 -0.00865848 0)
(0.98493 -0.0243223 0)
(0.977442 -0.0315797 0)
(0.974575 -0.0111431 0)
(1.03164 -0.0022103 0)
(1.05914 0.0116096 0)
(1.08167 0.0130091 0)
(1.07732 0.0161349 0)
(1.07699 0.0173192 0)
(1.04971 0.00249627 0)
(1.04111 0.0133655 0)
(1.0336 -0.00275259 0)
(1.02188 0.00780536 0)
(1.0154 -0.0110444 0)
(1.0078 0.00163292 0)
(0.999548 -0.0173755 0)
(0.992182 -0.00349661 0)
(0.984327 -0.0168737 0)
(0.997519 -0.00415885 0)
(1.00368 0.0165087 0)
(1.02747 -0.00849102 0)
(0.990596 -0.0239892 0)
(0.978132 -0.0313774 0)
(0.969655 -0.0117859 0)
(1.02681 -0.0031112 0)
(1.05594 0.0108824 0)
(1.0774 0.0128332 0)
(1.07279 0.016139 0)
(1.07079 0.0179587 0)
(1.04425 0.00320672 0)
(1.03362 0.0137748 0)
(1.02711 -0.00227472 0)
(1.01728 0.00826073 0)
(1.01099 -0.0104911 0)
(1.00516 0.0020396 0)
(0.997536 -0.0164223 0)
(0.991116 -0.00299343 0)
(0.983982 -0.0156128 0)
(0.996812 -0.00415634 0)
(1.00385 0.0162731 0)
(1.02738 -0.00835068 0)
(0.995042 -0.0236391 0)
(0.97903 -0.0310707 0)
(0.965919 -0.0123783 0)
(1.01929 -0.00403151 0)
(1.0489 0.0101274 0)
(1.06889 0.012679 0)
(1.06436 0.0161638 0)
(1.06161 0.0186217 0)
(1.03721 0.00394953 0)
(1.02565 0.0141965 0)
(1.02046 -0.00184636 0)
(1.01284 0.00862574 0)
(1.0068 -0.00992113 0)
(1.00268 0.00230203 0)
(0.995659 -0.015444 0)
(0.990077 -0.00259035 0)
(0.983659 -0.0143849 0)
(0.996532 -0.00414831 0)
(1.00329 0.0160276 0)
(1.02594 -0.00823627 0)
(0.998218 -0.0232911 0)
(0.980164 -0.0306783 0)
(0.963505 -0.0128805 0)
(1.00952 -0.00490431 0)
(1.03773 0.0093714 0)
(1.05603 0.0125462 0)
(1.05224 0.0161814 0)
(1.05002 0.0192576 0)
(1.02915 0.00466705 0)
(1.01782 0.0145883 0)
(1.01413 -0.0014797 0)
(1.0088 0.00888037 0)
(1.00308 -0.00933024 0)
(1.00046 0.00242905 0)
(0.993976 -0.0144529 0)
(0.989117 -0.00227358 0)
(0.983363 -0.0131938 0)
(0.996463 -0.00413349 0)
(1.00252 0.0157819 0)
(1.02386 -0.00814264 0)
(1.00026 -0.0229593 0)
(0.981357 -0.0302253 0)
(0.962619 -0.0132637 0)
(0.99891 -0.00565772 0)
(1.02359 0.00864762 0)
(1.04005 0.0124267 0)
(1.03768 0.0161543 0)
(1.03723 0.0198073 0)
(1.02088 0.00530401 0)
(1.01076 0.014908 0)
(1.00856 -0.00116687 0)
(1.00532 0.00899609 0)
(0.999954 -0.00872365 0)
(0.998547 0.00244297 0)
(0.992529 -0.0134594 0)
(0.98827 -0.00203034 0)
(0.983099 -0.0120444 0)
(0.996404 -0.00411229 0)
(1.00195 0.0155406 0)
(1.02171 -0.00806254 0)
(1.00142 -0.0226477 0)
(0.982355 -0.0297399 0)
(0.963247 -0.0135224 0)
(0.989179 -0.00623923 0)
(1.00868 0.00798615 0)
(1.02322 0.0123116 0)
(1.02267 0.0160469 0)
(1.02476 0.0202235 0)
(1.01326 0.00582178 0)
(1.00497 0.0151264 0)
(1.00401 -0.000894436 0)
(1.0025 0.00897627 0)
(0.997496 -0.0080986 0)
(0.99695 0.00236461 0)
(0.991335 -0.0124666 0)
(0.987567 -0.00184454 0)
(0.982877 -0.0109428 0)
(0.996257 -0.00408624 0)
(1.00177 0.0153032 0)
(1.01987 -0.00798748 0)
(1.00199 -0.0223541 0)
(0.98298 -0.029244 0)
(0.965058 -0.01367 0)
(0.981575 -0.0066315 0)
(0.995319 0.00740505 0)
(1.00796 0.012195 0)
(1.0092 0.0158377 0)
(1.01395 0.0204871 0)
(1.00694 0.00620495 0)
(1.00066 0.0152258 0)
(1.00057 -0.000634696 0)
(1.00031 0.0088399 0)
(0.995675 -0.00745762 0)
(0.995662 0.00221782 0)
(0.990402 -0.0114775 0)
(0.987031 -0.00169163 0)
(0.982716 -0.00989128 0)
(0.996038 -0.00405716 0)
(1.00194 0.0150663 0)
(1.01848 -0.00790924 0)
(1.0022 -0.0220726 0)
(0.98321 -0.0287521 0)
(0.967515 -0.0137375 0)
(0.976555 -0.00683379 0)
(0.985091 0.00690898 0)
(0.99596 0.0120765 0)
(0.998615 0.0155315 0)
(1.0056 0.0205965 0)
(1.0022 0.00646704 0)
(0.997784 0.0152056 0)
(0.998127 -0.000361213 0)
(0.998695 0.00860935 0)
(0.994411 -0.00679826 0)
(0.994666 0.00203738 0)
(0.989733 -0.0105097 0)
(0.986675 -0.00154993 0)
(0.982645 -0.00888472 0)
(0.995816 -0.00402643 0)
(1.00229 0.0148256 0)
(1.01753 -0.00782224 0)
(1.00221 -0.0217958 0)
(0.983144 -0.0282708 0)
(0.970082 -0.0137566 0)
(0.97388 -0.00687608 0)
(0.978452 0.00648708 0)
(0.98783 0.0119623 0)
(0.991324 0.0151468 0)
(0.999854 0.0205714 0)
(0.998963 0.0066467 0)
(0.996104 0.0150754 0)
(0.996497 -6.10022e-05 0)
(0.997564 0.00829983 0)
(0.993606 -0.00610883 0)
(0.993942 0.0018174 0)
(0.989325 -0.00959388 0)
(0.986502 -0.00142355 0)
(0.982695 -0.00792318 0)
(0.995664 -0.00399474 0)
(1.00263 0.0145778 0)
(1.01691 -0.00772389 0)
(1.00213 -0.0215174 0)
(0.982927 -0.0278004 0)
(0.972378 -0.0137521 0)
(0.972953 -0.0068104 0)
(0.974947 0.00611962 0)
(0.983175 0.0118571 0)
(0.986943 0.0147141 0)
(0.996335 0.0204441 0)
(0.996941 0.00678293 0)
(0.995295 0.014852 0)
(0.995468 0.000269368 0)
(0.99683 0.00792689 0)
(0.993164 -0.00540368 0)
(0.993465 0.00160069 0)
(0.989172 -0.00871069 0)
(0.986505 -0.00131741 0)
(0.982891 -0.00701907 0)
(0.995622 -0.00396199 0)
(1.00284 0.0143205 0)
(1.01651 -0.00761329 0)
(1.00203 -0.0212337 0)
(0.982688 -0.0273372 0)
(0.97422 -0.0137457 0)
(0.973128 -0.00667141 0)
(0.973677 0.0057853 0)
(0.981077 0.0117616 0)
(0.984682 0.0142691 0)
(0.994444 0.020242 0)
(0.995771 0.00690459 0)
(0.995051 0.0145484 0)
(0.994872 0.000653333 0)
(0.996416 0.00750512 0)
(0.993017 -0.00473725 0)
(0.993212 0.00142512 0)
(0.98925 -0.00782498 0)
(0.986665 -0.00119822 0)
(0.983245 -0.00616994 0)
(0.99569 -0.00392757 0)
(1.00287 0.0140525 0)
(1.01621 -0.00749162 0)
(1.00195 -0.0209432 0)
(0.982521 -0.0268758 0)
(0.975582 -0.0137496 0)
(0.973884 -0.00649072 0)
(0.973729 0.0054727 0)
(0.980553 0.0116732 0)
(0.98372 0.0138281 0)
(0.993581 0.0199817 0)
(0.995137 0.0070453 0)
(0.995139 0.0141795 0)
(0.994595 0.00108955 0)
(0.996253 0.00708607 0)
(0.993113 -0.00409586 0)
(0.993159 0.00126002 0)
(0.989535 -0.00697458 0)
(0.986956 -0.00104881 0)
(0.983747 -0.00535366 0)
(0.995846 -0.00389068 0)
(1.00274 0.0137739 0)
(1.01592 -0.00736056 0)
(1.00191 -0.0206465 0)
(0.982479 -0.0264105 0)
(0.976536 -0.0137671 0)
(0.974862 -0.00629316 0)
(0.974399 0.00517019 0)
(0.980821 0.0115985 0)
(0.983429 0.0134079 0)
(0.993284 0.0196546 0)
(0.994816 0.00722697 0)
(0.995397 0.0137566 0)
(0.994571 0.00154987 0)
(0.996285 0.00665988 0)
(0.993401 -0.00344922 0)
(0.993268 0.00111633 0)
(0.989988 -0.00618722 0)
(0.987357 -0.000901322 0)
(0.984375 -0.0045787 0)
(0.996052 -0.00385051 0)
(1.00249 0.0134847 0)
(1.01559 -0.00722107 0)
(1.00194 -0.0203464 0)
(0.982585 -0.0259359 0)
(0.977188 -0.0137999 0)
(0.975844 -0.00608666 0)
(0.975235 0.0048636 0)
(0.981376 0.0115313 0)
(0.983419 0.0130297 0)
(0.993245 0.0192668 0)
(0.994677 0.00742502 0)
(0.99572 0.0132972 0)
(0.994746 0.00202737 0)
(0.996456 0.00621867 0)
(0.993842 -0.00281942 0)
(0.993499 0.00101909 0)
(0.990565 -0.00542563 0)
(0.987843 -0.000738969 0)
(0.985101 -0.00384862 0)
(0.996271 -0.00380617 0)
(1.0022 0.0131851 0)
(1.01517 -0.00707587 0)
(1.00201 -0.0200448 0)
(0.982842 -0.0254474 0)
(0.977644 -0.0138492 0)
(0.976713 -0.00587633 0)
(0.975992 0.00456608 0)
(0.981936 0.0114399 0)
(0.983501 0.0126964 0)
(0.993283 0.0188278 0)
(0.994655 0.00765628 0)
(0.996047 0.0127951 0)
(0.995069 0.00251001 0)
(0.996717 0.00581237 0)
(0.99439 -0.00222259 0)
(0.993818 0.000960343 0)
(0.991222 -0.00471381 0)
(0.988386 -0.000564311 0)
(0.985886 -0.00313756 0)
(0.996474 -0.00375738 0)
(1.0019 0.0128769 0)
(1.01467 -0.00692785 0)
(1.00214 -0.0197429 0)
(0.983236 -0.0249447 0)
(0.977984 -0.0139011 0)
(0.97741 -0.00568409 0)
(0.976557 0.00429254 0)
(0.982362 0.0113269 0)
(0.983607 0.0124114 0)
(0.993307 0.018321 0)
(0.994717 0.0079251 0)
(0.996336 0.0122579 0)
(0.995492 0.00296538 0)
(0.99702 0.00545113 0)
(0.994996 -0.00165096 0)
(0.994185 0.000974752 0)
(0.991913 -0.00401894 0)
(0.98897 -0.000429562 0)
(0.9867 -0.00248771 0)
(0.996645 -0.00370431 0)
(1.00163 0.0125611 0)
(1.0141 -0.00677415 0)
(1.00228 -0.0194453 0)
(0.983746 -0.0244289 0)
(0.978258 -0.0139435 0)
(0.977912 -0.00549852 0)
(0.976908 0.00402363 0)
(0.982595 0.0111834 0)
(0.983722 0.0121944 0)
(0.993278 0.0177658 0)
(0.994848 0.00816555 0)
(0.996568 0.0117428 0)
(0.995967 0.00337283 0)
(0.997329 0.00513491 0)
(0.995621 -0.00115796 0)
(0.994574 0.00105626 0)
(0.992589 -0.00325699 0)
(0.989561 -0.000247391 0)
(0.987512 -0.00189059 0)
(0.996778 -0.00364517 0)
(1.0014 0.0122337 0)
(1.0135 -0.0066133 0)
(1.00241 -0.0191602 0)
(0.984341 -0.0238844 0)
(0.978486 -0.0140026 0)
(0.978211 -0.00529548 0)
(0.977063 0.00377083 0)
(0.982626 0.0110009 0)
(0.983853 0.0119681 0)
(0.993188 0.0172239 0)
(0.995032 0.0083847 0)
(0.996739 0.0112224 0)
(0.996447 0.00372608 0)
(0.99761 0.00491154 0)
(0.996226 -0.000664543 0)
(0.994974 0.00101482 0)
(0.993235 -0.00267988 0)
(0.990152 0.000163569 0)
(0.9883 -0.00121812 0)
(0.996875 -0.00358152 0)
(1.00122 0.0119006 0)
(1.0129 -0.00645475 0)
(1.00253 -0.0188785 0)
(0.984983 -0.0233273 0)
(0.978677 -0.0140334 0)
(0.97832 -0.00513676 0)
(0.977068 0.0035736 0)
(0.982477 0.0107848 0)
(0.984003 0.01178 0)
(0.993048 0.0165755 0)
(0.995252 0.00864451 0)
(0.996846 0.0106849 0)
(0.996908 0.00402223 0)
(0.997861 0.0046578 0)
(0.996747 -8.43919e-05 0)
(0.995331 0.00108168 0)
(0.99386 -0.00214968 0)
(0.990734 0.000409919 0)
(0.988975 -0.000624269 0)
(0.996944 -0.00351488 0)
(1.00109 0.0115633 0)
(1.01233 -0.00628939 0)
(1.00259 -0.0185994 0)
(0.985629 -0.0227718 0)
(0.978839 -0.0140109 0)
(0.978263 -0.00499621 0)
(0.976988 0.0034152 0)
(0.982203 0.0104505 0)
(0.984166 0.0117021 0)
(0.992875 0.0158624 0)
(0.995495 0.00881937 0)
(0.996895 0.0102037 0)
(0.997306 0.0043676 0)
(0.998075 0.00436275 0)
(0.997211 0.000453579 0)
(0.995651 0.00130313 0)
(0.994365 -0.00131158 0)
(0.991281 0.000150915 0)
(0.989623 -0.000245917 0)
(0.996992 -0.00343611 0)
(1.00099 0.0112018 0)
(1.01181 -0.00610719 0)
(1.00261 -0.0183543 0)
(0.986236 -0.0221524 0)
(0.978998 -0.0140276 0)
(0.978077 -0.00482587 0)
(0.976885 0.00326291 0)
(0.981871 0.0101366 0)
(0.984356 0.0114522 0)
(0.992682 0.015315 0)
(0.995735 0.00889341 0)
(0.996915 0.00975814 0)
(0.997626 0.00457419 0)
(0.998234 0.00427125 0)
(0.997587 0.000728121 0)
(0.995954 0.00140275 0)
(0.99473 -0.000950123 0)
(0.991778 0.000806962 0)
(0.990291 0.00046202 0)
(0.997029 -0.00336496 0)
(1.00092 0.0108592 0)
(1.01137 -0.00595308 0)
(1.00258 -0.0180564 0)
(0.986775 -0.0216021 0)
(0.979171 -0.0139066 0)
(0.977826 -0.0047724 0)
(0.976815 0.00319983 0)
(0.981545 0.00972643 0)
(0.984576 0.011331 0)
(0.9925 0.0145804 0)
(0.995947 0.00900221 0)
(0.996888 0.00944586 0)
(0.997867 0.00462798 0)
(0.998337 0.0041576 0)
(0.997846 0.00110345 0)
(0.996157 0.0015893 0)
(0.99513 -0.000382523 0)
(0.992271 0.000879364 0)
(0.990675 0.000865251 0)
(0.997065 -0.00328004 0)
(1.00088 0.0104799 0)
(1.01099 -0.00574727 0)
(1.0025 -0.0178192 0)
(0.987231 -0.0209747 0)
(0.979374 -0.0138172 0)
(0.977577 -0.00466445 0)
(0.976799 0.00306392 0)
(0.981306 0.00938204 0)
(0.984819 0.011089 0)
(0.992328 0.0140265 0)
(0.996149 0.00883942 0)
(0.996827 0.00925832 0)
(0.997994 0.00468158 0)
(0.998408 0.00416653 0)
(0.998039 0.00121164 0)
(0.996371 0.00179849 0)
(0.995284 0.000134461 0)
(0.99265 0.00122647 0)
(0.991243 0.00140832 0)
(0.997107 -0.00318069 0)
(1.00085 0.0100764 0)
(1.01066 -0.00554759 0)
(1.00238 -0.0175823 0)
(0.987598 -0.0203208 0)
(0.979621 -0.0137297 0)
(0.977393 -0.00455849 0)
(0.976869 0.00298166 0)
(0.981166 0.00897076 0)
(0.985095 0.0107976 0)
(0.992193 0.0135486 0)
(0.996281 0.00872199 0)
(0.996754 0.0088479 0)
(0.998046 0.00480132 0)
(0.998384 0.00401979 0)
(0.998117 0.00148931 0)
(0.996497 0.00201976 0)
(0.995541 0.000377215 0)
(0.993052 0.00208836 0)
(0.991472 0.00210195 0)
(0.997156 -0.0031109 0)
(1.00084 0.00973835 0)
(1.01036 -0.00540918 0)
(1.00223 -0.0172139 0)
(0.98789 -0.0198394 0)
(0.979921 -0.0133599 0)
(0.97732 -0.00467301 0)
(0.977005 0.00311816 0)
(0.98116 0.00828225 0)
(0.985391 0.0108498 0)
(0.992081 0.0125977 0)
(0.996365 0.00892849 0)
(0.996664 0.0082689 0)
(0.997993 0.00513187 0)
(0.998362 0.00379839 0)
(0.998174 0.00234375 0)
(0.996558 0.00229049 0)
(0.995646 0.001338 0)
(0.993346 0.00116827 0)
(0.99175 0.00181543 0)
(0.997214 -0.00300129 0)
(1.00082 0.00929433 0)
(1.01007 -0.00513821 0)
(1.00208 -0.0170229 0)
(0.988114 -0.0191269 0)
(0.980275 -0.0132294 0)
(0.977376 -0.00459033 0)
(0.977229 0.00293766 0)
(0.981258 0.0080512 0)
(0.985681 0.0102865 0)
(0.992009 0.0122998 0)
(0.996395 0.0084931 0)
(0.996573 0.00823617 0)
(0.997907 0.00507041 0)
(0.998308 0.00393316 0)
(0.998181 0.00234071 0)
(0.996622 0.00255192 0)
(0.995573 0.0015128 0)
(0.993508 0.0019807 0)
(0.992196 0.00250275 0)
(0.997282 -0.00289157 0)
(1.00081 0.00886127 0)
(1.00978 -0.00493241 0)
(1.00192 -0.0167367 0)
(0.988306 -0.0185362 0)
(0.980673 -0.0130023 0)
(0.977574 -0.00451846 0)
(0.977521 0.00279401 0)
(0.981433 0.00764304 0)
(0.985996 0.00984845 0)
(0.991956 0.0119802 0)
(0.996377 0.00813241 0)
(0.996473 0.00815184 0)
(0.997739 0.00504767 0)
(0.998195 0.00393609 0)
(0.998156 0.00228406 0)
(0.996599 0.00268744 0)
(0.995699 0.00164548 0)
(0.993796 0.00298904 0)
(0.992243 0.00324469 0)
(0.99736 -0.00281809 0)
(1.00079 0.00852412 0)
(1.00947 -0.00482181 0)
(1.00175 -0.0162762 0)
(0.988496 -0.0181202 0)
(0.981096 -0.0124639 0)
(0.977913 -0.00479604 0)
(0.977857 0.00304453 0)
(0.981695 0.00689627 0)
(0.986284 0.00989222 0)
(0.991925 0.0109419 0)
(0.996336 0.0085162 0)
(0.996376 0.00728791 0)
(0.997554 0.00560081 0)
(0.998067 0.00404247 0)
(0.998105 0.00311828 0)
(0.996608 0.00286501 0)
(0.995725 0.00267062 0)
(0.99396 0.00183141 0)
(0.992432 0.00246668 0)
(0.997439 -0.00269439 0)
(1.00078 0.00803343 0)
(1.00913 -0.0045053 0)
(1.00159 -0.0160612 0)
(0.988678 -0.0174238 0)
(0.981554 -0.0122857 0)
(0.978358 -0.00467068 0)
(0.978254 0.0027513 0)
(0.981986 0.00676001 0)
(0.986555 0.00912372 0)
(0.991935 0.0108458 0)
(0.996236 0.00792409 0)
(0.9963 0.00747449 0)
(0.997434 0.00533901 0)
(0.997946 0.00407091 0)
(0.998039 0.00299093 0)
(0.996633 0.00312403 0)
(0.995553 0.00270998 0)
(0.99392 0.00276763 0)
(0.992796 0.00328756 0)
(0.997525 -0.00256684 0)
(1.00076 0.0075664 0)
(1.00877 -0.0043096 0)
(1.00142 -0.0156954 0)
(0.988885 -0.0168794 0)
(0.982027 -0.0119699 0)
(0.978873 -0.0046303 0)
(0.978705 0.00247089 0)
(0.982298 0.00657008 0)
(0.986854 0.00847875 0)
(0.991936 0.0106324 0)
(0.996161 0.00744987 0)
(0.996204 0.00744427 0)
(0.99718 0.00517227 0)
(0.997795 0.0041115 0)
(0.998018 0.00293027 0)
(0.996626 0.00324176 0)
(0.995711 0.00265946 0)
(0.994213 0.00384808 0)
(0.992788 0.00416429 0)
(0.997619 -0.00249732 0)
(1.00072 0.0072482 0)
(1.0084 -0.00423667 0)
(1.00124 -0.0151277 0)
(0.989126 -0.0165706 0)
(0.982499 -0.0113234 0)
(0.979463 -0.00495015 0)
(0.979185 0.00278958 0)
(0.982649 0.00573543 0)
(0.987112 0.0086628 0)
(0.991974 0.009416 0)
(0.996046 0.00786103 0)
(0.99613 0.00663232 0)
(0.997043 0.00593853 0)
(0.997676 0.00423447 0)
(0.997951 0.00382396 0)
(0.99661 0.00338494 0)
(0.995729 0.00374959 0)
(0.994311 0.00264553 0)
(0.992924 0.00297898 0)
(0.997703 -0.00235904 0)
(1.0007 0.00671925 0)
(1.00799 -0.0039015 0)
(1.00107 -0.014859 0)
(0.989374 -0.0159133 0)
(0.982998 -0.0111248 0)
(0.980085 -0.0047623 0)
(0.979689 0.00237722 0)
(0.983007 0.00569528 0)
(0.987363 0.00786718 0)
(0.992011 0.00932351 0)
(0.995981 0.00731441 0)
(0.996109 0.00669857 0)
(0.996895 0.00569359 0)
(0.997536 0.00437473 0)
(0.997917 0.00357599 0)
(0.996719 0.00359896 0)
(0.995599 0.00370275 0)
(0.994135 0.00363496 0)
(0.993222 0.00399662 0)
(0.997794 -0.00221855 0)
(1.00068 0.00624035 0)
(1.00759 -0.00374222 0)
(1.00089 -0.0144071 0)
(0.989639 -0.0154066 0)
(0.983507 -0.0108057 0)
(0.980707 -0.00469507 0)
(0.980246 0.00200796 0)
(0.983356 0.00559251 0)
(0.987655 0.00727348 0)
(0.992069 0.00903025 0)
(0.995863 0.0069131 0)
(0.996051 0.00659277 0)
(0.996767 0.00538526 0)
(0.997392 0.00443153 0)
(0.997884 0.00342093 0)
(0.996727 0.00368886 0)
(0.995822 0.0035193 0)
(0.994501 0.00464403 0)
(0.993203 0.00505809 0)
(0.997891 -0.00216786 0)
(1.00065 0.00596724 0)
(1.0072 -0.00374585 0)
(1.00069 -0.0137047 0)
(0.989933 -0.0152123 0)
(0.984008 -0.0100938 0)
(0.981366 -0.00502829 0)
(0.98079 0.00237958 0)
(0.983757 0.00464134 0)
(0.987897 0.00771481 0)
(0.992139 0.00776051 0)
(0.995824 0.00737978 0)
(0.996019 0.00590297 0)
(0.99665 0.00611821 0)
(0.997289 0.00442453 0)
(0.997871 0.00434759 0)
(0.996808 0.00378798 0)
(0.995911 0.00469292 0)
(0.9946 0.00367812 0)
(0.993334 0.0037039 0)
(0.997968 -0.00198504 0)
(1.00064 0.00537125 0)
(1.00678 -0.00338194 0)
(1.00052 -0.0134384 0)
(0.990205 -0.0144898 0)
(0.984536 -0.0100215 0)
(0.982029 -0.00468409 0)
(0.981351 0.00179087 0)
(0.984153 0.00484977 0)
(0.988148 0.00672258 0)
(0.992211 0.00798024 0)
(0.995761 0.00678124 0)
(0.996037 0.00596867 0)
(0.996616 0.00558158 0)
(0.997181 0.00442526 0)
(0.997836 0.00389117 0)
(0.996966 0.00403581 0)
(0.995907 0.00443463 0)
(0.994362 0.00437888 0)
(0.993492 0.0049335 0)
(0.99805 -0.00188071 0)
(1.00064 0.00498559 0)
(1.00637 -0.00332153 0)
(1.00036 -0.012863 0)
(0.990488 -0.0140441 0)
(0.985078 -0.00969405 0)
(0.982649 -0.00452283 0)
(0.981962 0.00133019 0)
(0.984523 0.00483102 0)
(0.988461 0.00614919 0)
(0.992321 0.00782655 0)
(0.995701 0.00626598 0)
(0.995995 0.00607019 0)
(0.996498 0.00498394 0)
(0.997074 0.00427105 0)
(0.997916 0.00355055 0)
(0.997084 0.0041737 0)
(0.996139 0.00449921 0)
(0.994929 0.00567531 0)
(0.993644 0.00617244 0)
(0.998151 -0.0018012 0)
(1.0006 0.00465793 0)
(1.00601 -0.00330978 0)
(1.00017 -0.0121631 0)
(0.990786 -0.0137603 0)
(0.985603 -0.00914791 0)
(0.9833 -0.00470593 0)
(0.982548 0.00149929 0)
(0.984953 0.00425277 0)
(0.988725 0.00623706 0)
(0.992413 0.00703812 0)
(0.995695 0.00651217 0)
(0.99598 0.00548854 0)
(0.996428 0.00538511 0)
(0.997032 0.00442848 0)
(0.99798 0.00409982 0)
(0.997353 0.00423808 0)
(0.996483 0.00514863 0)
(0.994991 0.00522827 0)
(0.993509 0.00533754 0)
(0.998239 -0.0016035 0)
(1.00059 0.00408862 0)
(1.00563 -0.00302768 0)
(1 -0.0118392 0)
(0.991079 -0.0130686 0)
(0.986132 -0.00901595 0)
(0.983944 -0.00447443 0)
(0.983154 0.00120115 0)
(0.985341 0.00412705 0)
(0.989021 0.00578416 0)
(0.992559 0.00688645 0)
(0.995637 0.00619249 0)
(0.995983 0.00538421 0)
(0.996442 0.00543127 0)
(0.996962 0.00455905 0)
(0.99803 0.00405163 0)
(0.99756 0.0042901 0)
(0.996594 0.00481932 0)
(0.995159 0.00483042 0)
(0.993697 0.00539152 0)
(0.998326 -0.0015625 0)
(1.00058 0.00381314 0)
(1.00527 -0.00305634 0)
(0.999844 -0.0111542 0)
(0.991362 -0.0126769 0)
(0.986671 -0.00863833 0)
(0.984581 -0.0044577 0)
(0.983754 0.00105524 0)
(0.985765 0.00384432 0)
(0.989322 0.00569731 0)
(0.99266 0.00636754 0)
(0.99564 0.00600168 0)
(0.99604 0.00539975 0)
(0.996415 0.00533646 0)
(0.996885 0.00457207 0)
(0.998083 0.00427284 0)
(0.997756 0.00419277 0)
(0.996821 0.00480235 0)
(0.995391 0.00503444 0)
(0.993796 0.00542426 0)
(0.998412 -0.00139414 0)
(1.00057 0.00336626 0)
(1.00492 -0.00293383 0)
(0.999693 -0.0106766 0)
(0.99165 -0.0121158 0)
(0.987208 -0.00834402 0)
(0.985214 -0.00437646 0)
(0.984369 0.00088912 0)
(0.986185 0.00374016 0)
(0.989603 0.00529667 0)
(0.992803 0.00608647 0)
(0.99567 0.00590256 0)
(0.996054 0.00519154 0)
(0.996427 0.00514432 0)
(0.996892 0.00482657 0)
(0.998098 0.00432557 0)
(0.997913 0.00414654 0)
(0.99705 0.00480424 0)
(0.995583 0.0049403 0)
(0.993903 0.00530939 0)
(0.998496 -0.00130469 0)
(1.00056 0.00300252 0)
(1.00459 -0.00285424 0)
(0.999553 -0.0101586 0)
(0.991932 -0.0115656 0)
(0.987742 -0.00807641 0)
(0.985845 -0.00425971 0)
(0.984989 0.000702901 0)
(0.9866 0.00349772 0)
(0.989906 0.00509398 0)
(0.992963 0.00585987 0)
(0.99568 0.00556459 0)
(0.996095 0.005083 0)
(0.996512 0.00516792 0)
(0.996863 0.00486897 0)
(0.998068 0.00429773 0)
(0.99811 0.00411777 0)
(0.997273 0.00483929 0)
(0.995787 0.00493263 0)
(0.994026 0.00528111 0)
(0.998581 -0.00118067 0)
(1.00055 0.00264339 0)
(1.00427 -0.00279684 0)
(0.999419 -0.0096806 0)
(0.992214 -0.0109953 0)
(0.988276 -0.00775554 0)
(0.986474 -0.00413643 0)
(0.985607 0.000500704 0)
(0.987048 0.0033762 0)
(0.990212 0.00485838 0)
(0.993097 0.00552352 0)
(0.995736 0.00531401 0)
(0.996187 0.00506083 0)
(0.996558 0.00502218 0)
(0.996852 0.00478707 0)
(0.998063 0.00445398 0)
(0.9983 0.00419464 0)
(0.997526 0.00476706 0)
(0.995966 0.00478059 0)
(0.994128 0.00522813 0)
(0.998664 -0.00107148 0)
(1.00054 0.00229009 0)
(1.00397 -0.00271927 0)
(0.999299 -0.00919319 0)
(0.992493 -0.0104249 0)
(0.988802 -0.00746135 0)
(0.987092 -0.00401802 0)
(0.986244 0.000344815 0)
(0.987488 0.00321785 0)
(0.990506 0.00457332 0)
(0.993272 0.00527832 0)
(0.995809 0.00509807 0)
(0.996248 0.00491691 0)
(0.996637 0.0048674 0)
(0.996906 0.00479637 0)
(0.998075 0.00458981 0)
(0.998429 0.00411476 0)
(0.997674 0.00461275 0)
(0.996197 0.00474152 0)
(0.994322 0.00526357 0)
(0.998747 -0.000969494 0)
(1.00054 0.00197439 0)
(1.00369 -0.00266794 0)
(0.999184 -0.00873201 0)
(0.992768 -0.00987674 0)
(0.989323 -0.00712741 0)
(0.987715 -0.00387913 0)
(0.986871 0.000191222 0)
(0.98795 0.00301702 0)
(0.990823 0.00437686 0)
(0.993429 0.00505433 0)
(0.99589 0.00486632 0)
(0.996358 0.00473051 0)
(0.996729 0.00480343 0)
(0.996976 0.00471546 0)
(0.998033 0.00463121 0)
(0.998529 0.00405124 0)
(0.997968 0.00460278 0)
(0.996477 0.00471401 0)
(0.994453 0.00517925 0)
(0.998827 -0.000861298 0)
(1.00053 0.00166699 0)
(1.00342 -0.00262726 0)
(0.999088 -0.00829908 0)
(0.993046 -0.00930096 0)
(0.98984 -0.00677197 0)
(0.988319 -0.00372469 0)
(0.987509 4.02972e-05 0)
(0.988414 0.00281876 0)
(0.991132 0.00411696 0)
(0.993613 0.00481215 0)
(0.995977 0.00464111 0)
(0.996463 0.0045574 0)
(0.996841 0.00475572 0)
(0.997068 0.00462746 0)
(0.998048 0.0047112 0)
(0.998652 0.00412157 0)
(0.998142 0.00456062 0)
(0.996689 0.00458284 0)
(0.994645 0.00508393 0)
(0.998907 -0.000770929 0)
(1.00053 0.0013704 0)
(1.00317 -0.00257693 0)
(0.999 -0.00782985 0)
(0.993324 -0.00879358 0)
(0.990348 -0.00645056 0)
(0.98892 -0.00356637 0)
(0.988129 -6.01713e-05 0)
(0.988891 0.00263831 0)
(0.991464 0.00391389 0)
(0.993787 0.00456664 0)
(0.996081 0.00445259 0)
(0.996625 0.00435416 0)
(0.996962 0.00467573 0)
(0.997186 0.00449136 0)
(0.998055 0.00472606 0)
(0.998708 0.00409832 0)
(0.998368 0.00447635 0)
(0.996967 0.00450407 0)
(0.994839 0.00498829 0)
(0.998984 -0.000664671 0)
(1.00053 0.00112243 0)
(1.00294 -0.00260731 0)
(0.998927 -0.00737067 0)
(0.9936 -0.00826594 0)
(0.990857 -0.0061043 0)
(0.98951 -0.0033985 0)
(0.98876 -0.000141363 0)
(0.98937 0.0024921 0)
(0.991783 0.00370921 0)
(0.993989 0.00434092 0)
(0.996184 0.00432449 0)
(0.996765 0.00413418 0)
(0.997097 0.00457914 0)
(0.997316 0.00438615 0)
(0.998104 0.00470821 0)
(0.998794 0.00413273 0)
(0.998527 0.00442069 0)
(0.997181 0.0044189 0)
(0.995056 0.0048423 0)
(0.999059 -0.000606476 0)
(1.00052 0.000911203 0)
(1.00272 -0.00257708 0)
(0.998873 -0.00691888 0)
(0.993868 -0.00785244 0)
(0.991347 -0.00564836 0)
(0.990097 -0.0032254 0)
(0.989382 -0.000248844 0)
(0.989867 0.00225074 0)
(0.992133 0.00347718 0)
(0.994198 0.00406975 0)
(0.996295 0.00416992 0)
(0.996948 0.00391053 0)
(0.997253 0.00447295 0)
(0.997462 0.00429163 0)
(0.998153 0.0046759 0)
(0.998822 0.00415038 0)
(0.998703 0.00435251 0)
(0.997418 0.0043544 0)
(0.995255 0.00470813 0)
(0.999128 -0.000503532 0)
(1.00052 0.000669245 0)
(1.00253 -0.00255322 0)
(0.998814 -0.00661156 0)
(0.994156 -0.00725945 0)
(0.991862 -0.00542312 0)
(0.99065 -0.00303125 0)
(0.989984 -0.000209296 0)
(0.990343 0.00215181 0)
(0.992452 0.00331666 0)
(0.99442 0.00383956 0)
(0.996407 0.00406485 0)
(0.997111 0.0037295 0)
(0.99744 0.00431752 0)
(0.997635 0.0041937 0)
(0.998261 0.00457573 0)
(0.998908 0.00416631 0)
(0.998851 0.00426964 0)
(0.997626 0.00426118 0)
(0.9955 0.00453558 0)
(0.999204 -0.000431983 0)
(1.00052 0.000487418 0)
(1.00234 -0.00254238 0)
(0.998804 -0.00621695 0)
(0.994425 -0.00675514 0)
(0.992331 -0.00522522 0)
(0.991241 -0.00278558 0)
(0.990595 -0.00013001 0)
(0.990836 0.00202216 0)
(0.992804 0.00318948 0)
(0.994665 0.00359618 0)
(0.996543 0.0039412 0)
(0.997299 0.00357054 0)
(0.997637 0.00416617 0)
(0.997808 0.0040952 0)
(0.998356 0.00449441 0)
(0.998929 0.00417651 0)
(0.998972 0.00419841 0)
(0.997809 0.00421651 0)
(0.995687 0.00440085 0)
(0.999267 -0.000385936 0)
(1.00052 0.000359213 0)
(1.00217 -0.002548 0)
(0.998778 -0.00579201 0)
(0.994688 -0.00641506 0)
(0.992825 -0.00478329 0)
(0.991805 -0.0025882 0)
(0.991189 -0.000205342 0)
(0.99133 0.00183647 0)
(0.993142 0.00299635 0)
(0.994923 0.00334317 0)
(0.996691 0.00380212 0)
(0.997464 0.00343663 0)
(0.997846 0.00397133 0)
(0.998 0.00400384 0)
(0.998495 0.004364 0)
(0.998993 0.00419292 0)
(0.999072 0.00413728 0)
(0.997955 0.00413981 0)
(0.995881 0.00424314 0)
(0.999332 -0.000304472 0)
(1.00051 0.000226502 0)
(1.00201 -0.00259068 0)
(0.998779 -0.0054559 0)
(0.994959 -0.00588803 0)
(0.993296 -0.00446297 0)
(0.992358 -0.00249238 0)
(0.991778 -0.000214383 0)
(0.991829 0.00166717 0)
(0.993496 0.0028851 0)