/*--------------------------------*- C++ -*----------------------------------*\
| =========                 |                                                 |
| \\      /  F ield         | OpenFOAM: The Open Source CFD Toolbox           |
|  \\    /   O peration     | Version:  v2012                                 |
|   \\  /    A nd           | Website:  www.openfoam.com                      |
|    \\/     M anipulation  |                                                 |
\*---------------------------------------------------------------------------*/
FoamFile
{
    version     2.0;
    format      ascii;
    class       surfaceScalarField;
    location    "4.5";
    object      phi;
}
// * * * * * * * * * * * * * * * * * * * * * * * * * * * * * * * * * * * * * //

dimensions      [0 3 -1 0 0 0 0];
oriented        oriented;


internalField   nonuniform List<scalar> 
13830
(
9.18181e-07
-5.26176e-07
9.93162e-07
-1.56434e-07
1.02545e-06
1.04173e-06
8.57712e-07
-2.95272e-08
9.6127e-07
7.15183e-08
8.76293e-07
1.24426e-07
9.01349e-07
-4.63526e-07
9.57519e-07
5.0505e-07
9.15186e-07
2.8117e-07
9.43919e-07
8.75706e-07
9.30792e-07
3.29608e-07
9.36068e-07
2.84217e-07
9.38235e-07
-1.76571e-08
9.32482e-07
-5.9418e-08
9.38936e-07
-8.94347e-08
9.26033e-07
-2.08031e-07
9.33146e-07
-8.32608e-08
9.203e-07
-1.73847e-07
9.24741e-07
-7.71565e-08
-1.38562e-07
9.02564e-07
9.54688e-07
-5.08331e-07
1.03059e-06
-2.32332e-07
1.06332e-06
1.009e-06
8.9481e-07
1.38984e-07
1.00015e-06
-3.38187e-08
9.16094e-07
2.08479e-07
9.43692e-07
-4.91123e-07
1.00125e-06
4.47494e-07
9.53319e-07
3.29099e-07
9.91515e-07
8.37509e-07
9.70096e-07
3.51027e-07
9.82036e-07
2.72277e-07
9.76317e-07
-1.19377e-08
9.77857e-07
-6.09587e-08
9.73237e-07
-8.48139e-08
9.69809e-07
-2.04603e-07
9.64272e-07
-7.77236e-08
9.63855e-07
-1.7343e-07
9.5355e-07
-6.68512e-08
-1.35562e-07
9.5055e-07
9.93424e-07
-4.92302e-07
1.06738e-06
-3.06287e-07
1.09977e-06
9.7661e-07
9.4176e-07
2.96991e-07
1.03963e-06
-1.31693e-07
9.70626e-07
2.77487e-07
9.87996e-07
-5.08493e-07
1.05388e-06
3.81612e-07
9.96507e-07
3.8647e-07
1.03796e-06
7.96054e-07
1.01151e-06
3.7748e-07
1.02521e-06
2.58581e-07
1.01445e-06
-1.17974e-09
1.01874e-06
-6.5256e-08
1.00838e-06
-7.445e-08
1.00902e-06
-2.05247e-07
1.00009e-06
-6.87872e-08
1.00202e-06
-1.7536e-07
9.91367e-07
-5.62006e-08
-1.32624e-07
9.88429e-07
1.03362e-06
-4.78145e-07
1.10349e-06
-3.76156e-07
1.1346e-06
9.45496e-07
9.96015e-07
4.35578e-07
1.08005e-06
-2.15727e-07
1.03402e-06
3.23513e-07
1.03396e-06
-5.08429e-07
1.10369e-06
3.11879e-07
1.04346e-06
4.46702e-07
1.07607e-06
7.63446e-07
1.05364e-06
3.99909e-07
1.06238e-06
2.49839e-07
1.05264e-06
8.56235e-09
1.05494e-06
-6.7556e-08
1.04448e-06
-6.39899e-08
1.04497e-06
-2.05746e-07
1.03679e-06
-6.06013e-08
1.03797e-06
-1.76538e-07
1.02911e-06
-4.73463e-08
-1.28588e-07
1.02508e-06
1.0751e-06
-4.65689e-07
1.13859e-06
-4.39644e-07
1.16728e-06
9.16806e-07
1.05472e-06
5.48137e-07
1.11942e-06
-2.80423e-07
1.09769e-06
3.45236e-07
1.07925e-06
-4.89988e-07
1.1436e-06
2.47528e-07
1.09272e-06
4.97589e-07
1.1104e-06
7.45765e-07
1.09621e-06
4.14095e-07
1.09924e-06
2.46809e-07
1.09169e-06
1.61101e-08
1.09192e-06
-6.7783e-08
1.0824e-06
-5.44661e-08
1.0822e-06
-2.05545e-07
1.07475e-06
-5.3155e-08
1.07499e-06
-1.76779e-07
1.06746e-06
-3.98199e-08
-1.23588e-07
1.06246e-06
1.11802e-06
-4.5487e-07
1.17284e-06
-4.94459e-07
1.19798e-06
8.9166e-07
1.11419e-06
6.3193e-07
1.15699e-06
-3.23221e-07
1.15438e-06
3.47839e-07
1.12355e-06
-4.59155e-07
1.17496e-06
1.96118e-07
1.14217e-06
5.30386e-07
1.1475e-06
7.40427e-07
1.13977e-06
4.21827e-07
1.1396e-06
2.46977e-07
1.13269e-06
2.30278e-08
1.13215e-06
-6.72512e-08
1.12301e-06
-4.53266e-08
1.1224e-06
-2.04926e-07
1.11521e-06
-4.59729e-08
1.11462e-06
-1.76186e-07
1.1079e-06
-3.30964e-08
-1.17862e-07
1.10217e-06
1.16268e-06
-4.45854e-07
1.20688e-06
-5.38657e-07
1.22771e-06
8.70832e-07
1.17141e-06
6.88224e-07
1.19368e-06
-3.45486e-07
1.20245e-06
3.39074e-07
1.16798e-06
-4.24687e-07
1.20367e-06
1.60428e-07
1.18971e-06
5.44341e-07
1.18964e-06
7.40497e-07
1.18474e-06
4.26731e-07
1.18382e-06
2.47898e-07
1.17609e-06
3.07593e-08
1.17566e-06
-6.68224e-08
1.16646e-06
-3.61289e-08
1.16558e-06
-2.04046e-07
1.15854e-06
-3.89303e-08
1.1571e-06
-1.74745e-07
1.15096e-06
-2.69624e-08
-1.11534e-07
1.14464e-06
1.20929e-06
-4.38958e-07
1.24168e-06
-5.71048e-07
1.2579e-06
8.54609e-07
1.22506e-06
7.21067e-07
1.23132e-06
-3.51754e-07
1.24491e-06
3.25492e-07
1.21348e-06
-3.93258e-07
1.23494e-06
1.3897e-07
1.23462e-06
5.44654e-07
1.23534e-06
7.39779e-07
1.23099e-06
4.3108e-07
1.23061e-06
2.48275e-07
1.22167e-06
3.97057e-08
1.22159e-06
-6.67497e-08
1.21233e-06
-2.68621e-08
1.21114e-06
-2.02863e-07
1.20441e-06
-3.21918e-08
1.20201e-06
-1.72351e-07
1.19648e-06
-2.1431e-08
-1.04649e-07
1.1896e-06
1.25785e-06
-4.34459e-07
1.2783e-06
-5.9149e-07
1.29002e-06
8.42881e-07
1.27545e-06
7.35646e-07
1.27153e-06
-3.47841e-07
1.28617e-06
3.10851e-07
1.26022e-06
-3.67304e-07
1.27112e-06
1.28071e-07
1.2778e-06
5.37975e-07
1.28228e-06
7.35292e-07
1.27802e-06
4.35346e-07
1.27872e-06
2.47575e-07
1.26895e-06
4.94755e-08
1.26921e-06
-6.70133e-08
1.26012e-06
-1.77711e-08
1.25853e-06
-2.01273e-07
1.25234e-06
-2.59992e-08
1.24889e-06
-1.68908e-07
1.24404e-06
-1.65763e-08
-9.72655e-08
1.23666e-06
1.30824e-06
-4.32418e-07
1.31767e-06
-6.00927e-07
1.32527e-06
8.3528e-07
1.32391e-06
7.37006e-07
1.31504e-06
-3.38965e-07
1.32953e-06
2.96365e-07
1.30813e-06
-3.4591e-07
1.31224e-06
1.23961e-07
1.32087e-06
5.29346e-07
1.32927e-06
7.26893e-07
1.32551e-06
4.39105e-07
1.32756e-06
2.45524e-07
1.31763e-06
5.94061e-08
1.31818e-06
-6.75611e-08
1.30954e-06
-9.13165e-09
1.30746e-06
-1.99198e-07
1.302e-06
-2.05325e-08
1.29746e-06
-1.64373e-07
1.29332e-06
-1.24332e-08
-8.94992e-08
1.28555e-06
1.36021e-06
-4.32608e-07
1.36042e-06
-6.01134e-07
1.36443e-06
8.31266e-07
1.37207e-06
7.29369e-07
1.36179e-06
-3.28685e-07
1.37634e-06
2.81811e-07
1.35738e-06
-3.26944e-07
1.35745e-06
1.23891e-07
1.36529e-06
5.21506e-07
1.37648e-06
7.15699e-07
1.37371e-06
4.41878e-07
1.37727e-06
2.41964e-07
1.36771e-06
6.89621e-08
1.36851e-06
-6.83594e-08
1.36052e-06
-1.13777e-09
1.35789e-06
-1.96571e-07
1.35324e-06
-1.58792e-08
1.34763e-06
-1.58763e-07
1.34416e-06
-8.97099e-09
-8.14951e-08
1.33616e-06
1.4136e-06
-4.34552e-07
1.40674e-06
-5.94272e-07
1.40786e-06
8.30137e-07
1.42129e-06
7.15943e-07
1.41137e-06
-3.18764e-07
1.42659e-06
2.66588e-07
1.40831e-06
-3.08666e-07
1.40602e-06
1.26181e-07
1.41205e-06
5.15476e-07
1.42488e-06
7.02868e-07
1.42327e-06
4.43496e-07
1.42832e-06
2.36906e-07
1.41939e-06
7.78955e-08
1.42038e-06
-6.93487e-08
1.41314e-06
6.10682e-09
1.40985e-06
-1.93282e-07
1.40603e-06
-1.20606e-08
1.39939e-06
-1.52125e-07
1.39653e-06
-6.1129e-09
-7.3395e-08
1.38843e-06
1.46832e-06
-4.37624e-07
1.4565e-06
-5.82459e-07
1.45559e-06
8.31053e-07
1.4725e-06
6.99029e-07
1.46337e-06
-3.0963e-07
1.47967e-06
2.5029e-07
1.46122e-06
-2.90222e-07
1.45765e-06
1.29751e-07
1.46181e-06
5.11315e-07
1.47553e-06
6.89151e-07
1.47491e-06
4.44118e-07
1.48123e-06
2.30584e-07
1.47292e-06
8.62036e-08
1.47398e-06
-7.04042e-08
1.46753e-06
1.25538e-08
1.46341e-06
-1.89161e-07
1.46041e-06
-9.06413e-09
1.45282e-06
-1.44526e-07
1.45046e-06
-3.75496e-09
-6.53104e-08
1.44237e-06
1.52439e-06
-4.41143e-07
1.50945e-06
-5.67519e-07
1.50741e-06
8.33095e-07
1.52619e-06
6.80249e-07
1.51754e-06
-3.0098e-07
1.53503e-06
2.328e-07
1.51621e-06
-2.714e-07
1.51222e-06
1.33743e-07
1.51492e-06
5.08615e-07
1.52913e-06
6.74935e-07
1.52916e-06
4.44094e-07
1.53631e-06
2.23427e-07
1.52852e-06
9.39972e-08
1.52945e-06
-7.13376e-08
1.52383e-06
1.81765e-08
1.51868e-06
-1.84011e-07
1.51647e-06
-6.85842e-09
1.508e-06
-1.36049e-07
1.50603e-06
-1.78666e-09
-5.73155e-08
1.49803e-06
1.58193e-06
-4.4446e-07
1.56535e-06
-5.50939e-07
1.56308e-06
8.35364e-07
1.58253e-06
6.608e-07
1.5738e-06
-2.92255e-07
1.59245e-06
2.14158e-07
1.57325e-06
-2.52208e-07
1.56957e-06
1.37429e-07
1.57141e-06
5.06772e-07
1.58596e-06
6.60389e-07
1.58625e-06
4.43799e-07
1.59373e-06
2.15953e-07
1.58635e-06
1.01379e-07
1.58692e-06
-7.19156e-08
1.58215e-06
2.29478e-08
1.5758e-06
-1.77656e-07
1.57433e-06
-5.39362e-09
1.56508e-06
-1.26794e-07
1.56339e-06
-9.93924e-11
-4.94528e-08
1.55553e-06
1.64109e-06
-4.47005e-07
1.6241e-06
-5.33953e-07
1.62237e-06
8.37096e-07
1.64154e-06
6.41626e-07
1.63221e-06
-2.8292e-07
1.65194e-06
1.9443e-07
1.63236e-06
-2.32627e-07
1.62951e-06
1.40273e-07
1.63115e-06
5.0514e-07
1.64596e-06
6.45579e-07
1.64624e-06
4.43513e-07
1.65353e-06
2.08669e-07
1.64653e-06
1.08378e-07
1.64649e-06
-7.18766e-08
1.64259e-06
2.68418e-08
1.63494e-06
-1.70006e-07
1.63414e-06
-4.5863e-09
1.62424e-06
-1.16893e-07
1.62272e-06
1.4114e-09
-4.17514e-08
1.61502e-06
1.70209e-06
-4.48342e-07
1.68576e-06
-5.17623e-07
1.68511e-06
8.37746e-07
1.70322e-06
6.23509e-07
1.69287e-06
-2.72563e-07
1.71365e-06
1.7364e-07
1.6936e-06
-2.12577e-07
1.69187e-06
1.42011e-07
1.69387e-06
5.03138e-07
1.70892e-06
6.30521e-07
1.70909e-06
4.43345e-07
1.71576e-06
2.02004e-07
1.7092e-06
1.14938e-07
1.70826e-06
-7.09367e-08
1.70524e-06
2.98593e-08
1.69632e-06
-1.61088e-07
1.69605e-06
-4.31087e-09
1.68566e-06
-1.06508e-07
1.68423e-06
2.84344e-09
-3.42463e-08
1.67673e-06
1.76518e-06
-4.48203e-07
1.7504e-06
-5.02842e-07
1.75112e-06
8.37023e-07
1.76755e-06
6.0708e-07
1.75588e-06
-2.60894e-07
1.77776e-06
1.51764e-07
1.75719e-06
-1.92006e-07
1.75655e-06
1.4265e-07
1.75937e-06
5.00317e-07
1.77466e-06
6.1523e-07
1.77478e-06
4.43225e-07
1.78049e-06
1.96293e-07
1.7745e-06
1.20927e-07
1.77238e-06
-6.88148e-08
1.77021e-06
3.20278e-08
1.76012e-06
-1.51e-07
1.76022e-06
-4.41035e-09
1.74954e-06
-9.58307e-08
1.7481e-06
4.28418e-09
-2.69852e-08
1.74084e-06
1.83064e-06
-4.46505e-07
1.81807e-06
-4.90274e-07
1.82023e-06
8.34862e-07
1.83451e-06
5.92805e-07
1.82133e-06
-2.47723e-07
1.84437e-06
1.2873e-07
1.82335e-06
-1.70992e-07
1.8236e-06
1.42409e-07
1.82752e-06
4.96391e-07
1.84298e-06
5.99767e-07
1.8433e-06
4.42911e-07
1.8478e-06
1.91794e-07
1.84254e-06
1.2618e-07
1.83901e-06
-6.52843e-08
1.83761e-06
3.34288e-08
1.82652e-06
-1.39904e-07
1.8268e-06
-4.69483e-09
1.81603e-06
-8.50619e-08
1.81451e-06
5.81204e-09
-2.0025e-08
1.80754e-06
1.89872e-06
-4.4333e-07
1.88872e-06
-4.80272e-07
1.89223e-06
8.3135e-07
1.90408e-06
5.80958e-07
1.88929e-06
-2.32929e-07
1.91357e-06
1.04451e-07
1.89234e-06
-1.49768e-07
1.89314e-06
1.41611e-07
1.89829e-06
4.91237e-07
1.91376e-06
5.84298e-07
1.91465e-06
4.42019e-07
1.91777e-06
1.8868e-07
1.91341e-06
1.30542e-07
1.90836e-06
-6.02372e-08
1.90757e-06
3.42159e-08
1.89568e-06
-1.2801e-07
1.89595e-06
-4.96651e-09
1.88527e-06
-7.43818e-08
1.88359e-06
7.49218e-09
-1.34161e-08
1.87698e-06
1.96964e-06
-4.3887e-07
1.96224e-06
-4.72866e-07
1.96694e-06
8.26653e-07
1.97629e-06
5.71605e-07
1.95982e-06
-2.16463e-07
1.98538e-06
7.88937e-08
1.96431e-06
-1.28702e-07
1.96534e-06
1.4058e-07
1.97173e-06
4.84854e-07
1.9869e-06
5.69124e-07
1.98882e-06
4.40099e-07
1.99047e-06
1.87027e-07
1.98709e-06
1.33929e-07
1.98058e-06
-5.37254e-08
1.9802e-06
3.45869e-08
1.96776e-06
-1.15561e-07
1.96784e-06
-5.04773e-09
1.95738e-06
-6.39245e-08
1.9555e-06
9.37591e-09
-7.1914e-09
1.94927e-06
2.04354e-06
-4.33356e-07
2.0385e-06
-4.67835e-07
2.04421e-06
8.20944e-07
2.05122e-06
5.64601e-07
2.0331e-06
-1.98341e-07
2.05982e-06
5.21739e-08
2.03934e-06
-1.08226e-07
2.04035e-06
1.39574e-07
2.04792e-06
4.77283e-07
2.06238e-06
5.54662e-07
2.06574e-06
4.36734e-07
2.06598e-06
1.86787e-07
2.06358e-06
1.36331e-07
2.0558e-06
-4.59439e-08
2.05564e-06
3.47452e-08
2.04289e-06
-1.02805e-07
2.04263e-06
-4.79515e-09
2.03249e-06
-5.37788e-08
2.03036e-06
1.14999e-08
-1.36012e-09
2.02453e-06
2.12048e-06
-4.26993e-07
2.11746e-06
-4.64821e-07
2.12404e-06
8.14372e-07
2.12904e-06
5.59594e-07
2.10935e-06
-1.78649e-07
2.13688e-06
2.46407e-08
2.11743e-06
-8.87746e-08
2.11825e-06
1.3876e-07
2.12701e-06
4.68515e-07
2.14028e-06
5.41392e-07
2.14539e-06
4.31627e-07
2.14438e-06
1.878e-07
2.14289e-06
1.37818e-07
2.13414e-06
-3.7193e-08
2.13402e-06
3.48653e-08
2.12118e-06
-8.99671e-08
2.1205e-06
-4.11428e-09
2.11072e-06
-4.39981e-08
2.10834e-06
1.38821e-08
4.09246e-09
2.10289e-06
2.20051e-06
-4.19916e-07
2.19912e-06
-4.63439e-07
2.20646e-06
8.07036e-07
2.20999e-06
5.56061e-07
2.18888e-06
-1.57536e-07
2.21662e-06
-3.0937e-09
2.19857e-06
-7.07296e-08
2.19909e-06
1.38241e-07
2.20916e-06
4.58447e-07
2.22086e-06
5.29688e-07
2.22779e-06
4.24699e-07
2.22577e-06
1.8982e-07
2.22504e-06
1.38551e-07
2.21569e-06
-2.78486e-08
2.21547e-06
3.50902e-08
2.20272e-06
-7.72223e-08
2.20157e-06
-2.96505e-09
2.19218e-06
-3.46089e-08
2.18955e-06
1.65152e-08
9.1896e-09
2.18445e-06
2.28367e-06
-4.1219e-07
2.28355e-06
-4.63324e-07
2.29161e-06
7.98979e-07
2.29432e-06
5.53348e-07
2.27201e-06
-1.3522e-07
2.29911e-06
-3.01964e-08
2.28277e-06
-5.43879e-08
2.28289e-06
1.38117e-07
2.29442e-06
4.46916e-07
2.30443e-06
5.19682e-07
2.31302e-06
4.16107e-07
2.31028e-06
1.92555e-07
2.31008e-06
1.38754e-07
2.3005e-06
-1.82701e-08
2.30011e-06
3.54846e-08
2.28755e-06
-6.46661e-08
2.28593e-06
-1.34507e-09
2.27691e-06
-2.55927e-08
2.27411e-06
1.93234e-08
1.39606e-08
2.26934e-06
2.37003e-06
-4.03836e-07
2.37083e-06
-4.64127e-07
2.37962e-06
7.90195e-07
2.38222e-06
5.50741e-07
2.35901e-06
-1.12003e-07
2.38452e-06
-5.57138e-08
2.37008e-06
-3.99424e-08
2.36967e-06
1.38525e-07
2.3828e-06
4.33785e-07
2.39121e-06
5.11278e-07
2.40118e-06
4.06136e-07
2.39804e-06
1.95696e-07
2.39812e-06
1.38671e-07
2.3886e-06
-8.75232e-09
2.38801e-06
3.60755e-08
2.37573e-06
-5.23864e-08
2.37347e-06
9.17599e-10
2.36481e-06
-1.69337e-08
2.3621e-06
2.20354e-08
1.84696e-08
2.35759e-06
2.45971e-06
-3.94867e-07
2.46107e-06
-4.65482e-07
2.47061e-06
7.80653e-07
2.47382e-06
5.47524e-07
2.45009e-06
-8.82705e-08
2.47308e-06
-7.87005e-08
2.46062e-06
-2.7482e-08
2.45952e-06
1.39626e-07
2.47429e-06
4.19008e-07
2.48136e-06
5.04209e-07
2.49235e-06
3.95147e-07
2.48914e-06
1.98904e-07
2.48924e-06
1.38576e-07
2.48006e-06
4.2205e-10
2.47917e-06
3.69731e-08
2.46744e-06
-4.06561e-08
2.46356e-06
4.78997e-09
2.45556e-06
-8.9282e-09
2.45366e-06
2.39384e-08
2.2881e-08
2.44924e-06
2.55285e-06
-3.85318e-07
2.55436e-06
-4.66989e-07
2.56469e-06
7.70317e-07
2.56917e-06
5.4305e-07
2.54539e-06
-6.44937e-08
2.56502e-06
-9.83349e-08
2.55456e-06
-1.7015e-08
2.55252e-06
1.4166e-07
2.56888e-06
4.02649e-07
2.57498e-06
4.98111e-07
2.5866e-06
3.83526e-07
2.5837e-06
2.01804e-07
2.58355e-06
1.38726e-07
2.57488e-06
9.09447e-09
2.57362e-06
3.82377e-08
2.56276e-06
-2.98019e-08
2.56248e-06
5.06777e-09
2.55672e-06
-3.16494e-09
2.54895e-06
3.17099e-08
2.75707e-08
2.54426e-06
2.64962e-06
-3.75259e-07
2.65084e-06
-4.6821e-07
2.66199e-06
7.59174e-07
2.66823e-06
5.36806e-07
2.64494e-06
-4.12019e-08
2.6606e-06
-1.14e-07
2.65208e-06
-8.4909e-09
2.64884e-06
1.44903e-07
2.66659e-06
3.84896e-07
2.67213e-06
4.92571e-07
2.68399e-06
3.7166e-07
2.6818e-06
2.03994e-07
2.68124e-06
1.39293e-07
2.673e-06
1.73281e-08
2.67209e-06
3.9151e-08
2.65942e-06
-1.71369e-08
2.6547e-06
9.79332e-09
2.64776e-06
3.77159e-09
2.64702e-06
3.24552e-08
3.1518e-08
2.64307e-06
2.75019e-06
-3.64798e-07
2.75069e-06
-4.68705e-07
2.76262e-06
7.47243e-07
2.77097e-06
5.28452e-07
2.74869e-06
-1.89244e-08
2.76005e-06
-1.25351e-07
2.75338e-06
-1.82906e-09
2.74867e-06
1.49613e-07
2.76747e-06
3.66102e-07
2.77293e-06
4.87103e-07
2.78454e-06
3.60058e-07
2.78371e-06
2.04824e-07
2.78221e-06
1.40793e-07
2.77493e-06
2.4601e-08
2.77381e-06
4.0277e-08
2.76064e-06
-3.96796e-09
2.75468e-06
1.57548e-08
2.74811e-06
1.03436e-08
2.74906e-06
3.14976e-08
3.53079e-08
2.74527e-06
2.85473e-06
-3.54069e-07
2.8541e-06
-4.68072e-07
2.86677e-06
7.34568e-07
2.87736e-06
5.17866e-07
2.8566e-06
1.834e-09
2.86353e-06
-1.32287e-07
2.85868e-06
3.02682e-09
2.85231e-06
1.55984e-07
2.87169e-06
3.46719e-07
2.87757e-06
4.81226e-07
2.88836e-06
3.49268e-07
2.88953e-06
2.03648e-07
2.8867e-06
1.43631e-07
2.8806e-06
3.06959e-08
2.88008e-06
4.07976e-08
2.87534e-06
7.72576e-10
2.87369e-06
1.74085e-08
2.86804e-06
1.59856e-08
2.85596e-06
4.3579e-08
4.05117e-08
2.85076e-06
2.96339e-06
-3.4321e-07
2.9613e-06
-4.6599e-07
2.97467e-06
7.212e-07
2.98739e-06
5.0515e-07
2.96858e-06
2.06412e-08
2.97122e-06
-1.34924e-07
2.96814e-06
6.10716e-09
2.96002e-06
1.64102e-07
2.97952e-06
3.27218e-07
2.98617e-06
4.7458e-07
2.99586e-06
3.39571e-07
2.99911e-06
2.00402e-07
2.9954e-06
1.47343e-07
2.99037e-06
3.57249e-08
2.98653e-06
4.46356e-08
2.97472e-06
1.25865e-08
2.9659e-06
2.62288e-08
2.96025e-06
2.16324e-08
2.96432e-06
3.95098e-08
4.40583e-08
2.96077e-06
3.0763e-06
-3.32347e-07
3.07256e-06
-4.62259e-07
3.08659e-06
7.07176e-07
3.10114e-06
4.90603e-07
3.08459e-06
3.71844e-08
3.08324e-06
-1.33573e-07
3.08187e-06
7.48041e-09
3.07209e-06
1.73875e-07
3.09128e-06
3.08037e-07
3.0989e-06
4.66954e-07
3.10745e-06
3.31024e-07
3.11232e-06
1.95535e-07
3.10882e-06
1.50838e-07
3.10341e-06
4.1134e-08
3.10421e-06
4.38376e-08
3.10311e-06
1.36814e-08
3.10022e-06
2.91199e-08
3.09439e-06
2.74636e-08
3.07912e-06
5.47788e-08
4.92096e-08
3.07397e-06
3.1936e-06
-3.21583e-07
3.18813e-06
-4.56787e-07
3.20283e-06
6.92476e-07
3.21868e-06
4.74745e-07
3.20469e-06
5.1174e-08
3.1997e-06
-1.28582e-07
3.20002e-06
7.16779e-09
3.18873e-06
1.85164e-07
3.20728e-06
2.89482e-07
3.21596e-06
4.58279e-07
3.22375e-06
3.23234e-07
3.22844e-06
1.90842e-07
3.22838e-06
1.50902e-07
3.22073e-06
4.87756e-08
3.22126e-06
4.3312e-08
3.20465e-06
3.02925e-08
3.19585e-06
3.79238e-08
3.19004e-06
3.32686e-08
3.19488e-06
4.99423e-08
5.17636e-08
3.19232e-06
3.31541e-06
-3.10982e-07
3.30825e-06
-4.49628e-07
3.32365e-06
6.77079e-07
3.34025e-06
4.58144e-07
3.32888e-06
6.2539e-08
3.32079e-06
-1.20487e-07
3.32253e-06
5.42701e-09
3.31033e-06
1.97368e-07
3.32756e-06
2.72248e-07
3.33814e-06
4.47699e-07
3.34411e-06
3.1726e-07
3.35001e-06
1.84944e-07
3.35041e-06
1.505e-07
3.33603e-06
6.31599e-08
3.33202e-06
4.73266e-08
3.32408e-06
3.82327e-08
3.3169e-06
4.51031e-08
3.31043e-06
3.97324e-08
3.31662e-06
4.37514e-08
5.3902e-08
3.31448e-06
3.44188e-06
-3.00578e-07
3.43318e-06
-4.40926e-07
3.44932e-06
6.60937e-07
3.46611e-06
4.41354e-07
3.45722e-06
7.14282e-08
3.44665e-06
-1.09922e-07
3.44943e-06
2.65414e-09
3.43711e-06
2.09682e-07
3.45226e-06
2.57103e-07
3.46587e-06
4.34087e-07
3.46859e-06
3.14535e-07
3.47674e-06
1.76798e-07
3.47328e-06
1.53963e-07
3.47475e-06
6.16842e-08
3.47469e-06
4.73922e-08
3.47514e-06
3.77798e-08
3.47252e-06
4.7725e-08
3.46637e-06
4.5883e-08
3.44532e-06
6.4804e-08
5.88375e-08
3.44038e-06
3.57316e-06
-2.90388e-07
3.56305e-06
-4.30821e-07
3.58017e-06
6.43822e-07
3.59634e-06
4.25184e-07
3.59012e-06
7.76491e-08
3.57717e-06
-9.69778e-08
3.58115e-06
-1.32269e-09
3.56869e-06
2.22137e-07
3.58247e-06
2.43331e-07
3.59681e-06
4.19739e-07
3.60115e-06
3.10195e-07
3.60523e-06
1.72719e-07
3.60859e-06
1.50601e-07
3.59383e-06
7.64483e-08
3.58791e-06
5.33118e-08
3.5788e-06
4.68953e-08
3.57302e-06
5.34966e-08
3.56753e-06
5.13819e-08
3.57396e-06
5.83676e-08
5.99948e-08
3.5728e-06
3.70938e-06
-2.80387e-07
3.69811e-06
-4.19546e-07
3.71628e-06
6.25655e-07
3.73143e-06
4.10033e-07
3.72748e-06
8.15945e-08
3.71284e-06
-8.23366e-08
3.7174e-06
-5.88699e-09
3.70594e-06
2.33597e-07
3.71716e-06
2.32118e-07
3.73395e-06
4.02946e-07
3.73755e-06
3.06593e-07
3.74057e-06
1.69697e-07
3.7467e-06
1.44474e-07
3.72919e-06
9.39601e-08
3.72277e-06
5.9735e-08
3.71419e-06
5.54757e-08
3.70817e-06
5.95069e-08
3.70256e-06
5.6999e-08
3.71029e-06
5.0631e-08
6.10758e-08
3.70921e-06
3.85075e-06
-2.70547e-07
3.83853e-06
-4.07331e-07
3.85779e-06
6.06402e-07
3.87174e-06
3.9608e-07
3.86949e-06
8.38452e-08
3.85406e-06
-6.69123e-08
3.85812e-06
-9.94478e-09
3.84931e-06
2.42412e-07
3.856e-06
2.25423e-07
3.87788e-06
3.81068e-07
3.87523e-06
3.09244e-07
3.88265e-06
1.62272e-07
3.87968e-06
1.47451e-07
3.88912e-06
8.45206e-08
3.88882e-06
6.00365e-08
3.89071e-06
5.35793e-08
3.88895e-06
6.12641e-08
3.88113e-06
6.48273e-08
3.85573e-06
7.60283e-08
6.72155e-08
3.84959e-06
3.99748e-06
-2.60869e-07
3.98435e-06
-3.94205e-07
4.00504e-06
5.85714e-07
4.01717e-06
3.83949e-07
4.01697e-06
8.40415e-08
4.0002e-06
-5.01435e-08
4.00479e-06
-1.45267e-08
3.99666e-06
2.50544e-07
4.00329e-06
2.18787e-07
4.02193e-06
3.62434e-07
4.02864e-06
3.02527e-07
4.03125e-06
1.59661e-07
4.03823e-06
1.40474e-07
4.01667e-06
1.06081e-07
4.00879e-06
6.79188e-08
4.00009e-06
6.2273e-08
3.99529e-06
6.60677e-08
3.99165e-06
6.84632e-08
3.99876e-06
6.89203e-08
6.81449e-08
3.99783e-06
4.14973e-06
-2.51314e-07
4.1359e-06
-3.80375e-07
4.15788e-06
5.6373e-07
4.1685e-06
3.73332e-07
4.16949e-06
8.30451e-08
4.15246e-06
-3.31058e-08
4.15625e-06
-1.83206e-08
4.15063e-06
2.56168e-07
4.15483e-06
2.1458e-07
4.17375e-06
3.43519e-07
4.18224e-06
2.94038e-07
4.17025e-06
1.71652e-07
4.1734e-06
1.37317e-07
4.16689e-06
1.12593e-07
4.16059e-06
7.42221e-08
4.15194e-06
7.09214e-08
4.14679e-06
7.12148e-08
4.1429e-06
7.23517e-08
4.15145e-06
6.03779e-08
6.92692e-08
4.15032e-06
4.30774e-06
-2.41866e-07
4.29334e-06
-3.65976e-07
4.31647e-06
5.40597e-07
4.32599e-06
3.63816e-07
4.32718e-06
8.1853e-08
4.31135e-06
-1.72766e-08
4.31208e-06
-1.90447e-08
4.31242e-06
2.55821e-07
4.30909e-06
2.1791e-07
4.33467e-06
3.17941e-07
4.33233e-06
2.9638e-07
4.34559e-06
1.58394e-07
4.3507e-06
1.32207e-07
4.35513e-06
1.08161e-07
4.35208e-06
7.72696e-08
4.35619e-06
6.68125e-08
4.35476e-06
7.26435e-08
4.34569e-06
8.1422e-08
4.31562e-06
9.04509e-08
7.79654e-08
4.30692e-06
4.4718e-06
-2.3258e-07
4.45668e-06
-3.50852e-07
4.48126e-06
5.16011e-07
4.48921e-06
3.55867e-07
4.49141e-06
7.96545e-08
4.47524e-06
-1.11024e-09
4.47601e-06
-1.9809e-08
4.47643e-06
2.55396e-07
4.47448e-06
2.19865e-07
4.49521e-06
2.97208e-07
4.49684e-06
2.94748e-07
4.49046e-06
1.6478e-07
4.4916e-06
1.31064e-07
4.48801e-06
1.11752e-07
4.48106e-06
8.422e-08
4.47497e-06
7.29016e-08
4.46757e-06
8.00388e-08
4.46589e-06
8.31072e-08
4.47434e-06
8.19934e-08
7.96468e-08
4.47266e-06
4.64205e-06
-2.23419e-07
4.62646e-06
-3.35268e-07
4.65196e-06
4.90509e-07
4.65921e-06
3.48623e-07
4.66124e-06
7.76284e-08
4.64587e-06
1.42567e-08
4.6459e-06
-1.9837e-08
4.64658e-06
2.54712e-07
4.64629e-06
2.20154e-07
4.66095e-06
2.82549e-07
4.66842e-06
2.87282e-07
4.65908e-06
1.74118e-07
4.66126e-06
1.28882e-07
4.65644e-06
1.16576e-07
4.65197e-06
8.86879e-08
4.64403e-06
8.08385e-08
4.64278e-06
8.1287e-08
4.64083e-06
8.5063e-08
4.64324e-06
7.95773e-08
7.91347e-08
4.64376e-06
4.81879e-06
-2.14426e-07
4.80277e-06
-3.19248e-07
4.82892e-06
4.64363e-07
4.83605e-06
3.41489e-07
4.83688e-06
7.67985e-08
4.82375e-06
2.73894e-08
4.82118e-06
-1.72658e-08
4.82462e-06
2.51269e-07
4.82157e-06
2.23208e-07
4.83687e-06
2.67247e-07
4.84185e-06
2.82299e-07
4.83537e-06
1.80598e-07
4.83565e-06
1.28603e-07
4.83285e-06
1.19382e-07
4.82775e-06
9.37897e-08
4.82316e-06
8.54238e-08
4.82518e-06
7.92657e-08
4.82726e-06
8.29813e-08
4.82079e-06
8.60506e-08
7.9502e-08
4.82042e-06
5.0023e-06
-2.05656e-07
4.98581e-06
-3.02758e-07
5.01249e-06
4.37686e-07
5.01968e-06
3.34301e-07
5.01936e-06
7.71105e-08
5.00793e-06
3.88269e-08
5.00391e-06
-1.32532e-08
5.00854e-06
2.46641e-07
5.00404e-06
2.27707e-07
5.01827e-06
2.53014e-07
5.02442e-06
2.76153e-07
5.01819e-06
1.86824e-07
5.01731e-06
1.29491e-07
5.01571e-06
1.20977e-07
5.01124e-06
9.82594e-08
5.00713e-06
8.95372e-08
5.00279e-06
8.36015e-08
4.9986e-06
8.71775e-08
5.00398e-06
8.06714e-08
7.93308e-08
5.00415e-06
5.19274e-06
-1.97082e-07
5.1761e-06
-2.86115e-07
5.20267e-06
4.11114e-07
5.21088e-06
3.26088e-07
5.20829e-06
7.97012e-08
5.19925e-06
4.78623e-08
5.19347e-06
-7.46682e-09
5.19943e-06
2.40681e-07
5.19329e-06
2.33844e-07
5.20631e-06
2.39994e-07
5.21357e-06
2.68896e-07
5.20833e-06
1.9206e-07
5.20615e-06
1.31673e-07
5.20526e-06
1.21872e-07
5.20157e-06
1.01948e-07
5.19793e-06
9.31797e-08
5.19685e-06
8.46724e-08
5.1998e-06
8.42272e-08
5.19483e-06
8.56446e-08
7.94035e-08
5.19476e-06
5.39045e-06
-1.88755e-07
5.37367e-06
-2.69336e-07
5.39993e-06
3.84854e-07
5.40945e-06
3.1657e-07
5.40477e-06
8.43838e-08
5.39713e-06
5.55024e-08
5.39063e-06
-9.74937e-10
5.39676e-06
2.34556e-07
5.39042e-06
2.40186e-07
5.40121e-06
2.29202e-07
5.41011e-06
2.59993e-07
5.40564e-06
1.96534e-07
5.40252e-06
1.34792e-07
5.40193e-06
1.2246e-07
5.39925e-06
1.04623e-07
5.39545e-06
9.69813e-08
5.39156e-06
8.8561e-08
5.38898e-06
8.68127e-08
5.39226e-06
8.23633e-08
7.88802e-08
5.39278e-06
5.59564e-06
-1.80658e-07
5.57893e-06
-2.52624e-07
5.60454e-06
3.59247e-07
5.61569e-06
3.05421e-07
5.60912e-06
9.09526e-08
5.60199e-06
6.26253e-08
5.59513e-06
5.88875e-09
5.60143e-06
2.28257e-07
5.59527e-06
2.46351e-07
5.60395e-06
2.20514e-07
5.61401e-06
2.49941e-07
5.6104e-06
2.00142e-07
5.60682e-06
1.3837e-07
5.6061e-06
1.23183e-07
5.60403e-06
1.06686e-07
5.60088e-06
1.00132e-07
5.59775e-06
9.16945e-08
5.59683e-06
8.77347e-08
5.59752e-06
8.16723e-08
7.81698e-08
5.59823e-06
5.80861e-06
-1.72786e-07
5.79216e-06
-2.36181e-07
5.8167e-06
3.34707e-07
5.8299e-06
2.92225e-07
5.82167e-06
9.91858e-08
5.81444e-06
6.98491e-08
5.80678e-06
1.35484e-08
5.814e-06
2.21042e-07
5.80809e-06
2.52264e-07
5.81484e-06
2.13762e-07
5.82543e-06
2.39349e-07
5.82311e-06
2.02462e-07
5.81909e-06
1.42391e-07
5.81804e-06
1.24235e-07
5.81636e-06
1.08359e-07
5.8144e-06
1.02093e-07
5.81283e-06
9.3269e-08
5.81418e-06
8.63861e-08
5.81081e-06
8.50357e-08
7.75582e-08
5.81142e-06
6.02966e-06
-1.6515e-07
6.01351e-06
-2.20032e-07
6.03696e-06
3.11263e-07
6.05146e-06
2.77721e-07
6.04305e-06
1.076e-07
6.03413e-06
7.87637e-08
6.02671e-06
2.09701e-08
6.03414e-06
2.13611e-07
6.02948e-06
2.5693e-07
6.03385e-06
2.09391e-07
6.04488e-06
2.28319e-07
6.04379e-06
2.03548e-07
6.03965e-06
1.46532e-07
6.03819e-06
1.25693e-07
6.03686e-06
1.09689e-07
6.03552e-06
1.03435e-07
6.03187e-06
9.69181e-08
6.02881e-06
8.94515e-08
6.03188e-06
8.19661e-08
7.66751e-08
6.03276e-06
6.25906e-06
-1.57706e-07
6.24341e-06
-2.0439e-07
6.26552e-06
2.89162e-07
6.28103e-06
2.62204e-07
6.2729e-06
1.15734e-07
6.26288e-06
8.87807e-08
6.25486e-06
2.89969e-08
6.26277e-06
2.05699e-07
6.25935e-06
2.60344e-07
6.2616e-06
2.07144e-07
6.27255e-06
2.17368e-07
6.27288e-06
2.03215e-07
6.2687e-06
1.50716e-07
6.26701e-06
1.2738e-07
6.26559e-06
1.11109e-07
6.26499e-06
1.04036e-07
6.26385e-06
9.80565e-08
6.26478e-06
8.85283e-08
6.26165e-06
8.50959e-08
7.59703e-08
6.26235e-06
6.49716e-06
-1.50459e-07
6.48205e-06
-1.89285e-07
6.50274e-06
2.6847e-07
6.51892e-06
2.46027e-07
6.51179e-06
1.22868e-07
6.50076e-06
9.98028e-08
6.4919e-06
3.78567e-08
6.50006e-06
1.97547e-07
6.49802e-06
2.62377e-07
6.49851e-06
2.06662e-07
6.5088e-06
2.07076e-07
6.51064e-06
2.01376e-07
6.50658e-06
1.54774e-07
6.50473e-06
1.29225e-07
6.50312e-06
1.12724e-07
6.50296e-06
1.04194e-07
6.50053e-06
1.00491e-07
6.49788e-06
9.11793e-08
6.49999e-06
8.29797e-08
7.52732e-08
6.50069e-06
6.74424e-06
-1.43356e-07
6.72973e-06
-1.74775e-07
6.74911e-06
2.49088e-07
6.76562e-06
2.29518e-07
6.75989e-06
1.28595e-07
6.74802e-06
1.11676e-07
6.73829e-06
4.75864e-08
6.74638e-06
1.89455e-07
6.7458e-06
2.62955e-07
6.74482e-06
2.07646e-07
6.7539e-06
1.97991e-07
6.75726e-06
1.98019e-07
6.75355e-06
1.58483e-07
6.75168e-06
1.31101e-07
6.74978e-06
1.14615e-07
6.74999e-06
1.03993e-07
6.74971e-06
1.00766e-07
6.75057e-06
9.03172e-08
6.74768e-06
8.58682e-08
7.49104e-08
6.74805e-06
7.00069e-06
-1.36391e-07
6.98678e-06
-1.60867e-07
7.00487e-06
2.30992e-07
7.02149e-06
2.12903e-07
7.01768e-06
1.32397e-07
7.005e-06
1.2436e-07
6.99432e-06
5.82673e-08
7.00204e-06
1.81737e-07
7.00287e-06
2.62123e-07
7.00092e-06
2.09592e-07
7.00844e-06
1.90478e-07
7.01319e-06
1.93261e-07
7.01003e-06
1.61645e-07
7.0081e-06
1.3303e-07
7.00609e-06
1.16625e-07
7.00622e-06
1.03871e-07
7.00507e-06
1.01917e-07
7.0031e-06
9.22858e-08
7.00463e-06
8.43357e-08
7.48238e-08
7.00472e-06
7.26679e-06
-1.29495e-07
7.25348e-06
-1.47555e-07
7.27052e-06
2.1395e-07
7.28711e-06
1.9632e-07
7.2859e-06
1.33603e-07
7.27198e-06
1.38282e-07
7.26042e-06
6.98288e-08
7.26743e-06
1.74722e-07
7.26956e-06
2.59999e-07
7.26713e-06
2.1202e-07
7.27284e-06
1.84769e-07
7.27859e-06
1.87505e-07
7.27624e-06
1.64004e-07
7.27438e-06
1.34882e-07
7.27226e-06
1.18744e-07
7.27226e-06
1.03874e-07
7.27284e-06
1.01338e-07
7.2739e-06
9.12206e-08
7.27161e-06
8.66309e-08
7.51276e-08
7.2713e-06
7.54299e-06
-1.22653e-07
7.53036e-06
-1.34928e-07
7.54624e-06
1.98069e-07
7.56288e-06
1.79683e-07
7.56307e-06
1.33409e-07
7.54907e-06
1.52282e-07
7.53713e-06
8.17681e-08
7.54297e-06
1.68885e-07
7.5462e-06
2.56766e-07
7.54376e-06
2.14461e-07
7.54759e-06
1.8094e-07
7.55393e-06
1.81162e-07
7.55261e-06
1.65324e-07
7.55082e-06
1.36681e-07
7.54879e-06
1.20772e-07
7.54847e-06
1.04191e-07
7.54839e-06
1.01421e-07
7.54706e-06
9.25455e-08
7.54848e-06
8.52137e-08
7.55728e-08
7.54803e-06
7.82956e-06
-1.15754e-07
7.81802e-06
-1.23391e-07
7.83212e-06
1.83965e-07
7.84958e-06
1.62231e-07
7.84968e-06
1.33305e-07
7.83665e-06
1.65312e-07
7.82491e-06
9.35033e-08
7.8289e-06
1.64902e-07
7.83314e-06
2.52521e-07
7.83112e-06
2.16481e-07
7.83325e-06
1.7881e-07
7.83963e-06
1.74784e-07
7.8394e-06
1.65554e-07
7.83782e-06
1.38265e-07
7.83594e-06
1.22647e-07
7.83522e-06
1.04908e-07
7.83616e-06
1.0049e-07
7.83725e-06
9.14501e-08
7.83596e-06
8.65024e-08
7.61295e-08
7.83541e-06
8.12697e-06
-1.08768e-07
8.11671e-06
-1.13122e-07
8.12876e-06
1.71912e-07
8.14687e-06
1.44118e-07
8.14979e-06
1.30388e-07
8.14653e-06
1.68568e-07
8.12458e-06
1.15454e-07
8.12551e-06
1.63974e-07
8.13085e-06
2.47179e-07
8.12952e-06
2.17808e-07
8.13014e-06
1.78198e-07
8.13608e-06
1.68836e-07
8.13706e-06
1.64575e-07
8.1357e-06
1.39629e-07
8.13406e-06
1.24284e-07
8.13307e-06
1.05896e-07
8.13346e-06
1.00106e-07
8.13295e-06
9.19527e-08
8.13429e-06
8.51652e-08
7.66548e-08
8.13377e-06
8.43568e-06
-1.01687e-07
8.4262e-06
-1.03644e-07
8.43745e-06
1.60659e-07
8.45446e-06
1.27109e-07
8.45986e-06
1.24994e-07
8.44538e-06
1.83045e-07
8.4315e-06
1.29336e-07
8.43379e-06
1.61679e-07
8.43983e-06
2.41138e-07
8.43932e-06
2.18328e-07
8.43879e-06
1.78724e-07
8.44386e-06
1.63761e-07
8.44588e-06
1.62557e-07
8.44484e-06
1.40671e-07
8.4436e-06
1.25528e-07
8.44239e-06
1.07098e-07
8.44297e-06
9.95325e-08
8.44358e-06
9.13437e-08
8.44375e-06
8.49882e-08
7.68927e-08
8.44352e-06
8.75602e-06
-9.44189e-08
8.7479e-06
-9.55226e-08
8.7567e-06
1.51853e-07
8.77091e-06
1.12905e-07
8.77141e-06
1.24493e-07
8.76244e-06
1.92008e-07
8.75118e-06
1.40604e-07
8.75383e-06
1.59025e-07