/*--------------------------------*- C++ -*----------------------------------*\
| =========                 |                                                 |
| \\      /  F ield         | OpenFOAM: The Open Source CFD Toolbox           |
|  \\    /   O peration     | Version:  v2012                                 |
|   \\  /    A nd           | Website:  www.openfoam.com                      |
|    \\/     M anipulation  |                                                 |
\*---------------------------------------------------------------------------*/
FoamFile
{
    version     2.0;
    format      ascii;
    class       volScalarField;
    location    "8.8";
    object      p;
}
// * * * * * * * * * * * * * * * * * * * * * * * * * * * * * * * * * * * * * //

dimensions      [0 2 -2 0 0 0 0];


internalField   nonuniform List<scalar> 
7000
(
1.14235e-08
0.0039237
0.0059159
0.00458133
0.0044961
0.00609007
0.00731326
0.0102772
0.0109507
0.011609
0.0100608
0.0113004
0.0100014
0.0117719
0.0106488
0.0127406
0.0126599
0.0151708
0.0161345
0.0192899
5.52065e-06
0.00392236
0.00591616
0.00459298
0.00449726
0.00609163
0.00731146
0.0102611
0.0109533
0.0115869
0.0100749
0.0112945
0.0100134
0.01177
0.0106622
0.0127341
0.0126742
0.015141
0.0161416
0.0191469
1.30708e-05
0.00392468
0.00592059
0.00460538
0.00449994
0.00609113
0.00730448
0.0102377
0.0109512
0.011566
0.0100894
0.0112875
0.0100333
0.0117593
0.0106923
0.0127099
0.0127068
0.015084
0.0161492
0.0189283
2.26599e-05
0.00394242
0.00592438
0.00461901
0.00450778
0.00608666
0.00729628
0.0102154
0.0109431
0.0115512
0.0101018
0.0112819
0.0100587
0.0117411
0.0107369
0.012671
0.0127473
0.0150125
0.0161468
0.0186896
3.65424e-05
0.00397467
0.00592329
0.00463379
0.0045225
0.00607922
0.00728948
0.0101937
0.0109321
0.0115414
0.0101143
0.0112761
0.0100887
0.0117172
0.0107913
0.0126229
0.0127888
0.0149338
0.016131
0.0184562
5.60868e-05
0.00401559
0.00591448
0.00464995
0.00454457
0.00607112
0.00728453
0.0101713
0.0109208
0.0115343
0.0101283
0.0112685
0.0101228
0.0116889
0.0108522
0.0125716
0.0128296
0.014852
0.0161006
0.018235
8.15058e-05
0.0040609
0.00589729
0.00466778
0.00457347
0.00606476
0.00728147
0.010148
0.0109105
0.0115278
0.0101445
0.0112574
0.0101608
0.0116572
0.0109184
0.0125206
0.0128697
0.0147697
0.0160566
0.0180246
0.000112248
0.00410856
0.00587281
0.00468733
0.00460832
0.0060622
0.00728053
0.0101237
0.0109016
0.0115198
0.0101633
0.0112421
0.0102028
0.0116227
0.0109893
0.012472
0.0129094
0.0146891
0.0160009
0.0178223
0.000147316
0.00415766
0.00584311
0.00470838
0.0046485
0.00606469
0.00728185
0.0100985
0.0108938
0.0115089
0.010185
0.011222
0.0102489
0.0115856
0.0110639
0.0124269
0.0129477
0.0146123
0.0159356
0.0176271
0.000185571
0.00420792
0.0058105
0.00473052
0.00469365
0.00607261
0.00728553
0.0100722
0.0108863
0.0114941
0.0102096
0.0111968
0.0102988
0.0115463
0.0111412
0.0123862
0.0129833
0.0145412
0.015862
0.0174388
0.00022603
0.00425943
0.00577684
0.00475332
0.00474349
0.00608576
0.00729171
0.010045
0.0108788
0.0114745
0.0102369
0.0111663
0.0103523
0.0115053
0.0112196
0.0123506
0.0130145
0.0144765
0.0157814
0.0172569
0.000268052
0.00431229
0.00574331
0.00477641
0.00479762
0.00610367
0.00730046
0.0100168
0.010871
0.0114493
0.0102671
0.0111306
0.0104091
0.0114634
0.0112975
0.0123214
0.0130398
0.014418
0.0156948
0.0170807
0.00031134
0.00436644
0.00571048
0.00479951
0.00485562
0.00612588
0.0073117
0.00998757
0.0108627
0.011418
0.0103
0.0110898
0.0104686
0.0114218
0.0113727
0.0122995
0.0130582
0.0143648
0.0156035
0.0169088
0.000355839
0.00442163
0.00567845
0.00482238
0.00491696
0.00615194
0.00732531
0.00995722
0.0108541
0.0113804
0.0103355
0.0110443
0.01053
0.0113819
0.0114432
0.0122857
0.013069
0.0143157
0.0155089
0.0167407
0.000401618
0.00447754
0.0056472
0.00484483
0.00498117
0.00618142
0.00734109
0.00992566
0.0108455
0.0113364
0.0103736
0.0109945
0.0105924
0.0113455
0.011507
0.0122802
0.0130718
0.0142695
0.0154123
0.0165761
0.000448777
0.00453386
0.00561663
0.00486672
0.00504789
0.00621387
0.00735879
0.00989275
0.0108373
0.0112862
0.0104141
0.0109412
0.0106541
0.011314
0.0115623
0.0122828
0.0130671
0.0142246
0.0153153
0.0164153
0.000497416
0.00459036
0.00558676
0.00488794
0.00511673
0.00624878
0.00737818
0.00985833
0.0108301
0.0112303
0.0104567
0.0108856
0.0107133
0.0112893
0.011608
0.0122919
0.0130555
0.014179
0.0152186
0.0162588
0.000547627
0.00464687
0.00555763
0.00490843
0.00518738
0.00628557
0.00739901
0.00982222
0.0108243
0.0111695
0.010501
0.0108293
0.0107679
0.0112726
0.0116436
0.012306
0.0130379
0.0141305
0.015122
0.0161063
0.000599507
0.00470327
0.00552933
0.00492815
0.00525957
0.00632365
0.00742108
0.00978424
0.0108202
0.0111046
0.010546
0.0107742
0.0108162
0.0112646
0.0116692
0.0123234
0.0130156
0.0140773
0.0150251
0.0159572
0.000653159
0.00475951
0.005502
0.00494708
0.00533308
0.00636242
0.0074442
0.00974425
0.0108182
0.0110367
0.0105907
0.0107222
0.0108566
0.0112658
0.011685
0.0123419
0.0129892
0.0140175
0.0149279
0.0158114
0.000708692
0.00481556
0.00547581
0.00496523
0.00540774
0.00640138
0.00746822
0.00970218
0.0108182
0.0109668
0.0106336
0.0106754
0.0108874
0.0112761
0.0116922
0.0123584
0.0129606
0.01395
0.0148279
0.015669
0.000766214
0.00487138
0.00545096
0.00498261
0.00548347
0.00644015
0.00749305
0.00965807
0.0108204
0.0108964
0.0106729
0.0106356
0.0109083
0.0112947
0.0116922
0.0123695
0.0129319
0.013876
0.0147235
0.0155279
0.000825829
0.00492692
0.00542765
0.00499926
0.00556022
0.00647852
0.00751869
0.00961203
0.0108241
0.010827
0.0107069
0.0106034
0.0109188
0.01132
0.0116869
0.0123728
0.0129015
0.0137975
0.0146164
0.0153876
0.000887633
0.0049821
0.00540614
0.00501517
0.00563803
0.00651641
0.0075452
0.00956427
0.0108288
0.01076
0.0107346
0.0105797
0.0109187
0.0113501
0.0116789
0.0123671
0.0128684
0.0137137
0.0145066
0.0152496
0.000951714
0.00503682
0.00538667
0.00503036
0.00571692
0.00655388
0.00757267
0.0095152
0.0108336
0.0106966
0.0107546
0.0105652
0.0109089
0.0113829
0.0116699
0.0123516
0.0128326
0.0136248
0.0143928
0.0151139
0.00101815
0.00509092
0.0053695
0.00504484
0.0057969
0.00659109
0.00760115
0.00946536
0.0108375
0.0106383
0.0107656
0.0105594
0.0108902
0.0114163
0.0116617
0.0123249
0.0127942
0.0135326
0.014275
0.01498
0.00108701
0.00514429
0.0053549
0.00505862
0.00587797
0.00662837
0.00763031
0.00941584
0.010839
0.010586
0.0107677
0.0105614
0.0108639
0.0114462
0.0116563
0.0122865
0.0127513
0.0134413
0.0141554
0.0148461
0.00115838
0.00519676
0.00534314
0.00507178
0.00596007
0.006666
0.0076599
0.00936732
0.0108377
0.0105394
0.0107605
0.0105707
0.0108327
0.011469
0.0116538
0.0122393
0.0126979
0.0133492
0.0140387
0.0147123
0.00123231
0.00524819
0.0053345
0.00508435
0.00604315
0.0067041
0.00769001
0.00932012
0.0108325
0.0105002
0.0107437
0.0105855
0.0107988
0.0114841
0.0116523
0.0121882
0.0126435
0.0132566
0.0139139
0.0145805
0.00130887
0.00529847
0.00532927
0.00509644
0.00612687
0.00674364
0.00771926
0.00927615
0.0108219
0.0104682
0.0107186
0.0106037
0.0107633
0.0114904
0.0116499
0.0121269
0.0125766
0.0131711
0.0138078
0.0144505
0.00138818
0.00534745
0.00532759
0.00510831
0.00621089
0.00678499
0.00774735
0.00923515
0.0108064
0.0104428
0.0106845
0.0106244
0.0107288
0.0114863
0.0116473
0.0120562
0.0124912
0.0130838
0.0137236
0.0143224
0.00147025
0.0053951
0.00532955
0.0051203
0.00629487
0.00682844
0.00777422
0.00919713
0.010786
0.0104238
0.0106444
0.0106425
0.010698
0.0114709
0.0116454
0.0119901
0.0124154
0.0129856
0.0136014
0.014201
0.00155513
0.00544132
0.00533549
0.0051324
0.00637854
0.00687481
0.00779828
0.00916421
0.01076
0.010408
0.0106049
0.0106529
0.0106737
0.011444
0.0116412
0.0119192
0.0123059
0.012873
0.0135125
0.0140941
0.00164317
0.00548586
0.00534547
0.00514492
0.00646137
0.00692381
0.00782095
0.00913363
0.0107312
0.0103944
0.0105629
0.0106596
0.0106515
0.0114092
0.011635
0.011861
0.012213
0.0127369
0.0133466
0.0140009
0.00173415
0.00552881
0.00535916
0.00515895
0.00654185
0.00697738
0.0078407
0.00910704
0.0106968
0.0103857
0.0105163
0.0106672
0.0106284
0.0113658
0.0116116
0.0117837
0.0120791
0.012615
0.0132447
0.0139113
0.00182804
0.00557022
0.00537687
0.00517429
0.00662035
0.00703536
0.00785644
0.00908589
0.0106567
0.0103801
0.010469
0.0106685
0.0106114
0.0113088
0.0115706
0.0116973
0.0118519
0.0125018
0.0132311
0.0138251
0.00192556
0.0056096
0.00539848
0.00519126
0.00669668
0.00709608
0.00787221
0.0090631
0.0106216
0.0103659
0.0104265
0.0106607
0.0105903
0.011253
0.0115385
0.0116276
0.0118317
0.0123538
0.0130288
0.013751
0.00202616
0.00564736
0.00542297
0.00521161
0.00676871
0.00716267
0.00788461
0.00904274
0.0105831
0.0103573
0.0103769
0.0106555
0.0105685
0.0111716
0.011489
0.0115658
0.0117207
0.0122255
0.0129272
0.0136776
0.00212959
0.00568375
0.00545077
0.00523487
0.00683753
0.00723392
0.00789382
0.00902505
0.0105407
0.0103547
0.0103204
0.010645
0.0105566
0.011064
0.0114145
0.011497
0.0115997
0.01212
0.0129513
0.0135968
0.00223707
0.00571793
0.00548189
0.00526115
0.00690328
0.00730602
0.00790878
0.0089993
0.010511
0.0103354
0.0102671
0.0106163
0.0105431
0.0109996
0.0113468
0.0114243
0.0115262
0.0119379
0.0126497
0.0135192
0.00234752
0.005751
0.0055147
0.00529268
0.00696375
0.00738296
0.00792241
0.00897433
0.0104761
0.0103308
0.0102091
0.0105827
0.0105235
0.0109034
0.0112574
0.0113527
0.011432
0.0118124
0.0125207
0.0134407
0.0024606
0.00578336
0.00554958
0.00532851
0.00702068
0.00746383
0.00793375
0.00895106
0.0104318
0.0103421
0.0101494
0.0105317
0.0104945
0.010799
0.0111486
0.0112742
0.0113201
0.0117429
0.0125948
0.0133523
0.00257794
0.00581389
0.0055866
0.00536837
0.00707532
0.00754206
0.00795923
0.00891718
0.0103999
0.0103349
0.0100904
0.0104758
0.0104856
0.0107188
0.0110451
0.0111772
0.0112431
0.0115352
0.0122207
0.0132707
0.00269747
0.00584472
0.00562379
0.00541434
0.00712565
0.00762306
0.00798227
0.00888901
0.0103525
0.0103422
0.0100395
0.0103891
0.010463
0.0106473
0.0109176
0.0110703
0.0111419
0.0114105
0.0120932
0.0131923
0.00281958
0.00587599
0.00566186
0.0054648
0.00717467
0.00770447
0.00800092
0.00886764
0.0102888
0.0103594
0.00999235
0.0102864
0.0104253
0.0105771
0.0107719
0.0109458
0.0109973
0.0113763
0.0122347
0.0131059
0.00294574
0.00590626
0.00570166
0.00551805
0.00722566
0.00777718
0.00804323
0.00883611
0.0102362
0.0103583
0.00995256
0.0102084
0.0103963
0.010516
0.0106431
0.0107968
0.0108438
0.0111169
0.0118234
0.013048
0.0030732
0.00593852
0.00574104
0.00557574
0.0072764
0.0078471
0.00808396
0.00880936
0.0101722
0.0103527
0.00992816
0.0101231
0.0103499
0.010453
0.0105092
0.0105651
0.010649
0.0108796
0.0116494
0.0130381
0.00320345
0.00597262
0.00578072
0.00563655
0.00732793
0.00791621
0.00812166
0.00878862
0.0100986
0.010345
0.00990466
0.0100344
0.0102892
0.0103928
0.0103787
0.0104018
0.0104596
0.0107084
0.0115303
0.0130042
0.00333661
0.0060075
0.00582189
0.00569855
0.00738171
0.00798379
0.00816051
0.00877
0.0100244
0.0103256
0.00988593
0.00994996
0.0102132
0.0103316
0.010264
0.0102311
0.0102868
0.0105672
0.0114095
0.0129646
0.00347105
0.00604505
0.00586472
0.00576037
0.00743735
0.00805087
0.008194
0.00875366
0.0099467
0.0102995
0.00987598
0.00986319
0.0101208
0.0102702
0.010164
0.0100722
0.0101243
0.0104294
0.011314
0.0129295
0.0036079
0.00608508
0.00591003
0.00582078
0.00749475
0.00811836
0.00822611
0.00873587
0.00987142
0.0102684
0.00986754
0.00977888
0.010022
0.0102045
0.0100718
0.00992644
0.0099781
0.010314
0.0112219
0.0128889
0.00374667
0.00612693
0.00595903
0.0058794
0.00755199
0.00818755
0.0082566
0.00871796
0.00979549
0.0102293
0.00986202
0.00970418
0.00991442
0.0101255
0.00998965
0.00980289
0.00983785
0.0101924
0.011137
0.0128452
0.00388726
0.00617133
0.00601238
0.00593505
0.00760718
0.00825937
0.00828816
0.00869779
0.009718
0.0101832
0.00985865
0.00963692
0.00979891
0.0100384
0.00992
0.00969749
0.00970092
0.0100758
0.0110487
0.0128029
0.00402981
0.006218
0.00607015
0.00598844
0.00765863
0.00833397
0.0083216
0.00867591
0.00964013
0.010131
0.00985525
0.00958006
0.00968109
0.00994122
0.00984995
0.00960385
0.0095775
0.00996574
0.01097
0.0127583
0.00417416
0.0062671
0.00613303
0.00603983
0.00770396
0.00841084
0.00835912
0.00865262
0.00956173
0.0100731
0.00985024
0.00953504
0.0095626
0.00983131
0.00978602
0.00952943
0.00947887
0.00986205
0.0108761
0.0127134
0.00432039
0.00631848
0.00620102
0.00609024
0.00774126
0.0084887
0.00840239
0.00862839
0.00948192
0.0100098
0.00984214
0.00950246
0.00944823
0.0097106
0.00971179
0.00946827
0.00939342
0.00975443
0.010793
0.0126781
0.00446846
0.00637279
0.00627325
0.00614161
0.00776942
0.00856411
0.00845253
0.00860592
0.00940201
0.0099418
0.00982768
0.00948099
0.00934148
0.00957969
0.00963002
0.00941013
0.00931881
0.00966853
0.0107226
0.0126451
0.0046176
0.00643068
0.00634999
0.00619501
0.00778579
0.00863376
0.00851265
0.00858662
0.00932266
0.00986981
0.0098047
0.00946835
0.00924592
0.00944156
0.00953867
0.00935298
0.0092611
0.00960237
0.0106616
0.0126087
0.00476829
0.00649087
0.00643356
0.00625009
0.00779127
0.00869432
0.0085835
0.00857577
0.00924776
0.0097968
0.00977347
0.00946106
0.00916586
0.00930017
0.00943602
0.00929751
0.00921895
0.00955085
0.0106039
0.0125749
0.00492118
0.00655323
0.00652274
0.00630714
0.00779335
0.00874195
0.00863378
0.00857744
0.00918205
0.00972545
0.0097338
0.00945464
0.00910407
0.0091602
0.00932161
0.00924002
0.00918298
0.00951079
0.0105627
0.0125509
0.00507465
0.00661926
0.00661684
0.00637075
0.00778563
0.00876904
0.00869176
0.008594
0.00912532
0.00965616
0.00968703
0.00944499
0.00906039
0.00903014
0.00919359
0.00917449
0.00915329
0.00948708
0.0105363
0.0125344
0.00522959
0.00668745
0.00671586
0.00644246
0.00776464
0.00878097
0.00875708
0.00862064
0.00907257
0.00958696
0.00963359
0.00942801
0.0090324
0.00888923
0.00905457
0.00909875
0.00912572
0.00947413
0.010522
0.0125229
0.00538634
0.00675622
0.00681942
0.00652143
0.00773738
0.0087801
0.00882237
0.00865736
0.00902448
0.00951696
0.00957606
0.00940209
0.00901684
0.00878587
0.00891247
0.00901049
0.00909534
0.00947022
0.0105179
0.01252
0.00554406
0.00682678
0.00692386
0.00660824
0.00771002
0.00876567
0.00888243
0.00870244
0.00898282
0.00944809
0.00951792
0.00936703
0.0090087
0.00871082
0.00877543
0.00890808
0.00905646
0.00947175
0.0105275
0.0125282
0.00570311
0.00689558
0.00702648
0.00670306
0.00768725
0.00873927
0.00893257
0.00875354
0.00894947
0.00938029
0.00946028
0.00932361
0.00900261
0.00866042
0.00865167
0.00879477
0.00900499
0.00947334
0.0105473
0.0125448
0.00586327
0.00696915
0.0071266
0.006805
0.0076718
0.00870321
0.00897046
0.00880914
0.0089257
0.00931354
0.00940388
0.00927392
0.00899068
0.00862747
0.0085459
0.00867873
0.00894118
0.00946875
0.0105717
0.0125689
0.00602431
0.00704451
0.00722366
0.00691247
0.00766562
0.00866088
0.00899476
0.00886537
0.00891192
0.00924858
0.00934809
0.0092208
0.00897013
0.00860529
0.00846164
0.00856996
0.00886703
0.00945141
0.0105936
0.0125984
0.00618594
0.00712193
0.00731754
0.00702364
0.00766952
0.00861569
0.00900547
0.00891854
0.00890786
0.00918631
0.00929257
0.00916776
0.00894165
0.00858866
0.008398
0.00847181
0.00878434
0.00941954
0.0106075
0.0126285
0.00634787
0.00720163
0.00740819
0.00713686
0.0076837
0.00857062
0.00900327
0.00896544
0.00891242
0.00912864
0.00923743
0.00911594
0.00890668
0.0085721
0.0083488
0.00838563
0.00870146
0.00937644
0.0106076
0.0126538
0.00650971
0.00728383
0.0074958
0.00725056
0.00770769
0.00852809
0.00898983
0.0090039
0.00892419
0.00907719
0.0091817
0.00906504
0.00886751
0.00855397
0.00831085
0.00831485
0.00862297
0.00932175
0.0105921
0.012672
0.0066711
0.0073688
0.00758066
0.00736319
0.00774063
0.00849019
0.0089676
0.00903256
0.00894074
0.00903243
0.00912537
0.00901587
0.00882612
0.00853377
0.00828076
0.00825593
0.00854764
0.00926053
0.0105664
0.0126826
0.00683168
0.00745653
0.00766307
0.00747381
0.00778157
0.00845829
0.00893886
0.00905059
0.00895943
0.00899507
0.00906945
0.00896787
0.00878279
0.00851053
0.00825408
0.00820525
0.00847968
0.00920009
0.0105325
0.0126833
0.00699107
0.0075471
0.00774345
0.00758143
0.00782913
0.00843328
0.00890619
0.00905805
0.00897788
0.00896512
0.0090221
0.00892098
0.00873787
0.00848384
0.00822946
0.00816318
0.00842048
0.00914003
0.0104916
0.0126763
0.00714883
0.00764046
0.00782238
0.00768536
0.007882
0.00841554
0.00887176
0.00905553
0.00899386
0.00894143
0.00897213
0.00887478
0.00869195
0.00845382
0.00820646
0.00812737
0.00836715
0.0090819
0.0104494
0.0126647
0.00730466
0.00773644
0.00790016
0.00778513
0.00793887
0.00840515
0.00883766
0.00904408
0.00900539
0.00892317
0.00892325
0.00882888
0.0086456
0.00842012
0.00818285
0.00809499
0.00831996
0.00902895
0.0104075
0.0126482
0.00745817
0.00783483
0.00797731
0.00788051
0.00799831
0.00840162
0.00880545
0.00902539
0.00901095
0.00890931
0.00887626
0.00878263
0.00859948
0.00838247
0.00815683
0.0080652
0.00827849
0.00897971
0.0103649
0.0126279
0.00760909
0.00793522
0.00805413
0.00797156
0.00805919
0.00840434
0.00877619
0.00900141
0.00900956
0.00889817
0.00883183
0.00873499
0.00855347
0.00834152
0.00812804
0.00803677
0.00824046
0.00893338
0.0103231
0.0126055
0.00775702
0.00803739
0.008131
0.00805817
0.00812034
0.00841259
0.00875063
0.00897411
0.00900073
0.00888763
0.00879088
0.00868556
0.00850665
0.00829804
0.00809589
0.00800791
0.0082052
0.00889083
0.0102825
0.0125801
0.00790172
0.00814072
0.00820811
0.00814075
0.00818098
0.00842553
0.00872882
0.00894498
0.00898491
0.00887548
0.00875368
0.00863478
0.00845786
0.00825177
0.00805937
0.00797755
0.0081722
0.00885117
0.0102421
0.012551
0.00804295
0.00824483
0.00828546
0.00821944
0.00824045
0.00844241
0.00871082
0.00891504
0.00896323
0.00885943
0.00871967
0.00858399
0.00840623
0.00820201
0.00801768
0.00794416
0.00813887
0.0088124
0.0102011
0.012518
0.00818036
0.00834915
0.00836319
0.00829467
0.00829811
0.00846228
0.00869643
0.00888473
0.00893698
0.00883836
0.00868724
0.00853445
0.00835224
0.00814883
0.00797036
0.00790543
0.00810297
0.00877365
0.0101597
0.0124811
0.00831384
0.00845316
0.00844094
0.00836681
0.00835375
0.00848425
0.00868557
0.00885409
0.00890748
0.00881146
0.00865186
0.00848521
0.00829646
0.00809244
0.00791697
0.00785974
0.00806284
0.00873365
0.0101176
0.0124409
0.00844301
0.00855633
0.0085186
0.00843625
0.00840734
0.00850718
0.00867797
0.00882311
0.00887521
0.00877922
0.00861093
0.00843403
0.0082384
0.00803273
0.00785761
0.00780581
0.00801527
0.00868864
0.0100722
0.0123959
0.00856769
0.00865832
0.00859555
0.00850292
0.00845926
0.00853082
0.00867353
0.00879174
0.00883858
0.00874574
0.00856584
0.00837892
0.00817694
0.0079694
0.00779309
0.0077431
0.00795731
0.00863438
0.0100194
0.0123435
0.00868723
0.00875864
0.00867246
0.00856668
0.00850851
0.00855433
0.00867239
0.00876195
0.00879615
0.00870991
0.0085186
0.00831856
0.00811035
0.00790118
0.00772381
0.00767242
0.00788836
0.00856819
0.00995536
0.0122806
0.00880143
0.00885618
0.00874881
0.00862971
0.00855633
0.00857505
0.00867097
0.00873522
0.00874835
0.00866821
0.00847045
0.00825454
0.0080379
0.00782616
0.00764859
0.00759442
0.00780923
0.00848939
0.00987814
0.0122048
0.00890994
0.00895089
0.00882309
0.00868957
0.00860594
0.00859872
0.00866737
0.00870739
0.00869433
0.00861811
0.00842068
0.00818869
0.00795917
0.00774176
0.007564
0.00750736
0.00771912
0.00839671
0.00978497
0.0121137
0.00901187
0.00904252
0.00889695
0.00874631
0.00865
0.00862325
0.00866818
0.00868592
0.00863776
0.00855455
0.00836533
0.00812145
0.00787654
0.00764833
0.00746814
0.00740898
0.00761519
0.00828686
0.00967168
0.0120001
0.00910758
0.00912964
0.00897062
0.00880471
0.00869227
0.00863857
0.00865457
0.00866139
0.0085824
0.00848394
0.00830487
0.00805641
0.0077966
0.0075533
0.00736559
0.00730204
0.0075023
0.00816617
0.00954233
0.0118633
0.00919373
0.00921406
0.00904313
0.00886853
0.00875564
0.00867368
0.00863062
0.00860931
0.00851588
0.00839897
0.00823081
0.00798396
0.00771127
0.0074503
0.00724939
0.0071776
0.00736981
0.00802334
0.00938644
0.011695
0.00927003
0.00927967
0.00910431
0.00891704
0.00879234
0.00871203
0.00865218
0.00859046
0.00845313
0.0083151
0.00815239
0.00791092
0.00762622
0.00734432
0.00712209
0.00703563
0.00721595
0.00785845
0.00921063
0.0115098
0.00935104
0.00937766
0.00920226
0.00899981
0.00882893
0.00866837
0.00854819
0.00850373
0.00844449
0.00828137
0.00810643
0.00786422
0.00756267
0.00725437
0.00700366
0.00689701
0.00706271
0.00769274
0.0090328
0.011321
0.00933574
0.0093772
0.00927751
0.00911581
0.00899926
0.00882565
0.00852279
0.00829539
0.00819772
0.00810675
0.00796487
0.00773337
0.00742336
0.00708912
0.00680339
0.00666523
0.00680922
0.00741817
0.00873486
0.0109992
0.00951844
0.00952336
0.00933007
0.00906615
0.00881038
0.00865016
0.00856416
0.00853975
0.0084213
0.00825734
0.00805316
0.00780145
0.00749037
0.00713933
0.00679921
0.00657766
0.00660819
0.00709637
0.00829314
0.0104361
0.00948707
0.00957192
0.00932197
0.00913725
0.00896182
0.00866867
0.00835847
0.00820232
0.00809554
0.00796613
0.00776036
0.00752826
0.00726161
0.00703482
0.00687548
0.00684806
0.00703939
0.00761776
0.00882114
0.0109168
0.00972291
0.00962182
0.0093462
0.00903004
0.00878946
0.0086778
0.00864111
0.00857343
0.00847924
0.00831421
0.00802899
0.00767437
0.00721289
0.00664417
0.00605227
0.00555199
0.00531717
0.00557106
0.00656286
0.00852496
0.00994114
0.00954193
0.0092176
0.00890284
0.00870613
0.00846819
0.00822845
0.00814488
0.00804825
0.00783976
0.00760167
0.00742611
0.0074957
0.00785431
0.0085429
0.00948711
0.0105151
0.0113384
0.0116116
0.0110042
0.00997651
0.00962442
0.0092668
0.00899924
0.00887925
0.00882832
0.00880685
0.00874042
0.00859718
0.00831521
0.00787198
0.00725619
0.00647714
0.00562039
0.00479061
0.00407335
0.00360331
0.00359132
0.00431355
0.006017
0.0101453
0.00960236
0.00921041
0.00893612
0.00883464
0.00867011
0.00841437
0.00805258
0.00776109
0.00765663
0.00753441
0.00726449
0.00705012
0.0070428
0.00731925
0.00787228
0.00862657
0.00930722
0.00952151
0.00890028
0.0101548
0.00960299
0.00922782
0.00903986
0.00907615
0.00915451
0.00921382
0.00915304
0.0089515
0.00846975
0.0076684
0.00651069
0.00507172
0.00351976
0.00209004
0.000983721
0.000351205
0.000359547
0.00122396
0.00314047
0.0225569
0.0107679
0.00675826
0.00858104
0.0109509
0.0126734
0.0139398
0.0149368
0.0159513
0.0171337
0.0184869
0.0199316
0.021318
0.0226878
0.0241555
0.025618
0.027012
0.0284568
0.0300353
0.0316415
0.0333679
0.0350985
0.0364289
0.0379416
0.0399988
0.0420816
0.0440697
0.0461512
0.048276
0.0503848
0.0524857
0.0548403
0.0573369
0.0597883
0.0623452
0.0650834
0.0679359
0.0708077
0.0738414
0.0769388
0.0801856
0.083536
0.0869776
0.0905744
0.0941745
0.0980136
0.10181
0.105751
0.109496
0.113124
0.0222931
0.0108234
0.00679773
0.00859643
0.0109601
0.01268
0.0139448
0.0149405
0.0159541
0.0171357
0.0184885
0.0199329
0.0213191
0.0226888
0.0241564
0.0256188
0.0270129
0.0284575
0.030036
0.0316422
0.0333685
0.0350991
0.0364295
0.037942
0.0399992
0.042082
0.0440701
0.0461516
0.0482764
0.0503851
0.052486
0.0548405
0.0573371
0.0597885
0.0623454
0.0650836
0.067936
0.0708079
0.0738415
0.0769389
0.0801858
0.0835361
0.0869777
0.0905745
0.0941746
0.0980137
0.101811
0.105751
0.109496
0.113124
0.021971
0.010911
0.00686376
0.00861672
0.0109697
0.0126867
0.0139497
0.0149442
0.0159568
0.0171377
0.01849
0.0199341
0.0213202
0.0226897
0.0241571
0.0256196
0.0270136
0.0284582
0.0300367
0.0316428
0.0333691
0.0350997
0.03643
0.0379424
0.0399996
0.0420824
0.0440704
0.0461519
0.0482766
0.0503854
0.0524862
0.0548407
0.0573373
0.0597886
0.0623456
0.0650837
0.0679362
0.070808
0.0738417
0.0769391
0.0801859
0.0835362
0.0869778
0.0905746
0.0941747
0.0980138
0.101811
0.105751
0.109496
0.113124
0.0216702
0.0110334
0.00696579
0.00864804
0.010982
0.0126946
0.0139555
0.0149488
0.0159603
0.0171402
0.0184918
0.0199355
0.0213213
0.0226906
0.024158
0.0256203
0.0270142
0.0284588
0.0300373
0.0316434
0.0333696
0.0351004
0.0364305
0.0379427
0.04
0.0420828
0.0440708
0.0461522
0.0482769
0.0503856
0.0524864
0.0548409
0.0573375
0.0597888
0.0623457
0.0650839
0.0679363
0.0708082
0.0738418
0.0769392
0.080186
0.0835363
0.0869779
0.0905746
0.0941748
0.0980139
0.101811
0.105752
0.109496
0.113124
0.0213892
0.011181
0.00709819
0.00869082
0.0109978
0.0127043
0.0139629
0.0149547
0.0159652
0.017144
0.0184944
0.0199374
0.0213228
0.0226918
0.0241589
0.0256211
0.0270149
0.0284594
0.0300379
0.031644
0.0333702
0.0351011
0.0364311
0.037943
0.0400003
0.0420832
0.0440711
0.0461525
0.0482773
0.0503859
0.0524866
0.0548411
0.0573377
0.059789
0.0623459
0.065084
0.0679365
0.0708083
0.0738419
0.0769393
0.0801861
0.0835365
0.086978
0.0905747
0.0941749
0.0980139
0.101811
0.105752
0.109497
0.113124
0.0211109
0.0113403
0.0072481
0.00874101
0.0110163
0.0127159
0.0139717
0.0149624
0.015972
0.0171495
0.0184983
0.01994
0.0213247
0.0226934
0.0241601
0.025622
0.0270156
0.02846
0.0300384
0.0316446
0.0333709
0.0351019
0.0364317
0.0379432
0.0400008
0.0420837
0.0440715
0.0461529
0.0482776
0.0503862
0.0524869
0.0548413
0.0573379
0.0597892
0.062346
0.0650842
0.0679366
0.0708085
0.0738421
0.0769394
0.0801862
0.0835366
0.0869781
0.0905748
0.0941749
0.098014
0.101811
0.105752
0.109497
0.113124
0.0208274
0.0115038
0.00740804
0.00879537
0.0110362
0.0127288
0.0139819
0.0149715
0.0159806
0.0171567
0.0185035
0.0199435
0.0213272
0.0226953
0.0241617
0.0256231
0.0270163
0.0284604
0.0300388
0.031645
0.0333716
0.0351029
0.0364324
0.0379435
0.0400012
0.0420842
0.0440719
0.0461533
0.048278
0.0503866
0.0524872
0.0548416
0.0573382
0.0597894
0.0623462
0.0650843
0.0679368
0.0708086
0.0738422
0.0769396
0.0801863
0.0835367
0.0869782
0.090575
0.094175
0.0980141
0.101811
0.105752
0.109497
0.113124
0.0205396
0.0116693
0.00757543
0.00885255
0.0110571
0.0127427
0.0139931
0.0149817
0.0159905
0.0171655
0.0185102
0.019948
0.0213304
0.0226978
0.0241636
0.0256244
0.0270173
0.028461
0.0300391
0.0316453
0.0333721
0.035104
0.0364332
0.0379439
0.0400017
0.0420846
0.0440723
0.0461537
0.0482784
0.050387
0.0524875
0.0548418
0.0573385
0.0597897
0.0623464
0.0650845
0.067937
0.0708088
0.0738423
0.0769397
0.0801865
0.0835368
0.0869783
0.0905751
0.0941751
0.0980142
0.101811
0.105752
0.109497
0.113125
0.0202508
0.0118362
0.00774952
0.00891217
0.0110786
0.0127575
0.0140052
0.0149927
0.0160012
0.0171753
0.018518
0.0199536
0.0213344
0.0227007
0.0241658
0.0256261
0.0270185
0.0284618
0.0300393
0.0316452
0.0333725
0.0351052
0.0364343
0.0379445
0.0400023
0.0420852
0.0440727
0.0461542
0.0482789
0.0503874
0.0524879
0.0548422
0.0573388
0.05979
0.0623466
0.0650847
0.0679372
0.0708089
0.0738425
0.0769399
0.0801866
0.083537
0.0869785
0.0905752
0.0941753
0.0980144
0.101811
0.105752
0.109498
0.113125
0.0199639
0.0120038
0.00792999
0.00897421
0.0111005
0.0127729
0.014018
0.0150042
0.0160125
0.0171857
0.0185265
0.0199601
0.0213391
0.0227041
0.0241682
0.025628
0.0270202
0.0284629
0.0300396
0.0316449
0.0333725
0.0351062
0.0364355
0.0379453
0.0400031
0.0420857
0.0440731
0.0461546
0.0482793
0.0503879
0.0524883
0.0548426
0.0573392
0.0597903
0.0623469
0.065085
0.0679374
0.0708091
0.0738427
0.07694
0.0801868
0.0835371
0.0869786
0.0905754
0.0941754
0.0980145
0.101811
0.105752
0.109498
0.113125
0.01968
0.012171
0.00811668
0.00903886
0.0111228
0.0127889
0.0140315
0.0150162
0.0160241
0.0171964
0.0185355
0.0199671
0.0213444
0.0227079
0.0241708
0.02563
0.0270221
0.0284645
0.0300401
0.0316444
0.033372
0.0351069
0.0364367
0.0379464
0.0400042
0.0420863
0.0440734
0.0461549
0.0482798
0.0503885
0.0524888
0.054843
0.0573396
0.0597907
0.0623472
0.0650853
0.0679377
0.0708093
0.0738428
0.0769402
0.0801869
0.0835373
0.0869788
0.0905755
0.0941756
0.0980147
0.101812
0.105753
0.109499
0.113126
0.0193998
0.0123371
0.00830956
0.00910633
0.0111453
0.0128055
0.0140456
0.0150287
0.016036
0.0172075
0.0185448
0.0199745
0.0213502
0.022712
0.0241735
0.025632
0.0270242
0.0284664
0.030041
0.031644
0.033371
0.035107
0.0364377
0.0379477
0.0400057
0.0420872
0.0440736
0.0461552
0.0482801
0.050389
0.0524893
0.0548435
0.0573401
0.0597911
0.0623476
0.0650856
0.067938
0.0708095
0.073843
0.0769404
0.0801871
0.0835375
0.086979
0.0905757
0.0941757
0.0980149
0.101812
0.105753
0.1095
0.113126
0.0191233
0.0125013
0.0085085
0.00917682
0.0111681
0.0128226
0.0140605
0.0150417
0.0160483
0.0172188
0.0185544
0.0199822
0.0213564
0.0227164
0.0241762
0.0256341
0.0270265
0.0284686
0.0300422
0.0316435
0.0333695
0.0351065
0.0364383
0.0379491
0.0400076
0.0420883
0.0440739
0.0461553
0.0482803
0.0503894
0.0524899
0.0548441
0.0573407
0.0597917
0.0623481
0.0650861
0.0679383
0.0708098
0.0738433
0.0769406
0.0801873
0.0835376
0.0869792
0.0905759
0.0941759
0.0980151
0.101812
0.105754
0.109501
0.113127
0.0188513
0.0126628
0.00871312
0.00925052
0.011191
0.0128401
0.0140761
0.0150551
0.0160608
0.0172305
0.0185644
0.0199901
0.0213628
0.022721
0.024179
0.0256361
0.0270288
0.0284709
0.0300437
0.0316432
0.0333674
0.0351051
0.0364383
0.0379502
0.0400099
0.0420898
0.0440743
0.0461553
0.0482804
0.0503898
0.0524905
0.0548447
0.0573413
0.0597922
0.0623486
0.0650866
0.0679387
0.0708101
0.0738435
0.0769408
0.0801875
0.0835378
0.0869794
0.0905761
0.0941762
0.0980154
0.101812
0.105754
0.109502
0.113128
0.0185843
0.0128207
0.00892297
0.00932769
0.011214
0.0128579
0.0140924
0.015069
0.0160737
0.0172427
0.0185748
0.0199984
0.0213693
0.0227259
0.0241819
0.0256382
0.0270311
0.0284734
0.0300453
0.0316429
0.0333649
0.0351027
0.0364376
0.037951
0.0400124
0.0420916
0.0440747
0.0461551
0.0482802
0.0503899
0.052491
0.0548453
0.0573418
0.0597928
0.0623493
0.0650873
0.0679392
0.0708105
0.0738438
0.076941
0.0801877
0.083538
0.0869796
0.0905764
0.0941764
0.0980157
0.101813
0.105755
0.109503
0.113129
0.0183232
0.0129744
0.00913768
0.00940875
0.011237
0.0128759
0.0141094
0.0150835
0.016087
0.0172553
0.0185857
0.0200071
0.021376
0.0227309
0.0241849
0.0256404
0.0270335
0.028476
0.0300471
0.0316427
0.0333618
0.0350992
0.0364361
0.0379511
0.0400149
0.0420938
0.0440752
0.0461549
0.0482798
0.0503899
0.0524914
0.0548459
0.0573424
0.0597934
0.0623501
0.0650881
0.0679399
0.0708109
0.0738442
0.0769413
0.0801879
0.0835382
0.0869798
0.0905766
0.0941767
0.0980161
0.101813
0.105756
0.109505
0.11313
0.0180686
0.013123
0.00935705
0.00949424
0.0112601
0.0128939
0.0141272
0.0150986
0.0161008
0.0172685
0.0185972
0.0200161
0.0213827
0.022736
0.024188
0.0256427
0.0270359
0.0284786