/*--------------------------------*- C++ -*----------------------------------*\
| =========                 |                                                 |
| \\      /  F ield         | OpenFOAM: The Open Source CFD Toolbox           |
|  \\    /   O peration     | Version:  v2012                                 |
|   \\  /    A nd           | Website:  www.openfoam.com                      |
|    \\/     M anipulation  |                                                 |
\*---------------------------------------------------------------------------*/
FoamFile
{
    version     2.0;
    format      ascii;
    class       surfaceScalarField;
    location    "8.8";
    object      phi;
}
// * * * * * * * * * * * * * * * * * * * * * * * * * * * * * * * * * * * * * //

dimensions      [0 3 -1 0 0 0 0];
oriented        oriented;


internalField   nonuniform List<scalar> 
13830
(
9.74961e-07
-5.08761e-07
8.95961e-07
2.26966e-06
9.13101e-07
-1.67252e-06
1.00242e-06
-2.04118e-06
9.96717e-07
-1.49236e-06
1.00509e-06
1.22806e-07
9.83775e-07
6.06677e-07
9.43192e-07
5.00438e-07
9.62096e-07
4.93243e-07
9.11538e-07
-4.75767e-07
9.55175e-07
-3.61027e-07
9.37116e-07
-5.48534e-07
9.58965e-07
-5.15652e-07
9.58429e-07
-4.31784e-07
9.62144e-07
-3.55043e-07
9.62358e-07
-1.29862e-07
9.5656e-07
-9.4546e-08
9.52998e-07
5.12823e-08
9.44542e-07
5.02104e-08
1.11756e-07
9.31164e-07
1.01068e-06
-5.46908e-07
9.60069e-07
2.32027e-06
9.63395e-07
-1.67585e-06
1.03267e-06
-2.11046e-06
1.03621e-06
-1.4959e-06
1.04619e-06
1.12828e-07
1.02053e-06
6.32337e-07
9.87105e-07
5.33865e-07
9.95492e-07
4.84855e-07
9.54781e-07
-4.35055e-07
9.87891e-07
-3.94137e-07
9.75784e-07
-5.36427e-07
9.9241e-07
-5.32278e-07
9.95933e-07
-4.35308e-07
9.96892e-07
-3.56001e-07
1.00297e-06
-1.35937e-07
9.89648e-07
-8.12276e-08
9.95439e-07
4.54912e-08
9.73096e-07
7.25532e-08
1.04272e-07
9.8058e-07
1.04506e-06
-5.82512e-07
1.02169e-06
2.34364e-06
1.00826e-06
-1.66242e-06
1.06137e-06
-2.16356e-06
1.07505e-06
-1.50958e-06
1.08854e-06
9.93399e-08
1.06026e-06
6.6062e-07
1.03619e-06
5.57929e-07
1.03434e-06
4.86711e-07
1.00481e-06
-4.05533e-07
1.02317e-06
-4.12495e-07
1.02022e-06
-5.33473e-07
1.02522e-06
-5.37278e-07
1.03773e-06
-4.47817e-07
1.03081e-06
-3.49089e-07
1.04381e-06
-1.4893e-07
1.02505e-06
-6.24741e-08
1.03159e-06
3.89519e-08
1.01081e-06
9.33383e-08
1.04391e-07
1.01069e-06
1.07835e-06
-6.13085e-07
1.07738e-06
2.3446e-06
1.04909e-06
-1.63413e-06
1.08917e-06
-2.20364e-06
1.11119e-06
-1.53161e-06
1.12955e-06
8.09792e-08
1.10353e-06
6.8664e-07
1.08615e-06
5.75316e-07
1.07668e-06
4.96174e-07
1.05538e-06
-3.84227e-07
1.06015e-06
-4.17264e-07
1.06328e-06
-5.36602e-07
1.05853e-06
-5.32528e-07
1.07541e-06
-4.64699e-07
1.06683e-06
-3.40516e-07
1.08014e-06
-1.62237e-07
1.06527e-06
-4.76059e-08
1.0671e-06
3.71313e-08
1.05239e-06
1.0804e-07
1.09794e-07
1.04699e-06
1.11096e-06
-6.36486e-07
1.1259e-06
2.32967e-06
1.08815e-06
-1.59638e-06
1.1169e-06
-2.2324e-06
1.14468e-06
-1.55938e-06
1.16787e-06
5.77811e-08
1.1489e-06
7.05608e-07
1.13502e-06
5.89199e-07
1.12117e-06
5.1003e-07
1.10411e-06
-3.67173e-07
1.09935e-06
-4.12508e-07
1.10425e-06
-5.41494e-07
1.09381e-06
-5.22089e-07
1.11017e-06
-4.81065e-07
1.10419e-06
-3.34534e-07
1.11619e-06
-1.74234e-07
1.10737e-06
-3.87914e-08
1.10684e-06
3.7662e-08
1.09643e-06
1.18458e-07
1.17001e-07
1.08922e-06
1.14392e-06
-6.51566e-07
1.16861e-06
2.30498e-06
1.12844e-06
-1.55622e-06
1.14597e-06
-2.24992e-06
1.1766e-06
-1.59002e-06
1.20416e-06
3.02279e-08
1.19438e-06
7.15384e-07
1.18235e-06
6.01233e-07
1.16678e-06
5.25596e-07
1.15117e-06
-3.51562e-07
1.14074e-06
-4.02082e-07
1.14495e-06
-5.45702e-07
1.1315e-06
-5.08633e-07
1.14498e-06
-4.94544e-07
1.14158e-06
-3.31144e-07
1.15299e-06
-1.85641e-07
1.14884e-06
-3.46404e-08
1.14879e-06
3.77112e-08
1.1414e-06
1.25855e-07
1.23909e-07
1.13449e-06
1.17866e-06
-6.58531e-07
1.20849e-06
2.27515e-06
1.17205e-06
-1.51978e-06
1.17791e-06
-2.25578e-06
1.20827e-06
-1.62037e-06
1.23964e-06
-1.1476e-09
1.2385e-06
7.16523e-07
1.22828e-06
6.11451e-07
1.21274e-06
5.41136e-07
1.19749e-06
-3.36307e-07
1.18378e-06
-3.88376e-07
1.18677e-06
-5.48685e-07
1.17128e-06
-4.93148e-07
1.18142e-06
-5.04683e-07
1.17887e-06
-3.28594e-07
1.19006e-06
-1.96835e-07
1.18889e-06
-3.34616e-08
1.19042e-06
3.61807e-08
1.18563e-06
1.30645e-07
1.29488e-07
1.18005e-06
1.21649e-06
-6.58842e-07
1.24877e-06
2.24287e-06
1.21951e-06
-1.49051e-06
1.21393e-06
-2.2502e-06
1.2407e-06
-1.64714e-06
1.27505e-06
-3.55004e-08
1.2807e-06
7.10882e-07
1.27306e-06
6.19081e-07
1.25863e-06
5.55571e-07
1.24385e-06
-3.21532e-07
1.22815e-06
-3.72671e-07
1.23015e-06
-5.50681e-07
1.21299e-06
-4.75989e-07
1.22008e-06
-5.11773e-07
1.21694e-06
-3.25459e-07
1.22756e-06
-2.07451e-07
1.22812e-06
-3.40197e-08
1.231e-06
3.32999e-08
1.22853e-06
1.33117e-07
1.33478e-07
1.22454e-06
1.25819e-06
-6.54683e-07
1.29187e-06
2.20919e-06
1.27019e-06
-1.46883e-06
1.25449e-06
-2.23451e-06
1.27478e-06
-1.66743e-06
1.31063e-06
-7.13473e-08
1.32118e-06
7.00329e-07
1.31693e-06
6.23328e-07
1.30435e-06
5.68155e-07
1.29072e-06
-3.07899e-07
1.27383e-06
-3.55786e-07
1.27511e-06
-5.51961e-07
1.25668e-06
-4.57554e-07
1.26108e-06
-5.16173e-07
1.25675e-06
-3.21137e-07
1.26623e-06
-2.16923e-07
1.26773e-06
-3.55219e-08
1.27126e-06
2.97711e-08
1.27072e-06
1.33651e-07
1.36043e-07
1.26816e-06
1.30386e-06
-6.48264e-07
1.33883e-06
2.17422e-06
1.32302e-06
-1.45301e-06
1.29937e-06
-2.21086e-06
1.31132e-06
-1.67938e-06
1.34665e-06
-1.06683e-07
1.36067e-06
6.86311e-07
1.36027e-06
6.23732e-07
1.35004e-06
5.78383e-07
1.33831e-06
-2.96173e-07
1.32091e-06
-3.38386e-07
1.32162e-06
-5.52663e-07
1.30243e-06
-4.38367e-07
1.30436e-06
-5.18107e-07
1.29884e-06
-3.15609e-07
1.30674e-06
-2.24832e-07
1.30879e-06
-3.75674e-08
1.31237e-06
2.61922e-08
1.31338e-06
1.32636e-07
1.37451e-07
1.31198e-06
1.35302e-06
-6.41259e-07
1.38947e-06
2.13777e-06
1.37712e-06
-1.44066e-06
1.34793e-06
-2.18166e-06
1.35098e-06
-1.68244e-06
1.38381e-06
-1.39508e-07
1.40013e-06
6.69991e-07
1.40362e-06
6.20242e-07
1.39602e-06
5.85979e-07
1.38683e-06
-2.86983e-07
1.36948e-06
-3.21036e-07
1.36969e-06
-5.52876e-07
1.35031e-06
-4.18981e-07
1.34989e-06
-5.17693e-07
1.34339e-06
-3.09103e-07
1.34946e-06
-2.30901e-07
1.35193e-06
-4.00413e-08
1.35525e-06
2.2873e-08
1.35751e-06
1.30379e-07
1.37902e-07
1.35706e-06
1.40498e-06
-6.34585e-07
1.44296e-06
2.09979e-06
1.43204e-06
-1.42974e-06
1.39942e-06
-2.14905e-06
1.39415e-06
-1.67717e-06
1.42299e-06
-1.68348e-07
1.44055e-06
6.52436e-07
1.44764e-06
6.13148e-07
1.44277e-06
5.9085e-07
1.43649e-06
-2.80702e-07
1.41963e-06
-3.04177e-07
1.41944e-06
-5.52689e-07
1.40037e-06
-3.99909e-07
1.3977e-06
-5.15028e-07
1.39049e-06
-3.01891e-07
1.39447e-06
-2.34879e-07
1.39736e-06
-4.29284e-08
1.40031e-06
1.99235e-08
1.40358e-06
1.27108e-07
1.37502e-07
1.40398e-06
1.45917e-06
-6.28512e-07
1.49842e-06
2.06054e-06
1.48769e-06
-1.41901e-06
1.4533e-06
-2.11466e-06
1.44085e-06
-1.66471e-06
1.46495e-06
-1.9245e-07
1.48279e-06
6.346e-07
1.493e-06
6.0294e-07
1.49085e-06
5.92998e-07
1.48755e-06
-2.77405e-07
1.47148e-06
-2.88111e-07
1.47096e-06
-5.5217e-07
1.45267e-06
-3.81611e-07
1.44789e-06
-5.10246e-07
1.44022e-06
-2.94225e-07
1.44184e-06
-2.36498e-07
1.44505e-06
-4.6145e-08
1.44755e-06
1.74261e-08
1.4516e-06
1.23065e-07
1.36341e-07
1.45276e-06
1.51531e-06
-6.22953e-07
1.55537e-06
2.02049e-06
1.54424e-06
-1.40789e-06
1.50925e-06
-2.07967e-06
1.49092e-06
-1.64638e-06
1.51014e-06
-2.11669e-07
1.52753e-06
6.17207e-07
1.54034e-06
5.90137e-07
1.54086e-06
5.92472e-07
1.54032e-06
-2.76867e-07
1.52523e-06
-2.73016e-07
1.52438e-06
-5.51317e-07
1.50725e-06
-3.64489e-07
1.50053e-06
-5.03525e-07
1.49266e-06
-2.86353e-07
1.4917e-06
-2.3554e-07
1.49501e-06
-4.94471e-08
1.4969e-06
1.55357e-08
1.50138e-06
1.18582e-07
1.3458e-07
1.50314e-06
1.57338e-06
-6.17722e-07
1.61374e-06
1.98013e-06
1.60195e-06
-1.3961e-06
1.5672e-06
-2.04492e-06
1.5442e-06
-1.62338e-06
1.55881e-06
-2.26281e-07
1.57533e-06
6.00688e-07
1.59028e-06
5.75186e-07
1.59337e-06
5.89387e-07
1.59513e-06
-2.78627e-07
1.58108e-06
-2.58972e-07
1.57978e-06
-5.50019e-07
1.56418e-06
-3.48882e-07
1.55568e-06
-4.9503e-07
1.54788e-06
-2.78548e-07
1.54428e-06
-2.3194e-07
1.54731e-06
-5.24748e-08
1.54837e-06
1.44695e-08
1.55289e-06
1.14067e-07
1.32467e-07
1.555e-06
1.63351e-06
-6.12685e-07
1.67374e-06
1.93989e-06
1.6611e-06
-1.38346e-06
1.62717e-06
-2.01099e-06
1.60062e-06
-1.59683e-06
1.61119e-06
-2.36857e-07
1.62667e-06
5.85211e-07
1.64341e-06
5.58446e-07
1.64882e-06
5.83978e-07
1.65225e-06
-2.82058e-07
1.63928e-06
-2.45995e-07
1.63732e-06
-5.4806e-07
1.6235e-06
-3.35065e-07
1.61335e-06
-4.84878e-07
1.60589e-06
-2.71094e-07
1.59979e-06
-2.25836e-07
1.60219e-06
-5.48709e-08
1.60224e-06
1.44121e-08
1.60639e-06
1.09918e-07
1.30296e-07
1.60856e-06
1.69584e-06
-6.07775e-07
1.73568e-06
1.90005e-06
1.72196e-06
-1.36973e-06
1.68923e-06
-1.97826e-06
1.66018e-06
-1.56779e-06
1.66753e-06
-2.44203e-07
1.68199e-06
5.70755e-07
1.7002e-06
5.40229e-07
1.70756e-06
5.76623e-07
1.71195e-06
-2.86453e-07
1.70003e-06
-2.34069e-07
1.69711e-06
-5.45145e-07
1.6853e-06
-3.23256e-07
1.67357e-06
-4.7315e-07
1.66672e-06
-2.6424e-07
1.65844e-06
-2.17557e-07
1.65995e-06
-5.63789e-08
1.65894e-06
1.54192e-08
1.66243e-06
1.06426e-07
1.28319e-07
1.66441e-06
1.7605e-06
-6.02957e-07
1.79983e-06
1.86072e-06
1.7848e-06
-1.3547e-06
1.75347e-06
-1.94692e-06
1.72294e-06
-1.53726e-06
1.72805e-06
-2.49309e-07
1.74162e-06
5.57182e-07
1.76098e-06
5.20867e-07
1.76979e-06
5.6782e-07
1.77442e-06
-2.91092e-07
1.76351e-06
-2.23158e-07
1.7593e-06
-5.40932e-07
1.74964e-06
-3.13593e-07
1.73642e-06
-4.59935e-07
1.73035e-06
-2.58167e-07
1.72037e-06
-2.07574e-07
1.72087e-06
-5.68789e-08
1.71891e-06
1.73743e-08
1.72162e-06
1.03716e-07
1.26679e-07
1.72326e-06
1.82756e-06
-5.9818e-07
1.86639e-06
1.82189e-06
1.84988e-06
-1.3382e-06
1.82e-06
-1.91704e-06
1.78892e-06
-1.50618e-06
1.79286e-06
-2.53251e-07
1.80576e-06
5.44284e-07
1.82589e-06
5.00733e-07
1.8356e-06
5.58111e-07
1.83981e-06
-2.95298e-07
1.82989e-06
-2.13235e-07
1.82401e-06
-5.3506e-07
1.81655e-06
-3.06133e-07
1.80197e-06
-4.45351e-07
1.79677e-06
-2.52969e-07
1.78563e-06
-1.96432e-07
1.78514e-06
-5.6391e-08
1.78248e-06
2.00324e-08
1.78445e-06
1.01749e-07
1.25399e-07
1.78573e-06
1.89709e-06
-5.93366e-07
1.93553e-06
1.78345e-06
1.91749e-06
-1.32017e-06
1.88898e-06
-1.88853e-06
1.8581e-06
-1.4753e-06
1.86192e-06
-2.57077e-07
1.87437e-06
5.31831e-07
1.89487e-06
4.80234e-07
1.905e-06
5.47984e-07
1.90819e-06
-2.98483e-07
1.89926e-06
-2.04307e-07
1.89139e-06
-5.27196e-07
1.8861e-06
-3.00838e-07
1.87029e-06
-4.29537e-07
1.86594e-06
-2.48621e-07
1.85422e-06
-1.84713e-07
1.85283e-06
-5.50028e-08
1.84979e-06
2.30733e-08
1.85117e-06
1.00364e-07
1.2441e-07
1.85216e-06
1.96916e-06
-5.88419e-07
2.0074e-06
1.7452e-06
1.98787e-06
-1.30064e-06
1.96054e-06
-1.86119e-06
1.9304e-06
-1.44517e-06
1.93499e-06
-2.61666e-07
1.94721e-06
5.19612e-07
1.96768e-06
4.59767e-07
1.97788e-06
5.37777e-07
1.97958e-06
-3.00178e-07
1.97173e-06
-1.96455e-07
1.9616e-06
-5.17071e-07
1.95832e-06
-2.97556e-07
1.94144e-06
-4.12652e-07
1.93783e-06
-2.45019e-07
1.92605e-06
-1.72931e-07
1.92393e-06
-5.28823e-08
1.92081e-06
2.6198e-08
1.92183e-06
9.93378e-08
1.23584e-07
1.92266e-06
2.04387e-06
-5.83242e-07
2.08212e-06
1.70696e-06
2.06123e-06
-1.27975e-06
2.03485e-06
-1.83481e-06
2.00573e-06
-1.41605e-06
2.01167e-06
-2.6761e-07
2.02382e-06
5.07466e-07
2.04392e-06
4.39663e-07
2.05409e-06
5.27609e-07
2.05396e-06
-3.00049e-07
2.04732e-06
-1.89818e-07
2.03478e-06
-5.0453e-07
2.03328e-06
-2.96056e-07
2.01552e-06
-3.94887e-07
2.01243e-06
-2.41937e-07
2.00102e-06
-1.61516e-07
1.99836e-06
-5.02268e-08
1.99539e-06
2.91686e-08
1.9963e-06
9.84302e-08
1.22768e-07
1.99712e-06
2.12135e-06
-5.77752e-07
2.15977e-06
1.66854e-06
2.13771e-06
-1.25769e-06
2.11207e-06
-1.80916e-06
2.08396e-06
-1.38794e-06
2.09149e-06
-2.75138e-07
2.10366e-06
4.95292e-07
2.12319e-06
4.20134e-07
2.13345e-06
5.17353e-07
2.13128e-06
-2.97877e-07
2.12604e-06
-1.8458e-07
2.1111e-06
-4.89589e-07
2.11108e-06
-2.96034e-07
2.09264e-06
-3.7645e-07
2.08979e-06
-2.39086e-07
2.07902e-06
-1.50749e-07
2.07602e-06
-4.72268e-08
2.07335e-06
3.18415e-08
2.07435e-06
9.7427e-08
1.21817e-07
2.0753e-06
2.20173e-06
-5.71895e-07
2.24042e-06
1.62985e-06
2.21742e-06
-1.23469e-06
2.19234e-06
-1.78409e-06
2.16503e-06
-1.36063e-06
2.17401e-06
-2.84118e-07
2.18627e-06
4.8303e-07
2.20515e-06
4.0126e-07
2.21584e-06
5.0666e-07
2.21152e-06
-2.93555e-07
2.20786e-06
-1.80918e-07
2.19072e-06
-4.72455e-07
2.19182e-06
-2.97134e-07
2.17295e-06
-3.5758e-07
2.16998e-06
-2.36109e-07
2.16002e-06
-1.40794e-07
2.15681e-06
-4.40164e-08
2.15449e-06
3.41667e-08
2.15575e-06
9.61661e-08
1.20625e-07
2.15694e-06
2.28515e-06
-5.65648e-07
2.32417e-06
1.59082e-06
2.30042e-06
-1.21095e-06
2.27581e-06
-1.75947e-06
2.24894e-06
-1.33376e-06
2.25897e-06
-2.9414e-07
2.27138e-06
4.70619e-07
2.28961e-06
3.83025e-07
2.30124e-06
4.95034e-07
2.29475e-06
-2.87073e-07
2.29282e-06
-1.78988e-07
2.27381e-06
-4.53443e-07
2.27564e-06
-2.98958e-07
2.25662e-06
-3.3856e-07
2.25314e-06
-2.32635e-07
2.24405e-06
-1.31699e-07
2.24068e-06
-4.06517e-08
2.2386e-06
3.62499e-08
2.2403e-06
9.44646e-08
1.19128e-07
2.2418e-06
2.37175e-06
-5.59015e-07
2.41113e-06
1.55144e-06
2.38679e-06
-1.18661e-06
2.36259e-06
-1.73527e-06
2.33578e-06
-1.30695e-06
2.34629e-06
-3.04648e-07
2.35895e-06
4.57956e-07
2.37658e-06
3.65398e-07
2.38967e-06
4.81941e-07
2.38115e-06
-2.78544e-07
2.381e-06
-1.78837e-07
2.36051e-06
-4.32953e-07
2.36261e-06
-3.01064e-07
2.34377e-06
-3.19721e-07
2.33944e-06
-2.28303e-07
2.33121e-06
-1.23467e-07
2.32758e-06
-3.70262e-08
2.32544e-06
3.83889e-08
2.32791e-06
9.1997e-08
1.17297e-07
2.32974e-06
2.46169e-06
-5.52029e-07
2.50145e-06
1.51168e-06
2.47662e-06
-1.16177e-06
2.4528e-06
-1.71145e-06
2.42569e-06
-1.27985e-06
2.43611e-06
-3.1506e-07
2.4492e-06
4.44858e-07
2.46622e-06
3.48379e-07
2.48123e-06
4.66931e-07
2.47086e-06
-2.68177e-07
2.47242e-06
-1.8039e-07
2.45092e-06
-4.11454e-07
2.45285e-06
-3.02995e-07
2.43453e-06
-3.01406e-07
2.42903e-06
-2.22796e-07
2.42167e-06
-1.16106e-07
2.4171e-06
-3.24645e-08
2.41482e-06
4.06775e-08
2.41862e-06
8.8194e-08
1.1516e-07
2.42076e-06
2.5551e-06
-5.44733e-07
2.59529e-06
1.47149e-06
2.57e-06
-1.13648e-06
2.54651e-06
-1.68796e-06
2.51885e-06
-1.25219e-06
2.52864e-06
-3.24844e-07
2.54245e-06
4.31045e-07
2.55878e-06
3.32045e-07
2.576e-06
4.49717e-07
2.56405e-06
-2.56236e-07
2.56715e-06
-1.8348e-07
2.54509e-06
-3.89399e-07
2.54645e-06
-3.04357e-07
2.52892e-06
-2.83879e-07
2.5221e-06
-2.15969e-07
2.51553e-06
-1.0954e-07
2.51528e-06
-3.2215e-08
2.51547e-06
4.04937e-08
2.51252e-06
9.11359e-08
1.12814e-07
2.51487e-06
2.65212e-06
-5.37175e-07
2.69282e-06
1.43079e-06
2.66707e-06
-1.11073e-06
2.64381e-06
-1.66469e-06
2.61544e-06
-1.22383e-06
2.62413e-06
-3.33532e-07
2.63905e-06
4.16129e-07
2.65456e-06
3.16533e-07
2.6741e-06
4.30174e-07
2.66089e-06
-2.43022e-07
2.66522e-06
-1.8781e-07
2.64308e-06
-3.67261e-07
2.64351e-06
-3.04786e-07
2.62694e-06
-2.67306e-07
2.61932e-06
-2.08352e-07
2.61113e-06
-1.01349e-07
2.60666e-06
-2.77478e-08
2.60459e-06
4.25686e-08
2.6097e-06
8.60262e-08
1.10206e-07
2.6123e-06
2.75287e-06
-5.29391e-07
2.79419e-06
1.38947e-06
2.76795e-06
-1.08449e-06
2.74477e-06
-1.64151e-06
2.71565e-06
-1.19471e-06
2.72286e-06
-3.40745e-07
2.73926e-06
3.99725e-07
2.75391e-06
3.01887e-07
2.77564e-06
4.08439e-07
2.76159e-06
-2.28969e-07
2.7666e-06
-1.92825e-07
2.7451e-06
-3.45751e-07
2.7439e-06
-3.03591e-07
2.72897e-06
-2.52372e-07
2.72017e-06
-1.99556e-07
2.71121e-06
-9.23919e-08
2.70602e-06
-2.25553e-08
2.70372e-06
4.48737e-08
2.7106e-06
7.91371e-08
1.07688e-07
2.71312e-06
2.85748e-06
-5.21409e-07
2.89954e-06
1.3474e-06
2.87278e-06
-1.05773e-06
2.84947e-06
-1.61819e-06
2.81966e-06
-1.1649e-06
2.82508e-06
-3.46163e-07
2.8433e-06
3.815e-07
2.8571e-06
2.88088e-07
2.88076e-06
3.84787e-07
2.86632e-06
-2.14533e-07
2.87137e-06
-1.97878e-07
2.85124e-06
-3.25623e-07
2.84771e-06
-3.00051e-07
2.83486e-06
-2.3953e-07
2.82615e-06
-1.90841e-07
2.82425e-06
-9.04924e-08
2.82434e-06
-2.26471e-08
2.82355e-06
4.56608e-08
2.81547e-06
8.72191e-08
1.05727e-07
2.81743e-06
2.96607e-06
-5.13236e-07
3.00902e-06
1.30446e-06
2.98169e-06
-1.03041e-06
2.95799e-06
-1.59449e-06
2.9277e-06
-1.13461e-06
2.93109e-06
-3.49553e-07
2.95133e-06
3.61262e-07
2.9644e-06
2.75019e-07
2.98958e-06
3.59608e-07
2.97514e-06
-2.00091e-07
2.9798e-06
-2.02544e-07
2.96142e-06
-3.07237e-07
2.95553e-06
-2.94163e-07
2.94435e-06
-2.28349e-07
2.93056e-06
-1.77048e-07
2.92287e-06
-8.2805e-08
2.91619e-06
-1.59704e-08
2.91421e-06
4.76415e-08
2.92374e-06
7.76892e-08
1.03654e-07
2.92582e-06
3.07879e-06
-5.04868e-07
3.12273e-06
1.26052e-06
3.09481e-06
-1.00249e-06
3.07046e-06
-1.57014e-06
3.03998e-06
-1.10414e-06
3.04124e-06
-3.5081e-07
3.06352e-06
3.38981e-07
3.07603e-06
2.62506e-07
3.10231e-06
3.33336e-07
3.08815e-06
-1.85932e-07
3.09216e-06
-2.06555e-07
3.07526e-06
-2.90343e-07
3.0679e-06
-2.86798e-07
3.05839e-06
-2.18837e-07
3.04949e-06
-1.68156e-07
3.05e-06
-8.33064e-08
3.04962e-06
-1.55975e-08
3.04859e-06
4.86721e-08
3.03636e-06
8.99225e-08
1.01971e-07
3.03804e-06
3.19578e-06
-4.9629e-07
3.24079e-06
1.21551e-06
3.21231e-06
-9.74008e-07
3.18699e-06
-1.54482e-06
3.15676e-06
-1.07392e-06
3.15581e-06
-3.49855e-07
3.18013e-06
3.14661e-07
3.19215e-06
2.50484e-07
3.21916e-06
3.06326e-07
3.2053e-06
-1.72071e-07
3.20905e-06
-2.10301e-07
3.19192e-06
-2.73219e-07
3.18611e-06
-2.80988e-07
3.17513e-06
-2.07858e-07
3.16648e-06
-1.59501e-07
3.15059e-06
-6.742e-08
3.14445e-06
-9.45395e-09
3.14383e-06
4.92914e-08
3.15205e-06
8.16994e-08
9.91677e-08
3.15486e-06
3.3172e-06
-4.8748e-07
3.3633e-06
1.16941e-06
3.33431e-06
-9.45017e-07
3.30779e-06
-1.5183e-06
3.27817e-06
-1.04429e-06
3.27524e-06
-3.46929e-07
3.30117e-06
2.88727e-07
3.31318e-06
2.38473e-07
3.34003e-06
2.79477e-07
3.32747e-06
-1.59511e-07
3.32962e-06
-2.12449e-07
3.31413e-06
-2.57728e-07
3.30698e-06
-2.73843e-07
3.29077e-06
-1.91644e-07
3.27743e-06
-1.46164e-07
3.26941e-06
-5.93922e-08
3.26448e-06
-4.5247e-09
3.26367e-06
5.00951e-08
3.27316e-06
7.22142e-08
9.64851e-08
3.27584e-06
3.44321e-06
-4.78411e-07
3.49035e-06
1.12228e-06
3.46098e-06
-9.15648e-07
3.43304e-06
-1.49036e-06
3.40435e-06
-1.0156e-06
3.39979e-06
-3.42369e-07
3.42675e-06
2.61774e-07
3.43946e-06
2.25765e-07
3.46494e-06
2.5399e-07
3.45513e-06
-1.49693e-07
3.45382e-06
-2.1114e-07
3.44168e-06
-2.45592e-07
3.42871e-06
-2.60872e-07
3.42868e-06
-1.91615e-07
3.41963e-06
-1.37117e-07
3.41952e-06
-5.92771e-08
3.41913e-06
-4.13784e-09
3.41809e-06
5.11327e-08
3.40011e-06
9.01971e-08
9.56943e-08
3.4009e-06
3.57401e-06
-4.69073e-07
3.62204e-06
1.07424e-06
3.59252e-06
-8.86127e-07
3.56289e-06
-1.46072e-06
3.53563e-06
-9.88352e-07
3.52942e-06
-3.36152e-07
3.55746e-06
2.3373e-07
3.57021e-06
2.13013e-07
3.59537e-06
2.28829e-07
3.58543e-06
-1.39755e-07
3.58578e-06
-2.11482e-07
3.57011e-06
-2.29925e-07
3.56065e-06
-2.51414e-07
3.54625e-06
-1.77211e-07
3.53292e-06
-1.23789e-07
3.52289e-06
-4.92481e-08
3.51782e-06
9.37316e-10
3.51882e-06
5.01332e-08
3.52907e-06
7.99427e-08
9.31169e-08
3.53165e-06
3.70976e-06
-4.59452e-07
3.75853e-06
1.02548e-06
3.72907e-06
-8.56663e-07
3.69766e-06
-1.42931e-06
3.67191e-06
-9.62611e-07
3.66459e-06
-3.28827e-07
3.69288e-06
2.0544e-07
3.70674e-06
1.99157e-07
3.72994e-06
2.05623e-07
3.72175e-06
-1.31566e-07
3.72117e-06
-2.10904e-07
3.70699e-06
-2.15744e-07
3.69875e-06
-2.43169e-07
3.68068e-06
-1.59149e-07
3.66758e-06
-1.10689e-07
3.65731e-06
-3.89707e-08
3.65191e-06
6.33351e-09
3.65252e-06
4.95195e-08
3.66458e-06
6.78853e-08
9.08254e-08
3.66687e-06
3.85069e-06
-4.49554e-07
3.89997e-06
9.76198e-07
3.87078e-06
-8.27476e-07
3.83764e-06
-1.39617e-06
3.81325e-06
-9.38224e-07
3.80556e-06
-3.21134e-07
3.83298e-06
1.78025e-07
3.84939e-06
1.82748e-07
3.86845e-06
1.86557e-07
3.8647e-06
-1.2781e-07
3.85689e-06
-2.03096e-07
3.8482e-06
-2.07057e-07
3.82974e-06
-2.24709e-07
3.83871e-06
-1.6812e-07
3.83286e-06
-1.04836e-07
3.83276e-06
-3.88743e-08
3.83189e-06
7.20837e-09
3.82938e-06
5.20309e-08
3.80749e-06
8.97752e-08
9.17441e-08
3.80657e-06
3.99702e-06
-4.39424e-07
4.04649e-06
9.26731e-07
4.01797e-06
-7.98956e-07
3.98283e-06
-1.36103e-06
3.96026e-06
-9.15658e-07
3.95171e-06
-3.12581e-07
3.97945e-06
1.50286e-07
3.9949e-06
1.673e-07
4.01608e-06
1.6537e-07
4.00774e-06
-1.19464e-07
4.00881e-06
-2.04168e-07
3.9989e-06
-1.97151e-07
3.98797e-06
-2.13777e-07
3.96469e-06
-1.44841e-07
3.95225e-06
-9.23916e-08
3.94216e-06
-2.87857e-08
3.93664e-06
1.27293e-08
3.93822e-06
5.04443e-08
3.95049e-06
7.75111e-08
8.89224e-08
3.95331e-06
4.14895e-06
-4.29088e-07
4.19836e-06
8.77318e-07
4.17069e-06
-7.71286e-07
4.13379e-06
-1.32413e-06
4.11254e-06
-8.9441e-07
4.10405e-06
-3.04085e-07
4.13073e-06
1.23603e-07
4.14691e-06
1.51118e-07
4.16774e-06
1.44547e-07
4.15829e-06
-1.10014e-07
4.16016e-06
-2.06041e-07
4.13786e-06
-1.74856e-07
4.12269e-06
-1.98602e-07
4.1125e-06
-1.34649e-07
4.10332e-06
-8.32152e-08
4.09306e-06
-1.85194e-08
4.08764e-06
1.81419e-08
4.0879e-06
5.01854e-08
4.10205e-06
6.33622e-08
8.6209e-08
4.10476e-06
4.30669e-06
-4.18592e-07
4.3558e-06
8.28207e-07
4.32911e-06
-7.4459e-07
4.29095e-06
-1.28597e-06
4.2701e-06
-8.73558e-07
4.26302e-06
-2.97014e-07
4.2861e-06
1.00529e-07
4.30647e-06
1.3075e-07
4.32206e-06
1.28956e-07
4.31807e-06
-1.06022e-07
4.30691e-06
-1.94881e-07
4.31355e-06
-1.81498e-07
4.30012e-06
-1.85177e-07
4.29864e-06
-1.33162e-07
4.29407e-06
-7.86505e-08
4.29572e-06
-2.01692e-08
4.29542e-06
1.84457e-08
4.28924e-06
5.63644e-08
4.26343e-06
8.91699e-08
8.88577e-08
4.26078e-06
4.47054e-06
-4.08041e-07
4.51893e-06
7.79812e-07
4.49364e-06
-7.19303e-07
4.45387e-06
-1.2462e-06
4.43425e-06
-8.53947e-07
4.42688e-06
-2.89637e-07
4.4509e-06
7.65044e-08
4.46652e-06
1.1513e-07
4.48888e-06
1.06593e-07
4.47656e-06
-9.36988e-08
4.47965e-06
-1.97967e-07
4.45828e-06
-1.60135e-07
4.44211e-06
-1.68999e-07
4.42954e-06
-1.20597e-07
4.42253e-06
-7.1643e-08
4.4126e-06
-1.02374e-08
4.40802e-06
2.3023e-08
4.40877e-06
5.56209e-08
4.42231e-06
7.56233e-08
8.57667e-08
4.4254e-06
4.64063e-06
-3.97462e-07
4.68821e-06
7.32228e-07
4.66417e-06
-6.95261e-07
4.62366e-06
-1.20569e-06
4.60385e-06
-8.3414e-07
4.59835e-06
-2.84138e-07
4.61885e-06
5.60102e-08
4.63624e-06
9.77366e-08
4.65723e-06
8.56087e-08
4.64291e-06
-7.9381e-08
4.63981e-06
-1.94865e-07
4.62505e-06
-1.45375e-07
4.61163e-06
-1.55584e-07
4.59788e-06
-1.0684e-07
4.59154e-06
-6.53103e-08
4.58223e-06
-9.2482e-10
4.57699e-06
2.82619e-08
4.57751e-06
5.50984e-08
4.59219e-06
6.09471e-08
8.31676e-08
4.59479e-06
4.81723e-06
-3.86905e-07
4.8639e-06
6.85556e-07
4.84089e-06
-6.72252e-07
4.80065e-06
-1.16544e-06
4.77885e-06
-8.12339e-07
4.77933e-06
-2.84618e-07
4.79039e-06
4.49542e-08
4.81696e-06
7.1162e-08
4.82532e-06
7.72489e-08
4.82887e-06
-8.29336e-08
4.81175e-06
-1.77746e-07
4.82368e-06
-1.57298e-07
4.8142e-06
-1.46108e-07
4.81355e-06
-1.06191e-07
4.81015e-06
-6.19071e-08
4.8152e-06
-5.97523e-09
4.81455e-06
2.89097e-08
4.80496e-06
6.46879e-08
4.7747e-06
9.12143e-08
8.91007e-08
4.76876e-06
5.00066e-06
-3.76493e-07
5.046e-06
6.40217e-07
5.02445e-06
-6.50708e-07
4.98364e-06
-1.12463e-06
4.96251e-06
-7.91206e-07
4.96117e-06
-2.83281e-07
4.97587e-06
3.02609e-08
4.99475e-06
5.22782e-08
5.00827e-06
6.37326e-08
5.00137e-06
-7.6035e-08
4.99153e-06
-1.67908e-07
4.9809e-06
-1.46668e-07
4.96751e-06
-1.32718e-07
4.95671e-06
-9.53946e-08
4.94804e-06
-5.32371e-08
4.94338e-06
-1.3137e-09
4.93552e-06
3.67723e-08
4.93617e-06
6.40328e-08
4.95152e-06
7.58722e-08
8.75512e-08
4.95307e-06
5.191e-06
-3.66177e-07
5.23529e-06
5.95926e-07
5.21459e-06
-6.30005e-07
5.17437e-06
-1.08442e-06
5.15245e-06
-7.69283e-07
5.15082e-06
-2.81653e-07
5.16834e-06
1.27397e-08
5.1795e-06
4.11193e-08
5.20056e-06
4.26764e-08
5.1881e-06
-6.35787e-08
5.1796e-06
-1.59411e-07
5.16841e-06
-1.35475e-07
5.15803e-06
-1.22336e-07
5.14442e-06
-8.17905e-08
5.13842e-06
-4.72315e-08
5.13243e-06
4.6703e-09
5.13202e-06
3.71882e-08
5.13507e-06
6.09815e-08
5.13903e-06
7.19102e-08
8.33674e-08
5.14321e-06
5.38858e-06
-3.55985e-07
5.43183e-06
5.52684e-07
5.41169e-06
-6.09867e-07
5.37308e-06
-1.04581e-06
5.34848e-06
-7.44677e-07
5.34953e-06
-2.82706e-07
5.36397e-06
-1.70001e-09
5.37619e-06
2.8901e-08
5.39092e-06
2.79401e-08
5.3843e-06
-5.69539e-08
5.37305e-06
-1.48164e-07
5.36446e-06
-1.26889e-07
5.35358e-06
-1.11447e-07
5.34147e-06
-6.96812e-08
5.33467e-06
-4.04359e-08
5.33134e-06
8.00606e-09
5.33237e-06
3.61546e-08
5.33477e-06
5.85847e-08
5.3357e-06
7.09775e-08
7.89133e-08
5.34015e-06
5.5937e-06
-3.45951e-07
5.63585e-06
5.10537e-07
5.6162e-06
-5.90217e-07
5.57937e-06
-1.00898e-06
5.55268e-06
-7.17983e-07
5.55414e-06
-2.84174e-07
5.56797e-06
-1.55277e-08
5.57968e-06
1.71893e-08
5.59179e-06
1.58285e-08
5.58735e-06
-5.25113e-08
5.57522e-06
-1.36029e-07
5.56743e-06
-1.19099e-07
5.55696e-06
-1.00975e-07
5.54644e-06
-5.91664e-08
5.5391e-06
-3.30935e-08
5.53712e-06
9.98862e-09
5.53617e-06
3.71048e-08
5.53622e-06
5.85292e-08
5.54015e-06
6.70456e-08
7.45602e-08
5.54451e-06
5.80655e-06
-3.36022e-07
5.84787e-06
4.69214e-07
5.82823e-06
-5.70569e-07
5.79412e-06
-9.74874e-07
5.76485e-06
-6.8871e-07
5.76644e-06
-2.85768e-07
5.77926e-06
-2.8348e-08
5.79098e-06
5.47167e-09
5.80105e-06
5.75833e-09
5.79793e-06
-4.93946e-08
5.78556e-06
-1.23657e-07
5.77809e-06
-1.11626e-07
5.76834e-06
-9.12307e-08
5.75907e-06
-4.98935e-08
5.75151e-06
-2.55331e-08
5.74991e-06
1.15846e-08
5.74989e-06
3.71273e-08
5.75316e-06
5.52586e-08
5.75283e-06
6.7377e-08
7.08165e-08
5.75657e-06
6.02747e-06
-3.26192e-07
6.06799e-06
4.28694e-07
6.04824e-06
-5.50823e-07
6.01662e-06
-9.43255e-07
5.98586e-06
-6.57942e-07
5.98628e-06
-2.86189e-07
5.99865e-06
-4.07238e-08
6.01011e-06
-5.98433e-09
6.01876e-06
-2.89458e-09
6.01649e-06
-4.71255e-08
6.00431e-06
-1.11475e-07
5.99667e-06
-1.03983e-07
5.98789e-06
-8.2453e-08
5.97971e-06
-4.17093e-08
5.97236e-06
-1.81865e-08
5.97046e-06
1.34893e-08
5.96941e-06
3.81704e-08
5.96818e-06
5.64952e-08
5.9735e-06
6.20532e-08
6.75362e-08
5.97678e-06
6.25676e-06
-3.1645e-07
6.29652e-06
3.88929e-07
6.27657e-06
-5.3087e-07
6.24679e-06
-9.13471e-07
6.21595e-06
-6.27106e-07
6.21435e-06
-2.84589e-07
6.22635e-06
-5.27239e-08
6.23738e-06
-1.70189e-08
6.24512e-06
-1.06296e-08
6.2433e-06
-4.5302e-08
6.23163e-06
-9.9814e-08
6.22366e-06
-9.60069e-08
6.21593e-06
-7.47261e-08
6.20854e-06
-3.43227e-08
6.20163e-06
-1.1273e-08
6.19938e-06
1.57372e-08
6.19992e-06
3.76381e-08
6.20369e-06
5.27191e-08
6.20274e-06
6.30071e-08
6.48312e-08
6.20544e-06
6.49472e-06
-3.06768e-07
6.53368e-06
3.49967e-07
6.51363e-06
-5.1082e-07
6.48509e-06
-8.84929e-07
6.45544e-06
-5.97451e-07
6.45116e-06
-2.8031e-07
6.46275e-06
-6.43146e-08
6.47326e-06
-2.75248e-08
6.48034e-06
-1.77105e-08
6.47875e-06
-4.37129e-08
6.46789e-06
-8.89589e-08
6.45944e-06
-8.75524e-08
6.45257e-06
-6.78593e-08
6.44593e-06
-2.76813e-08
6.43966e-06
-5.00366e-09
6.43705e-06
1.83469e-08
6.43617e-06
3.85186e-08
6.43527e-06
5.36232e-08
6.44031e-06
5.79604e-08
6.23374e-08
6.44281e-06
6.74171e-06
-2.97135e-07
6.77979e-06
3.11881e-07
6.75975e-06
-4.90774e-07
6.73201e-06
-8.57194e-07
6.70441e-06
-5.69849e-07
6.69772e-06
-2.73619e-07
6.70822e-06
-7.4819e-08
6.71813e-06
-3.74284e-08
6.72464e-06
-2.42189e-08
6.72316e-06
-4.22379e-08
6.71325e-06
-7.90492e-08
6.7043e-06
-7.86061e-08
6.6982e-06
-6.17594e-08
6.69234e-06
-2.18135e-08
6.68667e-06
6.62085e-10
6.68391e-06
2.11042e-08
6.6843e-06
3.81343e-08
6.68784e-06
5.00815e-08
6.68698e-06
5.88233e-08
6.00093e-08
6.68931e-06
6.99804e-06
-2.87523e-07
7.03504e-06
2.74875e-07
7.01531e-06
-4.71044e-07
6.98805e-06
-8.2993e-07
6.96304e-06
-5.44843e-07
6.95438e-06
-2.64957e-07
6.96316e-06
-8.35962e-08
6.97232e-06
-4.65905e-08
6.97836e-06
-3.02593e-08
6.97698e-06
-4.08549e-08
6.9681e-06
-7.01759e-08
6.95885e-06
-6.9352e-08
6.95312e-06
-5.60303e-08
6.94811e-06
-1.67984e-08
6.94297e-06
5.7981e-09
6.94024e-06
2.38292e-08
6.93929e-06
3.90879e-08
6.93884e-06
5.05335e-08
6.94292e-06
5.47438e-08
5.7609e-08
6.94532e-06
7.26409e-06
-2.7792e-07
7.29978e-06
2.39178e-07
7.2807e-06
-4.51955e-07
7.25358e-06
-8.02815e-07
7.23273e-06
-5.23992e-07
7.22152e-06
-2.53749e-07
7.2281e-06
-9.01734e-08
7.23627e-06
-5.47587e-08
7.24182e-06
-3.58097e-08
7.24051e-06
-3.95461e-08
7.23271e-06
-6.23781e-08
7.22324e-06
-5.98833e-08
7.21767e-06
-5.04614e-08
7.21351e-06
-1.26368e-08
7.20886e-06
1.04495e-08
7.20642e-06
2.62687e-08
7.20629e-06
3.92201e-08
7.20908e-06
4.7745e-08
7.20873e-06
5.50934e-08
5.53726e-08
7.21096e-06
7.54021e-06
-2.68298e-07
7.57453e-06
2.04853e-07
7.55611e-06
-4.33529e-07
7.52919e-06
-7.75893e-07
7.51324e-06
-5.08047e-07
7.49861e-06
-2.39122e-07
7.50348e-06
-9.50411e-08
7.51031e-06
-6.15906e-08
7.51535e-06
-4.08507e-08
7.51418e-06
-3.83702e-08
7.50744e-06
-5.56425e-08
7.49809e-06
-5.05265e-08
7.49227e-06
-4.46421e-08
7.48901e-06
-9.3793e-09
7.48491e-06
1.45508e-08
7.48272e-06
2.84552e-08
7.48152e-06
4.04252e-08
7.48101e-06
4.8255e-08
7.48453e-06
5.15672e-08
5.32509e-08
7.48665e-06
7.82673e-06
-2.58578e-07
7.86009e-06
1.71497e-07
7.84164e-06
-4.1508e-07
7.81523e-06
-7.49485e-07
7.79455e-06
-4.87367e-07
7.78508e-06
-2.2965e-07
7.79011e-06
-1.00073e-07
7.79485e-06
-6.63295e-08
7.79939e-06
-4.5383e-08
7.79834e-06
-3.73227e-08
7.79257e-06
-4.98718e-08
7.78358e-06
-4.15374e-08
7.7773e-06
-3.83647e-08
7.77488e-06
-6.95781e-09
7.77134e-06
1.80947e-08
7.76935e-06
3.04429e-08
7.76889e-06
4.08816e-08
7.77112e-06
4.60298e-08
7.77096e-06
5.17248e-08
5.13172e-08
7.77289e-06
8.12412e-06
-2.48735e-07
8.15631e-06
1.39302e-07
8.13761e-06
-3.96376e-07
8.11303e-06
-7.24903e-07
8.10155e-06
-4.75893e-07
8.1014e-06
-2.295e-07
8.08966e-06
-8.83276e-08
8.08992e-06
-6.65894e-08
8.09434e-06
-4.98077e-08
8.09349e-06
-3.64677e-08
8.08853e-06
-4.49172e-08
8.08031e-06
-3.33214e-08
8.0734e-06
-3.14494e-08
8.07156e-06
-5.11649e-09
8.06863e-06
2.10244e-08
8.06681e-06
3.22585e-08
8.06574e-06
4.19561e-08
8.06521e-06
4.65611e-08
8.06818e-06
4.87491e-08
4.95471e-08
8.06995e-06
8.43284e-06
-2.3881e-07
8.46334e-06
1.08796e-07
8.44595e-06
-3.78985e-07
8.41988e-06
-6.98832e-07
8.4087e-06
-4.64715e-07
8.39549e-06
-2.16283e-07
8.39498e-06
-8.78216e-08
8.39729e-06
-6.88954e-08
8.40095e-06
-5.34767e-08
8.39998e-06
-3.54905e-08
8.39561e-06
-4.05452e-08
8.38839e-06