/*--------------------------------*- C++ -*----------------------------------*\
| =========                 |                                                 |
| \\      /  F ield         | OpenFOAM: The Open Source CFD Toolbox           |
|  \\    /   O peration     | Version:  v2012                                 |
|   \\  /    A nd           | Website:  www.openfoam.com                      |
|    \\/     M anipulation  |                                                 |
\*---------------------------------------------------------------------------*/
FoamFile
{
    version     2.0;
    format      ascii;
    class       volScalarField;
    location    "1.2";
    object      p;
}
// * * * * * * * * * * * * * * * * * * * * * * * * * * * * * * * * * * * * * //

dimensions      [0 2 -2 0 0 0 0];


internalField   nonuniform List<scalar> 
7000
(
-9.92624e-11
0.00105854
0.001019
0.00113071
0.000416461
-0.000383054
0.000701126
2.56186e-06
0.00143076
0.00114454
-0.00257121
-0.000466343
-0.0051225
-0.0042785
-0.00614654
-0.00623867
-0.00657908
-0.00654632
-0.006449
-0.00646512
3.75989e-07
0.00105873
0.00101836
0.00112212
0.000412516
-0.00037562
0.000704366
-8.07587e-06
0.00145075
0.00112472
-0.00254206
-0.000566863
-0.00510741
-0.00428986
-0.00614642
-0.00623262
-0.00657965
-0.00653795
-0.00644816
-0.00649096
1.03454e-06
0.00105856
0.0010164
0.00111396
0.000408944
-0.00036691
0.000705438
-2.08503e-05
0.00147408
0.00109593
-0.00249613
-0.000613311
-0.00506487
-0.00432403
-0.0061207
-0.0062371
-0.00656184
-0.00653659
-0.00644642
-0.00651829
1.85875e-06
0.00105798
0.00101431
0.00110743
0.000405734
-0.00035909
0.000704751
-3.7284e-05
0.00149132
0.00105443
-0.00245503
-0.000676597
-0.00502159
-0.00436616
-0.00608318
-0.00624602
-0.00653706
-0.0065442
-0.00644898
-0.00655554
2.92674e-06
0.00105715
0.00101252
0.00110224
0.00040267
-0.000351643
0.000702606
-5.78902e-05
0.00150324
0.000996696
-0.00242042
-0.000762164
-0.00498563
-0.00441006
-0.00604755
-0.00625348
-0.00651433
-0.00655292
-0.00645564
-0.00659183
4.33018e-06
0.00105614
0.001011
0.00109831
0.000399986
-0.00034421
0.000698894
-8.19204e-05
0.00151196
0.000922881
-0.00238757
-0.000870661
-0.00495153
-0.0044559
-0.00601104
-0.00625693
-0.00649006
-0.00655643
-0.00646613
-0.0066167
6.10631e-06
0.00105495
0.00100974
0.0010957
0.00039789
-0.000336697
0.000693513
-0.000108014
0.00151907
0.000836537
-0.00235373
-0.000997987
-0.0049133
-0.00450234
-0.00596719
-0.00625587
-0.00646063
-0.00655582
-0.00648089
-0.00663194
8.25126e-06
0.00105363
0.00100879
0.00109439
0.000396462
-0.000329083
0.000686425
-0.000134863
0.00152579
0.00074174
-0.00231813
-0.00113748
-0.00486905
-0.00454728
-0.00591639
-0.00625159
-0.00642894
-0.00655408
-0.0065004
-0.00664268
1.07419e-05
0.00105224
0.00100813
0.00109425
0.000395673
-0.000321405
0.000677675
-0.000161397
0.00153279
0.000641316
-0.00228019
-0.00128354
-0.00481919
-0.00459087
-0.00586281
-0.00624556
-0.00639952
-0.00655157
-0.00652428
-0.00665086
1.35404e-05
0.00105085
0.00100769
0.00109501
0.000395405
-0.000313745
0.000667469
-0.000186814
0.00153976
0.00053681
-0.00223905
-0.00143265
-0.00476446
-0.00463456
-0.00580876
-0.0062382
-0.00637458
-0.00654658
-0.00655136
-0.00665674
1.65909e-05
0.00104947
0.00100741
0.00109634
0.000395486
-0.000306206
0.000656243
-0.000210631
0.0015456
0.000429191
-0.00219384
-0.00158228
-0.00470538
-0.00467899
-0.00575466
-0.00622899
-0.00635435
-0.00653781
-0.00658054
-0.00666094
1.98216e-05
0.00104814
0.00100722
0.00109781
0.000395761
-0.000298875
0.000644634
-0.000232811
0.00154881
0.000319539
-0.00214379
-0.00173117
-0.00464198
-0.0047238
-0.00570112
-0.00621678
-0.00633889
-0.00652532
-0.00661094
-0.0066643
2.31516e-05
0.00104686
0.0010071
0.00109907
0.000396158
-0.000291817
0.00063334
-0.00025382
0.00154797
0.000209363
-0.00208839
-0.00187813
-0.00457399
-0.00476835
-0.0056493
-0.00620021
-0.00632881
-0.00650983
-0.00664128
-0.0066674
2.64999e-05
0.00104564
0.0010071
0.00109984
0.000396726
-0.000285061
0.00062295
-0.000274525
0.00154215
0.000100397
-0.0020277
-0.00202173
-0.00450118
-0.00481182
-0.00560033
-0.00617827
-0.00632486
-0.00649212
-0.00666991
-0.0066705
2.97976e-05
0.00104448
0.00100726
0.00109998
0.000397607
-0.000278622
0.00061384
-0.000295901
0.00153115
-5.85838e-06
-0.00196278
-0.00216013
-0.00442359
-0.00485295
-0.0055551
-0.00615041
-0.00632717
-0.00647328
-0.00669542
-0.00667354
3.29972e-05
0.00104337
0.00100765
0.00109946
0.000398985
-0.000272522
0.000606162
-0.000318664
0.00151553
-0.000108545
-0.00189558
-0.00229097
-0.00434199
-0.00488989
-0.00551429
-0.00611661
-0.0063348
-0.00645475
-0.006717
-0.00667632
3.6076e-05
0.00104228
0.00100834
0.00109831
0.000401039
-0.000266813
0.000599873
-0.000343025
0.00149646
-0.000207585
-0.00182838
-0.0024112
-0.00425844
-0.00492019
-0.00547805
-0.00607764
-0.00634618
-0.00643804
-0.00673388
-0.00667838
3.90368e-05
0.00104118
0.00100939
0.00109661
0.000403902
-0.000261561
0.000594792
-0.000368752
0.00147536
-0.000303378
-0.0017637
-0.00251775
-0.00417574
-0.00494109
-0.00544594
-0.00603467
-0.00635961
-0.00642482
-0.00674518
-0.00667854
4.19043e-05
0.00104004
0.00101085
0.00109438
0.000407658
-0.000256845
0.000590705
-0.00039543
0.00145344
-0.000396335
-0.00170372
-0.00260834
-0.00409686
-0.00495019
-0.00541708
-0.00598875
-0.00637341
-0.00641663
-0.00675042
-0.00667509
4.4718e-05
0.00103879
0.00101273
0.00109164
0.000412341
-0.000252766
0.000587415
-0.000422662
0.00143146
-0.000486604
-0.00164968
-0.00268202
-0.00402478
-0.00494627
-0.00539084
-0.00594084
-0.00638558
-0.00641396
-0.00674998
-0.00666688
4.75257e-05
0.00103739
0.00101508
0.00108841
0.000417952
-0.000249431
0.000584723
-0.000450165
0.00140957
-0.000573901
-0.00160232
-0.00273919
-0.00396157
-0.00492953
-0.00536734
-0.00589222
-0.00639416
-0.00641618
-0.00674504
-0.00665356
5.03784e-05
0.00103576
0.00101791
0.00108465
0.000424489
-0.000246937
0.000582406
-0.000477805
0.00138741
-0.00065751
-0.00156235
-0.00278118
-0.00390831
-0.00490135
-0.00534672
-0.00584457
-0.00639856
-0.0064225
-0.00673655
-0.00663464
5.33268e-05
0.00103385
0.00102127
0.00108035
0.000431967
-0.000245382
0.000580229
-0.000505514
0.0013643
-0.000736427
-0.00153039
-0.00280945
-0.0038657
-0.00486391
-0.00532819
-0.0057998
-0.00639987
-0.00643196
-0.00672433
-0.00660948
5.64219e-05
0.0010316
0.0010252
0.00107546
0.000440406
-0.000244822
0.000577947
-0.000533122
0.00133923
-0.000809519
-0.00150711
-0.00282504
-0.00383392
-0.00482009
-0.00531065
-0.00575881
-0.00639954
-0.00644347
-0.00670726
-0.00657799
5.97143e-05
0.00102892
0.00102976
0.00106993
0.000449796
-0.00024525
0.000575253
-0.000560182
0.00131109
-0.000875732
-0.00149356
-0.0028288
-0.00381177
-0.00477335
-0.00529366
-0.0057211
-0.0063978
-0.00645775
-0.0066855
-0.00653911
6.32518e-05
0.00102574
0.00103498
0.00106376
0.000460112
-0.000246611
0.000571791
-0.000585987
0.00127879
-0.000934341
-0.00149066
-0.00282206
-0.00379756
-0.004726
-0.00527786
-0.00568723
-0.00639191
-0.00647465
-0.00666286
-0.00649247
6.70812e-05
0.00102199
0.00104092
0.00105691
0.000471354
-0.000248833
0.000567152
-0.00060973
0.00124147
-0.00098504
-0.00149877
-0.00280578
-0.00379059
-0.00467929
-0.00526324
-0.00566085
-0.00637906
-0.00648809
-0.00664099
-0.0064424
7.12582e-05
0.00101757
0.00104764
0.00104933
0.000483543
-0.000251782
0.000560775
-0.000630493
0.00119839
-0.00102762
-0.00151847
-0.00277997
-0.0037899
-0.00463599
-0.00524936
-0.00564432
-0.00636187
-0.00649156
-0.00661411
-0.00639379
7.58459e-05
0.00101239
0.00105522
0.00104095
0.000496595
-0.000255137
0.000551895
-0.000647207
0.00114865
-0.0010617
-0.00156674
-0.00274611
-0.00379315
-0.00459743
-0.00523764
-0.00563667
-0.00634568
-0.0064863
-0.00657409
-0.00634548
8.08843e-05
0.00100637
0.00106367
0.00103192
0.000510201
-0.000258216
0.000539471
-0.000659116
0.00109157
-0.00108754
-0.00160641
-0.00270624
-0.00379929
-0.00456202
-0.00522905
-0.00563749
-0.00633527
-0.00647899
-0.00651855
-0.00629208
8.64325e-05
0.000999399
0.00107302
0.00102235
0.000524141
-0.00026052
0.000522901
-0.000666208
0.00102713
-0.00110635
-0.00165446
-0.0026607
-0.00380712
-0.00453095
-0.00522282
-0.00564552
-0.00633187
-0.00647578
-0.00645117
-0.00623034
9.26088e-05
0.000991341
0.00108335
0.00101175
0.000538401
-0.000261842
0.000501811
-0.000668547
0.000956462
-0.00111959
-0.00170829
-0.00261652
-0.00380873
-0.00450573
-0.00522011
-0.00565446
-0.00633483
-0.00648105
-0.00640456
-0.00615766
9.94756e-05
0.000982109
0.00109464
0.000998181
0.000552499
-0.00026137
0.000475607
-0.000666194
0.000880721
-0.00112822
-0.00176311
-0.00259756
-0.00379771
-0.00448634
-0.005221
-0.00566385
-0.00634312
-0.00649983
-0.0063908
-0.00606955
0.000107058
0.000971656
0.00110681
0.000986377
0.000565431
-0.000257934
0.000443769
-0.000659312
0.000799639
-0.00113324
-0.00181621
-0.00258493
-0.00377726
-0.00447375
-0.00521849
-0.0056795
-0.00635773
-0.00653374
-0.00640758
-0.00596582
0.00011549
0.000959858
0.00111979
0.000975508
0.000576764
-0.000251209
0.000406019
-0.000648197
0.000712986
-0.00113537
-0.0018696
-0.0025619
-0.00375835
-0.00446767
-0.00521385
-0.00571323
-0.00638033
-0.00657562
-0.00641082
-0.00584516
0.000124915
0.000946562
0.00113356
0.000963997
0.000586248
-0.000241085
0.000362854
-0.000634331
0.00062349
-0.00113583
-0.00192312
-0.00253945
-0.00374171
-0.00446701
-0.00521902
-0.00575282
-0.00640634
-0.00662027
-0.00639381
-0.00570775
0.000135343
0.000931832
0.00114776
0.000954828
0.000593065
-0.000227302
0.000314725
-0.000618831
0.000533303
-0.00113649
-0.0019736
-0.00252307
-0.00372743
-0.00447308
-0.00523564
-0.00579356
-0.0064363
-0.00665123
-0.00634754
-0.00556209
0.000146842
0.000915689
0.00116204
0.000948268
0.000596616
-0.000209728
0.000261947
-0.00060292
0.00044425
-0.00113862
-0.00202291
-0.00251231
-0.00371372
-0.00449176
-0.00525631
-0.00583229
-0.00646383
-0.00665335
-0.0062744
-0.00542546
0.000159613
0.000897956
0.00117623
0.000943441
0.00059688
-0.000188998
0.000206247
-0.000589386
0.000358749
-0.0011425
-0.00207276
-0.00250873
-0.00370159
-0.00451837
-0.00527906
-0.00586298
-0.00646934
-0.00663226
-0.00620897
-0.00530682
0.000173684
0.000878772
0.00118983
0.000941082
0.000593974
-0.000165694
0.000149279
-0.000580561
0.000278053
-0.00114874
-0.00212065
-0.00251734
-0.00369191
-0.00454355
-0.00530165
-0.00588077
-0.00645477
-0.00661362
-0.00616509
-0.00518883
0.000189039
0.000858455
0.00120194
0.000942971
0.000587835
-0.000140507
9.24341e-05
-0.00057794
0.000202359
-0.00115615
-0.00216994
-0.00253726
-0.00368272
-0.0045666
-0.0053168
-0.00588736
-0.00644072
-0.00660737
-0.00612135
-0.00505714
0.000205918
0.000836904
0.00121217
0.000948577
0.000578916
-0.000115103
3.83204e-05
-0.000582106
0.000129412
-0.00116368
-0.00222112
-0.00256658
-0.00367272
-0.00458384
-0.00532519
-0.0058953
-0.00643177
-0.0065914
-0.00606437
-0.00492436
0.000224372
0.000814299
0.00122003
0.000957803
0.000568316
-9.14422e-05
-1.14049e-05
-0.000592662
5.76277e-05
-0.00117196
-0.00227164
-0.00260644
-0.00366133
-0.0045911
-0.0053355
-0.00590784
-0.00641314
-0.0065536
-0.00600619
-0.00480326
0.000244313
0.000791255
0.00122447
0.000973283
0.000556731
-7.08261e-05
-5.61617e-05
-0.0006085
-1.46418e-05
-0.00118083
-0.00232223
-0.00265243
-0.00364728
-0.00459654
-0.00534513
-0.00591213
-0.00638318
-0.00651074
-0.00595723
-0.00468624
0.000265986
0.000767576
0.001225
0.000996174
0.000545523
-5.46126e-05
-9.57326e-05
-0.000628421
-8.98144e-05
-0.00119035
-0.0023698
-0.00270331
-0.00363695
-0.00459902
-0.00534291
-0.00590825
-0.00635841
-0.00647129
-0.00590252
-0.00456371
0.000289335
0.00074372
0.00122129
0.00101852
0.000536449
-4.40428e-05
-0.000131037
-0.000650675
-0.000167691
-0.00120121
-0.00241267
-0.00276183
-0.00363027
-0.00459086
-0.00533412
-0.00590405
-0.00633934
-0.00642555
-0.00583331
-0.00443896
0.000314278
0.000720383
0.00121257
0.00104409
0.000530668
-3.93543e-05
-0.000163805
-0.000673976
-0.000248083
-0.00121483
-0.00245104
-0.00282432
-0.0036222
-0.00457902
-0.00532821
-0.00589381
-0.00631399
-0.00637257
-0.00575809
-0.00431477
0.000341067
0.000697288
0.00119849
0.00107026
0.000529519
-3.98992e-05
-0.000195958
-0.000698215
-0.000331207
-0.00123159
-0.002481
-0.00288688
-0.00362065
-0.00456851
-0.00531801
-0.00587083
-0.00628202
-0.0063187
-0.00567874
-0.00418951
0.000369493
0.00067532
0.00117887
0.00109707
0.000534276
-4.50812e-05
-0.000229524
-0.000723165
-0.000415094
-0.00125033
-0.00250435
-0.00295255
-0.00362667
-0.00455213
-0.00530207
-0.00584134
-0.00624159
-0.00626108
-0.00560014
-0.0040648
0.000399589
0.000654704
0.00115343
0.00112361
0.000545143
-5.35581e-05
-0.000265068
-0.000748167
-0.000499032
-0.00127335
-0.00252194
-0.00301653
-0.00363493
-0.00453087
-0.00528814
-0.00580932
-0.00618955
-0.00619925
-0.00552158
-0.00393827
0.000431382
0.00063544
0.00112243
0.00114842
0.000562241
-6.34444e-05
-0.000303112
-0.000774115
-0.000583303
-0.00130093
-0.00253006
-0.00307479
-0.00365086
-0.00450975
-0.00527359
-0.00577387
-0.00612837
-0.00612904
-0.00543572
-0.00381108
0.000464658
0.000618304
0.00108617
0.00117044
0.00058495
-7.35927e-05
-0.000344053
-0.000801448
-0.000666311
-0.00133166
-0.00253292
-0.0031296
-0.00367574
-0.00448588
-0.005252
-0.00573755
-0.00606128
-0.00604592
-0.00534376
-0.0036869
0.000499459
0.000603108
0.00104523
0.00118846
0.000611733
-8.29371e-05
-0.00038674
-0.000829428
-0.000747248
-0.00136802
-0.00253031
-0.00317523
-0.00370485
-0.0044604
-0.00522407
-0.00570315
-0.00599353
-0.00595441
-0.00524178
-0.00355983
0.000535523
0.000590697
0.00100035
0.00120088
0.000641695
-9.0088e-05
-0.000430742
-0.000858774
-0.000825739
-0.00140886
-0.00252412
-0.00320917
-0.00373741
-0.00443902
-0.00519249
-0.00566953
-0.00592509
-0.00585153
-0.00512457
-0.00342789
0.000572699
0.000581396
0.000952401
0.0012067
0.00067297
-9.48436e-05
-0.000475091
-0.000889342
-0.000900467
-0.00145242
-0.00251817
-0.00323219
-0.0037713
-0.00442409
-0.00515621
-0.0056299
-0.00585261
-0.0057427
-0.00499705
-0.00329129
0.000610684
0.000575632
0.000902385
0.00120499
0.000703785
-9.69633e-05
-0.000518562
-0.000920786
-0.000971485
-0.00149781
-0.00251475
-0.00324486
-0.00380166
-0.00441441
-0.00511543
-0.00558392
-0.00578008
-0.00563579
-0.00486239
-0.00314543
0.000649098
0.000574017
0.000851258
0.00119478
0.000733085
-9.67016e-05
-0.00056108
-0.000952681
-0.00103833
-0.00154344
-0.00251503
-0.00324949
-0.00382437
-0.00440819
-0.00507512
-0.00553726
-0.00570719
-0.00552619
-0.0047194
-0.00299108
0.000687603
0.000576962
0.000800145
0.00117545
0.000759504
-9.48419e-05
-0.000602519
-0.000983824
-0.00109977
-0.0015945
-0.00251927
-0.00324811
-0.00383796
-0.00440404
-0.00503753
-0.0054904
-0.00563126
-0.00541218
-0.00457199
-0.00283257
0.000725738
0.000585009
0.00075011
0.00114668
0.000781092
-9.20868e-05
-0.000641969
-0.00101371
-0.0011555
-0.0016388
-0.00252588
-0.00324419
-0.00384309
-0.00439915
-0.00500013
-0.00544286
-0.00555558
-0.00529762
-0.00442531
-0.00267241
0.000763197
0.000598668
0.000702263
0.00110851
0.000796256
-8.91388e-05
-0.000678616
-0.00104233
-0.00120598
-0.0016774
-0.0025334
-0.00324068
-0.00384081
-0.00439084
-0.00496111
-0.00539459
-0.00548363
-0.00518728
-0.0042816
-0.00250924
0.000799664
0.000618378
0.000657757
0.00106098
0.000803926
-8.6137e-05
-0.000712427
-0.00106939
-0.00125156
-0.00171086
-0.00253993
-0.00323831
-0.00383276
-0.00437782
-0.00491981
-0.00534503
-0.00541779
-0.00508291
-0.00413873
-0.00234319
0.000834907
0.000642438
0.00061738
0.00100466
0.000802982
-8.24843e-05
-0.000743163
-0.00109496
-0.00129284
-0.00174085
-0.00254289
-0.00323594
-0.00382121
-0.00436003
-0.00487613
-0.00529265
-0.00535615
-0.0049841
-0.00399928
-0.00217864
0.000868702
0.000670435
0.000581603
0.000940497
0.0007929
-7.65036e-05
-0.00077006
-0.00112032
-0.00133063
-0.00176825
-0.00254088
-0.00323221
-0.0038086
-0.00433896
-0.00483089
-0.00523474
-0.00529496
-0.00489413
-0.00386938
-0.00201698
0.000900828
0.000701403
0.000551057
0.00087013
0.000773628
-6.79457e-05
-0.000792525
-0.00114629
-0.00136524
-0.00179337
-0.00253431
-0.00322556
-0.00379552
-0.00431582
-0.00478499
-0.00517103
-0.00523121
-0.00481216
-0.00375069
-0.0018603
0.000931141
0.000734087
0.00052633
0.000795921
0.000744944
-5.77126e-05
-0.000810499
-0.00117287
-0.0013974
-0.00181747
-0.00252474
-0.00321285
-0.00378089
-0.00429172
-0.00473999
-0.00510434
-0.00516233
-0.00473299
-0.00364183
-0.00171154
0.000959571
0.000767325
0.000507952
0.000720349
0.000706785
-4.80778e-05
-0.00082372
-0.00119954
-0.00142725
-0.00184146
-0.00251413
-0.0031922
-0.00376341
-0.00426778
-0.00469729
-0.00503748
-0.00508841
-0.00465236
-0.003539
-0.00157048
0.00098607
0.000800303
0.000497003
0.000644905
0.000657666
-4.11398e-05
-0.00083147
-0.00122557
-0.00145532
-0.00186482
-0.00250432
-0.00316461
-0.00374076
-0.00424321
-0.00465647
-0.0049715
-0.00501062
-0.00456793
-0.00343869
-0.00143674
0.00101066
0.000832422
0.000500275
0.000570166
0.000601288
-3.81514e-05
-0.000833576
-0.00125106
-0.00148185
-0.00188632
-0.00249778
-0.00313248
-0.00370973
-0.00421603
-0.00461718
-0.00490776
-0.00493195
-0.00448016
-0.00333844
-0.00130881
0.00103351
0.000863059
0.000500878
0.000501018
0.000538112
-4.12298e-05
-0.000830246
-0.00127401
-0.00150718
-0.00190483
-0.00249526
-0.00309923
-0.00366972
-0.00418408
-0.00457917
-0.00484779
-0.00485525
-0.00439139
-0.00323661
-0.00118269
0.0010548
0.000891756
0.000506058
0.000437814
0.000469281
-5.14722e-05
-0.000822535
-0.00129332
-0.00153198
-0.00191966
-0.00249579
-0.00306917
-0.00362212
-0.00414427
-0.00454132
-0.00479197
-0.00478138
-0.00430242
-0.0031319
-0.00105689
0.00107476
0.0009181
0.000514746
0.000381467
0.000396879
-6.94323e-05
-0.00081227
-0.0013079
-0.00155661
-0.00193112
-0.00249718
-0.00304465
-0.0035702
-0.00409478
-0.00450119
-0.00473939
-0.00471031
-0.00421472
-0.00302734
-0.000933449
0.00109367
0.000941851
0.000525764
0.000332137
0.000322797
-9.55365e-05
-0.000801136
-0.00131677
-0.00158076
-0.00193966
-0.00249663
-0.00302699
-0.0035199
-0.00403662
-0.00445541
-0.00468874
-0.00464301
-0.00413064
-0.00292573
-0.000812451
0.00111163
0.000962949
0.000538266
0.000290272
0.00024882
-0.000129567
-0.000790806
-0.00131965
-0.00160398
-0.00194625
-0.00249245
-0.00301573
-0.00347648
-0.00397279
-0.00440104
-0.00463768
-0.00457984
-0.0040512
-0.00282783
-0.000694383
0.00112857
0.000981417
0.000551671
0.00025531
0.000176745
-0.000170696
-0.000783458
-0.00131658
-0.00162533
-0.00195291
-0.00248397
-0.00300749
-0.00344237
-0.00390792
-0.00433768
-0.0045833
-0.00452014
-0.00397711
-0.00273526
-0.000581409
0.00114449
0.000997333
0.000565483
0.000226905
0.000107967
-0.000217866
-0.000781049
-0.00130844
-0.00164346
-0.0019608
-0.00247127
-0.00299822
-0.00341798
-0.00384819
-0.00426841
-0.00452345
-0.00446177
-0.00390879
-0.00264988
-0.000474832
0.0011594
0.00101086
0.000579044
0.00020452
4.35032e-05
-0.000269569
-0.000784787
-0.00129688
-0.00165718
-0.00197041
-0.00245606
-0.00298535
-0.0034013
-0.00379821
-0.00419758
-0.00445707
-0.00440171
-0.00384527
-0.00257244
-0.00037602
0.00117341
0.00102212
0.000591705
0.000187559
-1.5866e-05
-0.000324049
-0.000795195
-0.00128382
-0.00166573
-0.00198158
-0.00244067
-0.00296808
-0.0033889
-0.00376004
-0.00413062
-0.00438605
-0.00433758
-0.00378348
-0.00250147
-0.000285834
0.0011866
0.00103126
0.000602925
0.000175118
-6.95209e-05
-0.000379368
-0.00081237
-0.00127167
-0.00166905
-0.00199344
-0.00242703
-0.00294697
-0.00337707
-0.00373351
-0.00407301
-0.00431515
-0.00426955
-0.00372027
-0.00243438
-0.000203738
0.00119901
0.00103857
0.000612251
0.000166178
-0.000117035
-0.000433919
-0.000835942
-0.00126249
-0.00166774
-0.00200529
-0.00241659
-0.0029233
-0.0033629
-0.003716
-0.00402825
-0.00425007
-0.00420091
-0.00365566
-0.00236961
-0.000128029
0.00121063
0.00104433
0.000619429
0.000159676
-0.000158377
-0.000486379
-0.000864934
-0.00125805
-0.00166281
-0.00201611
-0.00241043
-0.00289987
-0.0033457
-0.00370328
-0.00399615
-0.00419443
-0.00413537
-0.00359118
-0.00230658
-5.82406e-05
0.00122145
0.00104889
0.000624437
0.00015445
-0.00019411
-0.00053534
-0.000897857
-0.00125991
-0.00165574
-0.0020248
-0.00240911
-0.00287981
-0.00332669
-0.00369217
-0.0039748
-0.00415049
-0.00407642
-0.00352827
-0.00224496
5.28931e-06
0.00123134
0.00105254
0.00062741
0.000149732
-0.000224809
-0.000580312
-0.000933163
-0.00126865
-0.00164885
-0.00203055
-0.00241159
-0.00286472
-0.0033084
-0.00368198
-0.00396235
-0.00412012
-0.00402887
-0.00347159
-0.00218689
6.36575e-05
0.00124015
0.00105548
0.00062868
0.000144889
-0.000251017
-0.000621013
-0.000969541
-0.00128434
-0.00164538
-0.00203385
-0.00241594
-0.00285474
-0.00329317
-0.00367297
-0.00395616
-0.00410249
-0.00399579
-0.00342708
-0.00213769
0.000114329
0.00124785
0.00105785
0.000628562
0.000139228
-0.000273681
-0.000657071
-0.00100547
-0.0013061
-0.00164783
-0.00203641
-0.00242178
-0.0028506
-0.00328327
-0.00366611
-0.00395366
-0.00409395
-0.00397575
-0.00339675
-0.00210185
0.000151927
0.0012543
0.00105986
0.000627536
0.000132527
-0.000294022
-0.000689348
-0.00104011
-0.00133155
-0.00165652
-0.00204062
-0.00242931
-0.00285282
-0.00328148
-0.00366545
-0.00395698
-0.00409405
-0.00396668
-0.003379
-0.00207928
0.000175482
0.00125948
0.00106139
0.000625969
0.000125029
-0.000312673
-0.000718408
-0.00107431
-0.00136018
-0.00167094
-0.00204797
-0.00243781
-0.00285898
-0.00328745
-0.00367454
-0.00397031
-0.00410638
-0.00397146
-0.00337571
-0.002071
0.000184782
0.0012635
0.00106237
0.000623862
0.000116793
-0.000330509
-0.000744278
-0.00110728
-0.00139202
-0.00169163
-0.00206086
-0.00244879
-0.00286771
-0.00329745
-0.00369107
-0.00399455
-0.00413378
-0.00399496
-0.00339197
-0.0020808
0.000177981
0.00126621
0.00106299
0.000621663
0.000108191
-0.000348781
-0.000769205
-0.00113994
-0.00142526
-0.00171548
-0.00207994
-0.00246539
-0.00288054
-0.00331126
-0.00371235
-0.00402679
-0.00417439
-0.00403813
-0.00343335
-0.00211735
0.00014699
0.00126748
0.00106314
0.000620207
0.000100524
-0.000367225
-0.000793787
-0.00117351
-0.00146283
-0.00174173
-0.00210127
-0.00248771
-0.00289961
-0.0033312
-0.00374
-0.00406555
-0.00422314
-0.00409353
-0.00349323
-0.00218038
8.15213e-05
0.00126607
0.00106284
0.00061966
9.31713e-05
-0.000387645
-0.00081877
-0.00120484
-0.00150377
-0.00177362
-0.00212357
-0.00251158
-0.00292396
-0.00335686
-0.00377558
-0.00411499
-0.00428449
-0.00416174
-0.00356602
-0.00226082
-1.05829e-05
0.00126289
0.00106412
0.000621915
8.66729e-05
-0.000412166
-0.000852084
-0.00123829
-0.00154493
-0.00181126
-0.00215071
-0.0025389
-0.00295352
-0.00338839
-0.00381624
-0.00417453
-0.00436407
-0.00425574
-0.00366487
-0.00236053
-0.000113683
0.00126148
0.00107081
0.000633569
8.34319e-05
-0.000438858
-0.000889154
-0.00127454
-0.00158481
-0.00184839
-0.00217771
-0.00257008
-0.00298968
-0.00343186
-0.00387034
-0.00424798
-0.00446749
-0.00438982
-0.00381905
-0.00251839
-0.000255319
0.00122989
0.00106735
0.000646329
8.34805e-05
-0.00047432
-0.000932297
-0.00131589
-0.00162297
-0.00187496
-0.00218323
-0.00257898
-0.00301283
-0.00346568
-0.00392042
-0.00432286
-0.00458231
-0.0045601
-0.00405007
-0.00279545
-0.000568679
0.00126922
0.00106947
0.000645766
5.80095e-05
-0.000525221
-0.000996425
-0.00137163
-0.00167678
-0.00191801
-0.00218581
-0.00254752
-0.00296958
-0.00341683
-0.00385382
-0.00424717
-0.00452781
-0.00455293
-0.00413272
-0.00301409
-0.000950328
0.00121352
0.00111826
0.000672618
5.70637e-05
-0.000564859
-0.00102897
-0.00142487
-0.00174726
-0.00206332
-0.00235785
-0.00272927
-0.00313128
-0.00356992
-0.00398556
-0.00431611
-0.004467
-0.00434419
-0.00379337
-0.00259859
-0.000511369
0.00133215
0.00104656
0.00057335
-3.8999e-05
-0.00060075
-0.00102833
-0.0013414
-0.00156164
-0.00177765
-0.00204141
-0.00242631
-0.00288057
-0.00339092
-0.00400077
-0.00468455
-0.00532309
-0.00572066
-0.00562296
-0.00474387
-0.00284907
0.00151853
0.000957874
0.000438657
-0.000117514
-0.000592648
-0.00115951
-0.00173248
-0.00225321
-0.00253833
-0.00263459
-0.00276217
-0.00301134
-0.00316493
-0.0030258
-0.00248773
-0.00163376
-0.000650637
0.000153043
0.000397866
-0.000255123
0.00149104
0.00094606
0.000395392
-0.000123412
-0.000526096
-0.000802896
-0.000952879
-0.00112697
-0.00148144
-0.00197428
-0.00256528
-0.00326653
-0.00408602
-0.00498311
-0.0059092
-0.00677225
-0.00740006
-0.00755225
-0.00693631
-0.00529626
0.00163097
0.000903084
0.00033219
-0.000190423
-0.000538242
-0.00100067
-0.00152006
-0.00203833
-0.00238739
-0.00259935
-0.0028706
-0.00327133
-0.00361741
-0.00376501
-0.00359379
-0.00309753
-0.00238279
-0.00174688
-0.00159113
-0.00228721
0.00161741
0.000863992
0.000267467
-0.00018604
-0.000390171
-0.000489528
-0.000491384
-0.000607913
-0.00100132
-0.00172844
-0.00271606
-0.00397662
-0.0054742
-0.00708146
-0.00858873
-0.00980574
-0.0105605
-0.0106667
-0.00989749
-0.0080528
-0.00705319
-0.0103237
-0.0118956
-0.00974452
-0.0065114
-0.00350041
-0.00122655
0.000532638
0.0022324
0.00374694
0.00469461
0.00553428
0.00718103
0.00923529
0.0108752
0.0123088
0.0137619
0.0152519
0.016901
0.018676
0.0203928
0.0221489
0.0240221
0.025912
0.0277994
0.0297747
0.0318862
0.0340679
0.036417
0.038816
0.0411638
0.0435868
0.0461874
0.0488639
0.0516159
0.0544465
0.0574118
0.060477
0.0636044
0.0669346
0.0702647
0.0738618
0.0775461
0.0813203
0.0853316
0.0893265
0.0936791
0.0979275
0.102418
0.107489
-0.00696832
-0.0102539
-0.0118526
-0.00972876
-0.00650319
-0.00349457
-0.00122168
0.000536774
0.00223593
0.00375007
0.00469729
0.00553631
0.00718263
0.00923675
0.0108765
0.0123099
0.0137628
0.0152527
0.0169017
0.0186766
0.0203933
0.0221494
0.0240226
0.0259124
0.0277998
0.0297751
0.0318866
0.0340682
0.0364173
0.0388163
0.0411641
0.043587
0.0461876
0.0488641
0.051616
0.0544467
0.0574119
0.0604771
0.0636045
0.0669347
0.0702648
0.0738619
0.0775461
0.0813203
0.0853316
0.0893266
0.0936792
0.0979276
0.102418
0.107489
-0.00696803
-0.0101549
-0.0117796
-0.00970615
-0.00649335
-0.00348833
-0.00121708
0.000540513
0.0022392
0.00375304
0.00469973
0.005538
0.00718403
0.00923819
0.0108777
0.0123109
0.0137636
0.0152534
0.0169023
0.0186772
0.0203938
0.0221499
0.024023
0.0259128
0.0278002
0.0297754
0.0318869
0.0340685
0.0364176
0.0388166
0.0411643
0.0435872
0.0461878
0.0488643
0.0516162
0.0544468
0.0574121
0.0604772
0.0636046
0.0669348
0.0702649
0.073862
0.0775462
0.0813204
0.0853317
0.0893266
0.0936792
0.0979276
0.102418
0.107489
-0.00697689
-0.0100172
-0.011667
-0.00966975
-0.0064787
-0.00348027
-0.00121213
0.00054424
0.00224256
0.00375622
0.00470231
0.00553969
0.00718552
0.00923985
0.0108791
0.0123119
0.0137645
0.0152541
0.0169029
0.0186778
0.0203944
0.0221503
0.0240234
0.0259132
0.0278005
0.0297758
0.0318872
0.0340688
0.0364178
0.0388168
0.0411645
0.0435874
0.046188
0.0488645
0.0516164
0.0544469
0.0574122
0.0604773
0.0636047
0.0669349
0.070265
0.073862
0.0775463
0.0813204
0.0853317
0.0893266
0.0936792
0.0979276
0.102418
0.10749
-0.00696347
-0.00984809
-0.0115221
-0.00961932
-0.00645787
-0.00346926
-0.00120632
0.00054812
0.00224609
0.00375972
0.00470524
0.0055417
0.00718739
0.00924191
0.0108808
0.0123132
0.0137655
0.0152549
0.0169036
0.0186784
0.0203949
0.0221508
0.0240239
0.0259136
0.0278009
0.0297761
0.0318875
0.0340691
0.0364181
0.0388171
0.0411648
0.0435876
0.0461882
0.0488646
0.0516165
0.0544471
0.0574123
0.0604774
0.0636048
0.066935
0.0702651
0.0738621
0.0775463
0.0813205
0.0853318
0.0893267
0.0936793
0.0979277
0.102418
0.10749
-0.00693874
-0.00966336
-0.0113587
-0.00955969
-0.00643203
-0.00345525
-0.00119939
0.000552184
0.00224965
0.00376338
0.00470852
0.0055442
0.00718985
0.00924452
0.0108829
0.0123148
0.0137668
0.0152559
0.0169044
0.0186792
0.0203956
0.0221514
0.0240244
0.0259141
0.0278013
0.0297764
0.0318879
0.0340694
0.0364184
0.0388174
0.0411651
0.0435879
0.0461884
0.0488649
0.0516167
0.0544473
0.0574125
0.0604776
0.0636049
0.0669351
0.0702651
0.0738622
0.0775464
0.0813205
0.0853318
0.0893267
0.0936793
0.0979277
0.102418
0.10749
-0.00691422
-0.00947088
-0.0111842
-0.00949485
-0.00640314
-0.0034388
-0.0011913
0.000556498
0.00225309
0.00376691
0.00471195
0.00554724
0.0071931
0.00924784
0.0108855
0.0123167
0.0137684
0.0152571
0.0169054
0.01868
0.0203963
0.022152
0.024025
0.0259146
0.0278018
0.0297768
0.0318882
0.0340697
0.0364187
0.0388178
0.0411653
0.0435881
0.0461886
0.0488651
0.0516169
0.0544474
0.0574126
0.0604777
0.0636051
0.0669352
0.0702653
0.0738623
0.0775465
0.0813206
0.0853319
0.0893268
0.0936793
0.0979278
0.102419
0.10749
-0.006891
-0.00927212
-0.0110014
-0.00942686
-0.00637269
-0.00342064
-0.00118213
0.000561105
0.00225634
0.00377009
0.00471525
0.00555065
0.0071972
0.00925201
0.0108886
0.0123191
0.0137703
0.0152587
0.0169067
0.0186811
0.0203971
0.0221527
0.0240257
0.0259153
0.0278023
0.0297772
0.0318886
0.0340701
0.0364191
0.0388181
0.0411657
0.0435884
0.0461888
0.0488653
0.0516171
0.0544477
0.0574128
0.0604779
0.0636052
0.0669353
0.0702654
0.0738624
0.0775466
0.0813207
0.085332
0.0893269
0.0936794
0.0979278
0.102419
0.107491
-0.00686664
-0.00906773
-0.0108115
-0.00935651
-0.00634151
-0.00340128
-0.00117207
0.00056596
0.00225935
0.00377279
0.0047181
0.0055541
0.00720206
0.00925713
0.0108925
0.012322
0.0137726
0.0152607
0.0169083
0.0186823
0.020398
0.0221535
0.0240265
0.025916
0.0278029
0.0297777
0.0318891
0.0340704
0.0364194
0.0388186
0.041166
0.0435887
0.0461891
0.0488656
0.0516174
0.0544479
0.0574131
0.0604781
0.0636054
0.0669355
0.0702655
0.0738625
0.0775467
0.0813208
0.0853321
0.0893269
0.0936794
0.0979279
0.102419
0.107491
-0.00684005
-0.00885883
-0.0106147
-0.0092838
-0.00630992
-0.00338101
-0.00116127
0.000570959
0.00226204
0.00377493
0.00472032
0.00555722
0.00720741
0.00926318
0.010897
0.0123252
0.0137752
0.0152629
0.0169103
0.0186838
0.0203991
0.0221545
0.0240274
0.0259169
0.0278037
0.0297784
0.0318896
0.0340708
0.0364198
0.038819
0.0411664
0.043589
0.0461895
0.0488659
0.0516177
0.0544482
0.0574133
0.0604783
0.0636056
0.0669357
0.0702657
0.0738627
0.0775469
0.0813209
0.0853322
0.0893271
0.0936795
0.097928
0.102419
0.107492
-0.00681127
-0.00864625
-0.0104107
-0.00920839
-0.00627806
-0.00335996
-0.00114977
0.000576015
0.00226428
0.00377641
0.00472184
0.00555973
0.00721289
0.00927004
0.0109023