/*--------------------------------*- C++ -*----------------------------------*\
| =========                 |                                                 |
| \\      /  F ield         | OpenFOAM: The Open Source CFD Toolbox           |
|  \\    /   O peration     | Version:  v2012                                 |
|   \\  /    A nd           | Website:  www.openfoam.com                      |
|    \\/     M anipulation  |                                                 |
\*---------------------------------------------------------------------------*/
FoamFile
{
    version     2.0;
    format      ascii;
    class       surfaceScalarField;
    location    "1.2";
    object      phi;
}
// * * * * * * * * * * * * * * * * * * * * * * * * * * * * * * * * * * * * * //

dimensions      [0 3 -1 0 0 0 0];
oriented        oriented;


internalField   nonuniform List<scalar> 
13830
(
9.41543e-07
-5.43709e-07
9.39266e-07
4.08259e-07
9.28984e-07
7.05944e-07
9.02495e-07
8.71642e-08
8.95319e-07
-7.42783e-07
9.37039e-07
-5.74456e-07
9.41059e-07
-6.7983e-07
9.19338e-07
-1.46339e-06
9.67004e-07
2.83215e-07
9.31807e-07
-9.61398e-07
9.91461e-07
5.12208e-07
9.55867e-07
-2.12771e-08
9.88836e-07
8.80639e-07
9.62013e-07
3.80979e-07
9.69789e-07
6.07192e-07
9.66548e-07
4.38031e-07
9.63024e-07
4.02827e-07
9.69361e-07
3.90407e-07
9.61978e-07
2.91144e-07
3.09515e-07
9.61118e-07
9.7762e-07
-5.48797e-07
9.75149e-07
4.10731e-07
9.64294e-07
7.16799e-07
9.39812e-07
1.11646e-07
9.31761e-07
-7.34732e-07
9.69467e-07
-6.12162e-07
9.73414e-07
-6.83777e-07
9.53417e-07
-1.4434e-06
1.00159e-06
2.35047e-07
9.64831e-07
-9.24644e-07
1.02686e-06
4.50178e-07
9.89186e-07
1.63986e-08
1.02215e-06
8.47672e-07
9.94811e-07
4.08321e-07
1.00059e-06
6.01409e-07
1.00411e-06
4.34519e-07
9.91191e-07
4.15742e-07
1.01121e-06
3.70386e-07
9.87968e-07
3.14388e-07
2.86539e-07
1.01094e-06
1.01453e-06
-5.53871e-07
1.01268e-06
4.12577e-07
1.00158e-06
7.27898e-07
9.80271e-07
1.32957e-07
9.70733e-07
-7.25194e-07
1.00168e-06
-6.43108e-07
1.00546e-06
-6.87555e-07
9.89932e-07
-1.42787e-06
1.03575e-06
1.89228e-07
1.0036e-06
-8.92493e-07
1.06001e-06
3.93766e-07
1.02993e-06
4.6478e-08
1.0501e-06
8.27503e-07
1.0384e-06
4.20019e-07
1.02724e-06
6.12575e-07
1.04623e-06
4.15527e-07
1.02199e-06
4.39982e-07
1.04503e-06
3.4734e-07
1.02554e-06
3.3388e-07
2.76025e-07
1.03606e-06
1.05232e-06
-5.58413e-07
1.05123e-06
4.13663e-07
1.04117e-06
7.37958e-07
1.02337e-06
1.5076e-07
1.01238e-06
-7.14202e-07
1.03467e-06
-6.65398e-07
1.03789e-06
-6.90782e-07
1.0284e-06
-1.41837e-06
1.06991e-06
1.4771e-07
1.04786e-06
-8.70438e-07
1.09376e-06
3.4786e-07
1.07732e-06
6.29196e-08
1.08216e-06
8.22668e-07
1.0848e-06
4.17376e-07
1.06355e-06
6.33827e-07
1.08479e-06
3.94287e-07
1.0642e-06
4.60575e-07
1.07809e-06
3.33445e-07
1.06956e-06
3.42416e-07
2.73995e-07
1.07159e-06
1.09104e-06
-5.61893e-07
1.0905e-06
4.142e-07
1.08286e-06
7.45593e-07
1.06891e-06
1.64717e-07
1.05692e-06
-7.02212e-07
1.06938e-06
-6.7786e-07
1.07123e-06
-6.92636e-07
1.06782e-06
-1.41496e-06
1.10481e-06
1.1072e-07
1.09559e-06
-8.61213e-07
1.12985e-06
3.13599e-07
1.12835e-06
6.44231e-08
1.12318e-06
8.27835e-07
1.132e-06
4.08558e-07
1.11172e-06
6.54107e-07
1.12649e-06
3.79511e-07
1.11476e-06
4.72308e-07
1.12033e-06
3.27878e-07
1.11792e-06
3.44826e-07
2.75027e-07
1.11688e-06
1.13081e-06
-5.6386e-07
1.1305e-06
4.14511e-07
1.12634e-06
7.49754e-07
1.11668e-06
1.74372e-07
1.10442e-06
-6.89951e-07
1.10672e-06
-6.80162e-07
1.1059e-06
-6.91808e-07
1.10722e-06
-1.41629e-06
1.1413e-06
7.66498e-08
1.14363e-06
-8.63546e-07
1.16869e-06
2.88542e-07
1.17947e-06
5.36422e-08
1.17206e-06
8.35243e-07
1.18037e-06
4.00245e-07
1.16626e-06
6.68218e-07
1.17375e-06
3.72022e-07
1.16809e-06
4.7797e-07
1.16943e-06
3.26535e-07
1.1688e-06
3.4546e-07
2.7681e-07
1.16701e-06
1.1718e-06
-5.63956e-07
1.17153e-06
4.14777e-07
1.17129e-06
7.49996e-07
1.16639e-06
1.79264e-07
1.15472e-06
-6.78275e-07
1.14738e-06
-6.72825e-07
1.1423e-06
-6.86725e-07
1.14632e-06
-1.42031e-06
1.17979e-06
4.31809e-08
1.19013e-06
-8.73888e-07
1.20962e-06
2.69052e-07
1.22878e-06
3.44774e-08
1.22419e-06
8.39834e-07
1.22966e-06
3.94771e-07
1.22105e-06
6.76828e-07
1.22381e-06
3.69269e-07
1.22069e-06
4.81086e-07
1.22042e-06
3.26805e-07
1.21998e-06
3.45901e-07
2.78659e-07
1.21813e-06
1.21416e-06
-5.61936e-07
1.21401e-06
4.14933e-07
1.21747e-06
7.46533e-07
1.21754e-06
1.79196e-07
1.20737e-06
-6.68103e-07
1.19166e-06
-6.57117e-07
1.18098e-06
-6.76048e-07
1.18557e-06
-1.4249e-06
1.22007e-06
8.67552e-09
1.235e-06
-8.88816e-07
1.25189e-06
2.52164e-07
1.276e-06
1.03611e-08
1.27586e-06
8.39979e-07
1.27901e-06
3.91621e-07
1.27362e-06
6.82214e-07
1.27399e-06
3.68898e-07
1.27177e-06
4.83309e-07
1.27086e-06
3.27717e-07
1.27049e-06
3.46269e-07
2.80389e-07
1.26876e-06
1.25811e-06
-5.57695e-07
1.2583e-06
4.14743e-07
1.26475e-06
7.40087e-07
1.26946e-06
1.74486e-07
1.2617e-06
-6.60349e-07
1.23953e-06
-6.3494e-07
1.22264e-06
-6.59158e-07
1.22584e-06
-1.4281e-06
1.26159e-06
-2.70803e-08
1.27899e-06
-9.06219e-07
1.29518e-06
2.35975e-07
1.32181e-06
-1.62609e-08
1.32598e-06
8.35804e-07
1.32812e-06
3.89485e-07
1.32451e-06
6.85817e-07
1.32376e-06
3.69649e-07
1.32215e-06
4.84921e-07
1.32084e-06
3.29023e-07
1.32079e-06
3.46322e-07
2.81922e-07
1.31926e-06
1.3039e-06
-5.51313e-07
1.30467e-06
4.13967e-07
1.31312e-06
7.31638e-07
1.32156e-06
1.66047e-07
1.31694e-06
-6.55724e-07
1.29074e-06
-6.08745e-07
1.26799e-06
-6.36412e-07
1.2681e-06
-1.4282e-06
1.30392e-06
-6.28987e-08
1.32277e-06
-9.25071e-07
1.33948e-06
2.1927e-07
1.36713e-06
-4.39131e-08
1.37522e-06
8.27717e-07
1.37745e-06
3.87255e-07
1.37527e-06
6.87989e-07
1.37388e-06
3.71041e-07
1.37312e-06
4.85679e-07
1.37146e-06
3.30691e-07
1.37188e-06
3.45899e-07
2.83239e-07
1.37056e-06
1.35178e-06
-5.43071e-07
1.35326e-06
4.12489e-07
1.36274e-06
7.22159e-07
1.37356e-06
1.55221e-07
1.37229e-06
-6.5445e-07
1.34488e-06
-5.81332e-07
1.31758e-06
-6.09115e-07
1.31337e-06
-1.42399e-06
1.34712e-06
-9.66477e-08
1.36661e-06
-9.44558e-07
1.38469e-06
2.01182e-07
1.41269e-06
-7.19043e-08
1.42465e-06
8.15757e-07
1.42775e-06
3.84145e-07
1.42727e-06
6.88474e-07
1.42537e-06
3.7294e-07
1.42575e-06
4.85305e-07
1.42365e-06
3.32782e-07
1.42454e-06
3.45016e-07
2.84411e-07
1.42336e-06
1.40199e-06
-5.3341e-07
1.40415e-06
4.10334e-07
1.4139e-06
7.12403e-07
1.42565e-06
1.4347e-07
1.42724e-06
-6.56036e-07
1.40136e-06
-5.55457e-07
1.37149e-06
-5.79242e-07
1.36261e-06
-1.41511e-06
1.39182e-06
-1.25859e-07
1.41065e-06
-9.63391e-07
1.43065e-06
1.81183e-07
1.45881e-06
-1.00064e-07
1.47509e-06
7.99476e-07
1.47968e-06
3.79554e-07
1.48134e-06
6.86814e-07
1.47897e-06
3.75313e-07
1.48057e-06
4.83703e-07
1.47792e-06
3.35435e-07
1.47907e-06
3.43865e-07
2.85625e-07
1.47786e-06
1.45469e-06
-5.22851e-07
1.45743e-06
4.07592e-07
1.46704e-06
7.02791e-07
1.47845e-06
1.32057e-07
1.48171e-06
-6.59289e-07
1.45958e-06
-5.33325e-07
1.42934e-06
-5.49007e-07
1.41646e-06
-1.40223e-06
1.43899e-06
-1.48389e-07
1.45532e-06
-9.79723e-07
1.47718e-06
1.59325e-07
1.50552e-06
-1.28399e-07
1.52691e-06
7.78084e-07
1.53346e-06
3.73004e-07
1.53773e-06
6.82545e-07
1.53486e-06
3.78179e-07
1.53757e-06
4.80995e-07
1.53416e-06
3.38844e-07
1.53526e-06
3.42769e-07
2.87148e-07
1.53373e-06
1.50992e-06
-5.11902e-07
1.51318e-06
4.04335e-07
1.52256e-06
6.93414e-07
1.53279e-06
1.21821e-07
1.53611e-06
-6.62601e-07
1.51898e-06
-5.16201e-07
1.49036e-06
-5.20382e-07
1.47493e-06
-1.38681e-06
1.4896e-06
-1.63056e-07
1.50152e-06
-9.91643e-07
1.52434e-06
1.36503e-07
1.55263e-06
-1.56682e-07
1.57986e-06
7.50845e-07
1.58861e-06
3.64258e-07
1.59586e-06
6.75295e-07
1.59244e-06
3.81605e-07
1.59599e-06
4.77446e-07
1.59164e-06
3.43188e-07
1.59234e-06
3.4207e-07
2.89234e-07
1.59025e-06
1.5677e-06
-5.00992e-07
1.57147e-06
4.00564e-07
1.58073e-06
6.84153e-07
1.58942e-06
1.1313e-07
1.59122e-06
-6.64394e-07
1.57933e-06
-5.04312e-07
1.5537e-06
-4.94754e-07
1.53727e-06
-1.37037e-06
1.54427e-06
-1.70062e-07
1.55047e-06
-9.97845e-07
1.57257e-06
1.14409e-07
1.59994e-06
-1.84059e-07
1.63312e-06
7.1767e-07
1.64386e-06
3.53517e-07
1.65429e-06
6.64864e-07
1.65025e-06
3.85644e-07
1.65437e-06
4.73324e-07
1.64907e-06
3.4849e-07
1.64916e-06
3.41982e-07
2.91981e-07
1.64641e-06
1.62797e-06
-4.9042e-07
1.63232e-06
3.96214e-07
1.64165e-06
6.74819e-07
1.64881e-06
1.05974e-07
1.64794e-06
-6.63522e-07
1.64071e-06
-4.97084e-07
1.61874e-06
-4.72781e-07
1.60221e-06
-1.35385e-06
1.60311e-06
-1.70962e-07
1.60327e-06
-9.97997e-07
1.62267e-06
9.50025e-08
1.64753e-06
-2.08914e-07
1.68556e-06
6.79641e-07
1.69752e-06
3.41557e-07
1.71107e-06
6.51309e-07
1.70648e-06
3.90232e-07
1.71105e-06
4.68758e-07
1.70506e-06
3.54479e-07
1.70459e-06
3.42451e-07
2.95219e-07
1.70135e-06
1.69068e-06
-4.80354e-07
1.69571e-06
3.9119e-07
1.70526e-06
6.6527e-07
1.7111e-06
1.00134e-07
1.70703e-06
-6.5945e-07
1.7035e-06
-4.93555e-07
1.6852e-06
-4.54483e-07
1.66861e-06
-1.33726e-06
1.66579e-06
-1.68138e-07
1.66039e-06
-9.926e-07
1.67569e-06
7.9703e-08
1.69594e-06
-2.29161e-07
1.73653e-06
6.39054e-07
1.74844e-06
3.29639e-07
1.76476e-06
6.34989e-07
1.75988e-06
3.95118e-07
1.76497e-06
4.63667e-07
1.75887e-06
3.60576e-07
1.7582e-06
3.43126e-07
2.98517e-07
1.7549e-06
1.7558e-06
-4.70839e-07
1.76158e-06
3.85411e-07
1.7714e-06
6.5545e-07
1.77621e-06
9.53228e-08
1.76895e-06
-6.52186e-07
1.76815e-06
-4.92757e-07
1.75311e-06
-4.39442e-07
1.73585e-06
-1.32001e-06
1.73172e-06
-1.64002e-07
1.72164e-06
-9.82524e-07
1.73255e-06
6.87899e-08
1.74628e-06
-2.42887e-07
1.78656e-06
5.98773e-07
1.79702e-06
3.19175e-07
1.8155e-06
6.16511e-07
1.81071e-06
3.99908e-07
1.81656e-06
4.57817e-07
1.81109e-06
3.66047e-07
1.81072e-06
3.43493e-07
3.01333e-07
1.80791e-06
1.82333e-06
-4.61829e-07
1.82989e-06
3.78842e-07
1.83996e-06
6.45382e-07
1.84402e-06
9.12654e-08
1.8339e-06
-6.42067e-07
1.83507e-06
-4.93925e-07
1.82267e-06
-4.27042e-07
1.804e-06
-1.30134e-06
1.80034e-06
-1.60339e-07
1.7864e-06
-9.68582e-07
1.7938e-06
6.13867e-08
1.79992e-06
-2.49009e-07
1.83748e-06
5.61215e-07
1.84536e-06
3.11295e-07
1.86528e-06
5.96596e-07
1.86099e-06
4.042e-07
1.86781e-06
4.50993e-07
1.86359e-06
3.70265e-07
1.86399e-06
3.43093e-07
3.03236e-07
1.86209e-06
1.8933e-06
-4.53227e-07
1.90062e-06
3.71515e-07
1.91087e-06
6.35135e-07
1.91443e-06
8.77029e-08
1.9019e-06
-6.29532e-07
1.90448e-06
-4.96508e-07
1.8941e-06
-4.16656e-07
1.87361e-06
-1.28085e-06
1.87134e-06
-1.58072e-07
1.8541e-06
-9.51344e-07
1.85951e-06
5.59773e-08
1.85807e-06
-2.47566e-07
1.89173e-06
5.27549e-07
1.89647e-06
3.06562e-07
1.91717e-06
5.75892e-07
1.91364e-06
4.07732e-07
1.92147e-06
4.43165e-07
1.9188e-06
3.72931e-07
1.92018e-06
3.41712e-07
3.0405e-07
1.91937e-06
1.96579e-06
-4.44913e-07
1.9738e-06
3.63509e-07
1.98414e-06
6.24791e-07
1.98746e-06
8.438e-08
1.97293e-06
-6.15002e-07
1.9765e-06
-5.00073e-07
1.9676e-06
-4.0776e-07
1.9453e-06
-1.25855e-06
1.94467e-06
-1.57442e-07
1.92446e-06
-9.3113e-07
1.92938e-06
5.10495e-08
1.92133e-06
-2.39517e-07
1.95129e-06
4.97589e-07
1.95293e-06
3.04924e-07
1.97395e-06
5.54873e-07
1.97126e-06
4.10424e-07
1.97987e-06
4.34558e-07
1.97871e-06
3.74087e-07
1.981e-06
3.39427e-07
3.03865e-07
1.98118e-06
2.04091e-06
-4.36773e-07
2.04948e-06
3.5494e-07
2.05983e-06
6.14435e-07
2.06318e-06
8.1037e-08
2.04702e-06
-5.98847e-07
2.05116e-06
-5.04213e-07
2.04336e-06
-3.99958e-07
2.01955e-06
-1.23475e-06
2.02048e-06
-1.58374e-07
1.99745e-06
-9.08097e-07
2.00299e-06
4.55099e-08
1.98971e-06
-2.26237e-07
2.01698e-06
4.7032e-07
2.01602e-06
3.05888e-07
2.03707e-06
5.33826e-07
2.03516e-06
4.12328e-07
2.04417e-06
4.25553e-07
2.04424e-06
3.74014e-07
2.04717e-06
3.36494e-07
3.02917e-07
2.04812e-06
2.11877e-06
-4.28699e-07
2.12778e-06
3.45928e-07
2.13807e-06
6.04143e-07
2.14168e-06
7.74219e-08
2.12425e-06
-5.81411e-07
2.12854e-06
-5.08502e-07
2.12155e-06
-3.92971e-07
2.09659e-06
-1.20979e-06
2.09899e-06
-1.6077e-07
2.07321e-06
-8.82318e-07
2.07995e-06
3.87693e-08
2.06278e-06
-2.09069e-07
2.0885e-06
4.44605e-07
2.08561e-06
3.08771e-07
2.10649e-06
5.1295e-07
2.10531e-06
4.13507e-07
2.11432e-06
4.16544e-07
2.11528e-06
3.73052e-07
2.11859e-06
3.33189e-07
3.01454e-07
2.12005e-06
2.19948e-06
-4.20597e-07
2.20883e-06
3.3658e-07
2.21898e-06
5.93992e-07
2.22309e-06
7.33137e-08
2.20472e-06
-5.63041e-07
2.20874e-06
-5.1252e-07
2.20238e-06
-3.86617e-07
2.17649e-06
-1.18389e-06
2.18035e-06
-1.64636e-07
2.15188e-06
-8.53841e-07
2.16002e-06
3.06217e-08
2.14003e-06
-1.89079e-07
2.16501e-06
4.19633e-07
2.16086e-06
3.12921e-07
2.18136e-06
4.92441e-07
2.18089e-06
4.13978e-07
2.18961e-06
4.0783e-07
2.19121e-06
3.71448e-07
2.1947e-06
3.297e-07
2.99649e-07
2.1965e-06
2.28318e-06
-4.12386e-07
2.29279e-06
3.26969e-07
2.30273e-06
5.84056e-07
2.3075e-06
6.8547e-08
2.28854e-06
-5.44084e-07
2.29191e-06
-5.15894e-07
2.28609e-06
-3.80791e-07
2.25926e-06
-1.15706e-06
2.26468e-06
-1.70056e-07
2.2336e-06
-8.2276e-07
2.24316e-06
2.10606e-08
2.22111e-06
-1.67028e-07
2.24573e-06
3.95011e-07
2.24085e-06
3.178e-07
2.26075e-06
4.72541e-07
2.261e-06
4.13729e-07
2.26931e-06
3.99516e-07
2.2714e-06
3.69367e-07
2.27498e-06
3.26117e-07
2.97573e-07
2.27706e-06
2.37e-06
-4.03999e-07
2.37984e-06
3.17131e-07
2.38948e-06
5.74407e-07
2.395e-06
6.30293e-08
2.37579e-06
-5.24874e-07
2.37824e-06
-5.18339e-07
2.37291e-06
-3.75462e-07
2.34497e-06
-1.12913e-06
2.35202e-06
-1.77101e-07
2.31853e-06
-7.8927e-07
2.3294e-06
1.01881e-08
2.30587e-06
-1.43503e-07
2.33021e-06
3.70676e-07
2.32505e-06
3.22961e-07
2.34408e-06
4.53506e-07
2.34501e-06
4.12806e-07
2.35313e-06
3.91397e-07
2.35551e-06
3.66987e-07
2.35913e-06
3.22488e-07
2.9521e-07
2.3615e-06
2.46006e-06
-3.95385e-07
2.47013e-06
3.07061e-07
2.47943e-06
5.65111e-07
2.48571e-06
5.67497e-08
2.46654e-06
-5.05705e-07
2.46786e-06
-5.19661e-07
2.46308e-06
-3.70674e-07
2.43376e-06
-1.09981e-06
2.44241e-06
-1.85757e-07
2.40681e-06
-7.5367e-07
2.41884e-06
-1.83918e-09
2.39438e-06
-1.19044e-07
2.41828e-06
3.46778e-07
2.41328e-06
3.2796e-07
2.43124e-06
4.35545e-07
2.43258e-06
4.11466e-07
2.44085e-06
3.83134e-07
2.44341e-06
3.6442e-07
2.44712e-06
3.1878e-07
2.92521e-07
2.44981e-06
2.55352e-06
-3.86506e-07
2.56386e-06
2.96717e-07
2.57277e-06
5.56207e-07
2.57974e-06
4.97779e-08
2.56086e-06
-4.86829e-07
2.56094e-06
-5.19732e-07
2.55681e-06
-3.66547e-07
2.52582e-06
-1.06882e-06
2.53594e-06
-1.9588e-07
2.49861e-06
-7.16342e-07
2.51156e-06
-1.47882e-08
2.48677e-06
-9.42486e-08
2.50994e-06
3.2361e-07
2.5056e-06
3.32295e-07
2.52238e-06
4.18765e-07
2.52369e-06
4.10153e-07
2.53151e-06
3.75322e-07
2.53483e-06
3.61101e-07
2.53906e-06
3.14549e-07
2.89564e-07
2.54201e-06
2.65051e-06
-3.77334e-07
2.66118e-06
2.86041e-07
2.66969e-06
5.47697e-07
2.67722e-06
4.22517e-08
2.65884e-06
-4.68449e-07
2.65756e-06
-5.18457e-07
2.65428e-06
-3.63265e-07
2.62141e-06
-1.03595e-06
2.63272e-06
-2.07189e-07
2.59413e-06
-6.77747e-07
2.60762e-06
-2.82776e-08
2.58322e-06
-6.98494e-08
2.60518e-06
3.01649e-07
2.60219e-06
3.3529e-07
2.61771e-06
4.03237e-07
2.61874e-06
4.09123e-07
2.62502e-06
3.69043e-07
2.62936e-06
3.56766e-07
2.63512e-06
3.0879e-07
2.86583e-07
2.6381e-06
2.75117e-06
-3.67846e-07
2.76223e-06
2.74974e-07
2.77039e-06
5.39539e-07
2.77829e-06
3.43556e-08
2.76056e-06
-4.50725e-07
2.75785e-06
-5.15746e-07
2.7556e-06
-3.6101e-07
2.72078e-06
-1.00114e-06
2.73289e-06
-2.19297e-07
2.69358e-06
-6.38435e-07
2.70704e-06
-4.17404e-08
2.68397e-06
-4.67834e-08
2.70393e-06
2.81689e-07
2.7034e-06
3.35826e-07
2.71725e-06
3.8938e-07
2.71935e-06
4.07027e-07
2.72414e-06
3.64252e-07
2.72678e-06
3.54131e-07
2.73544e-06
3.0013e-07
2.83986e-07
2.73803e-06
2.85564e-06
-3.58023e-07
2.86714e-06
2.63466e-07
2.87504e-06
5.31642e-07
2.88309e-06
2.63022e-08
2.86616e-06
-4.3379e-07
2.86189e-06
-5.11479e-07
2.8608e-06
-3.5992e-07
2.82412e-06
-9.64461e-07
2.8366e-06
-2.31769e-07
2.79716e-06
-5.98994e-07
2.80991e-06
-5.44905e-08
2.78927e-06
-2.6147e-08
2.80617e-06
2.64787e-07
2.80954e-06
3.32458e-07
2.82106e-06
3.77858e-07
2.83025e-06
3.97836e-07
2.83679e-06
3.57717e-07
2.8412e-06
3.49714e-07
2.84002e-06
3.01314e-07
2.82201e-07
2.84181e-06
2.96407e-06
-3.47844e-07
2.97604e-06
2.51488e-07
2.9838e-06
5.23888e-07
2.99178e-06
1.83189e-08
2.97578e-06
-4.17784e-07
2.96978e-06
-5.05482e-07
2.96997e-06
-3.60113e-07
2.93159e-06
-9.26075e-07
2.94411e-06
-2.44292e-07
2.90489e-06
-5.59776e-07
2.9166e-06
-6.62013e-08
2.89877e-06
-8.31468e-09
2.91262e-06
2.50934e-07
2.91905e-06
3.26028e-07
2.92953e-06
3.67381e-07
2.94106e-06
3.86304e-07
2.94715e-06
3.51628e-07
2.95312e-06
3.43739e-07
2.94824e-06
3.06196e-07
2.80768e-07
2.94968e-06
3.07661e-06
-3.37296e-07
3.08907e-06
2.3903e-07
3.09682e-06
5.16141e-07
3.10451e-06
1.06257e-08
3.08958e-06
-4.02856e-07
3.0817e-06
-4.97598e-07
3.08317e-06
-3.61585e-07
3.04334e-06
-8.86241e-07
3.05562e-06
-2.56579e-07
3.01684e-06
-5.20992e-07
3.02756e-06
-7.69216e-08
3.01167e-06
7.57242e-09
3.02447e-06
2.38135e-07
3.03125e-06
3.19253e-07
3.0427e-06
3.55933e-07
3.0549e-06
3.74098e-07
3.06023e-06
3.46297e-07
3.0612e-06
3.4277e-07
3.05974e-06
3.0766e-07
2.78724e-07
3.06178e-06
3.19344e-06
-3.26372e-07
3.20637e-06
2.26102e-07
3.21424e-06
5.08266e-07
3.22144e-06
3.42555e-09
3.20774e-06
-3.89157e-07
3.19788e-06
-4.87739e-07
3.20044e-06
-3.64147e-07
3.15962e-06
-8.4542e-07
3.17125e-06
-2.68203e-07
3.13328e-06
-4.83022e-07
3.1429e-06
-8.65474e-08
3.12834e-06
2.21309e-08
3.14107e-06
2.25407e-07
3.14737e-06
3.1295e-07
3.1591e-06
3.44209e-07
3.15745e-06
3.75748e-07
3.15895e-06
3.44794e-07
3.16454e-06
3.37182e-07
3.17484e-06
2.97354e-07
2.75207e-07
3.17836e-06
3.31472e-06
-3.15085e-07
3.32808e-06
2.12743e-07
3.33623e-06
5.00121e-07
3.34272e-06
-3.06105e-09
3.33039e-06
-3.76828e-07
3.31856e-06
-4.75916e-07
3.3219e-06
-3.67483e-07
3.28069e-06
-8.04204e-07
3.29105e-06
-2.78572e-07
3.25454e-06
-4.4651e-07
3.26258e-06
-9.45883e-08
3.24977e-06
3.49471e-08
3.26132e-06
2.1385e-07
3.26393e-06
3.1034e-07
3.2701e-06
3.38043e-07
3.27581e-06
3.70038e-07
3.28207e-06
3.38531e-07
3.28869e-06
3.30562e-07
3.2945e-06
2.91547e-07
2.70451e-07
3.29926e-06
3.44066e-06
-3.03459e-07
3.45439e-06
1.9901e-07
3.46296e-06
4.91555e-07
3.46847e-06
-8.58029e-09
3.45764e-06
-3.6599e-07
3.44396e-06
-4.62241e-07
3.44772e-06
-3.71244e-07
3.40665e-06
-7.63135e-07
3.41527e-06
-2.87182e-07
3.3808e-06
-4.12047e-07
3.38681e-06
-1.006e-07
3.37571e-06
4.60521e-08
3.3855e-06
2.04061e-07
3.3865e-06
3.09341e-07
3.39358e-06
3.30958e-07
3.40016e-06
3.63462e-07
3.40783e-06
3.30862e-07
3.4153e-06
3.23086e-07
3.41904e-06
2.87808e-07
2.64921e-07
3.42457e-06
3.57142e-06
-2.91533e-07
3.58546e-06
1.84966e-07
3.59459e-06
4.82429e-07
3.59888e-06
-1.28693e-08
3.58959e-06
-3.56706e-07
3.57432e-06
-4.46965e-07
3.57805e-06
-3.74975e-07
3.53774e-06
-7.2283e-07
3.54405e-06
-2.93485e-07
3.51212e-06
-3.80119e-07
3.51578e-06
-1.04264e-07
3.50562e-06
5.62124e-08
3.51227e-06
1.97412e-07
3.51542e-06
3.06195e-07
3.52214e-06
3.24234e-07
3.52964e-06
3.55957e-07
3.53569e-06
3.24818e-07
3.54112e-06
3.17658e-07
3.54863e-06
2.80299e-07
2.59096e-07
3.55445e-06
3.7072e-06
-2.79348e-07
3.72148e-06
1.70687e-07
3.73131e-06
4.72599e-07
3.73409e-06
-1.56481e-08
3.72636e-06
-3.48981e-07
3.70985e-06
-4.30453e-07
3.71299e-06
-3.78116e-07
3.67423e-06
-6.84065e-07
3.6775e-06
-2.96761e-07
3.64853e-06
-3.51146e-07
3.64932e-06
-1.05056e-07
3.63983e-06
6.5701e-08
3.64298e-06
1.94264e-07
3.64917e-06
3.00007e-07
3.65575e-06
3.17654e-07
3.6642e-06
3.4751e-07
3.67035e-06
3.18664e-07
3.67695e-06
3.11053e-07
3.68338e-06
2.73873e-07
2.53358e-07
3.68912e-06
3.8482e-06
-2.66958e-07
3.86262e-06
1.56262e-07
3.87331e-06
4.61911e-07
3.87429e-06
-1.66312e-08
3.8681e-06
-3.42789e-07
3.85073e-06
-4.13085e-07
3.85281e-06
-3.80193e-07
3.81616e-06
-6.47417e-07
3.81608e-06
-2.96681e-07
3.78979e-06
-3.24852e-07
3.78788e-06
-1.03142e-07
3.77956e-06
7.40199e-08
3.7815e-06
1.92322e-07
3.78836e-06
2.93149e-07
3.79476e-06
3.1125e-07
3.80365e-06
3.38623e-07
3.81039e-06
3.11917e-07
3.82071e-06
3.00741e-07
3.82339e-06
2.71188e-07
2.47736e-07
3.82901e-06
3.99461e-06
-2.54411e-07
4.00909e-06
1.41784e-07
4.02076e-06
4.50233e-07
4.01984e-06
-1.57093e-08
4.01497e-06
-3.37915e-07
3.99717e-06
-3.95286e-07
3.9977e-06
-3.80722e-07
3.96356e-06
-6.13276e-07
3.9603e-06
-2.93424e-07
3.93582e-06
-3.00375e-07
3.93213e-06
-9.94521e-08
3.9248e-06
8.13578e-08
3.92608e-06
1.91041e-07
3.93296e-06
2.86261e-07
3.93947e-06
3.04742e-07
3.9484e-06
3.29699e-07
3.95412e-06
3.0619e-07
3.9599e-06
2.94969e-07
3.96863e-06
2.62453e-07
2.41992e-07
3.97437e-06
4.14663e-06
-2.41758e-07
4.16107e-06
1.27342e-07
4.17383e-06
4.37473e-07
4.17106e-06
-1.29417e-08
4.1671e-06
-3.33955e-07
4.14942e-06
-3.776e-07
4.14772e-06
-3.79019e-07
4.11646e-06
-5.82021e-07
4.11035e-06
-2.87311e-07
4.08708e-06
-2.77104e-07
4.08188e-06
-9.42515e-08
4.07585e-06
8.73817e-08
4.07638e-06
1.90512e-07
4.08333e-06
2.79306e-07
4.08978e-06
2.98297e-07
4.09884e-06
3.20637e-07
4.10565e-06
2.99384e-07
4.11339e-06
2.87228e-07
4.11949e-06
2.56349e-07
2.36218e-07
4.12527e-06
4.30448e-06
-2.29055e-07
4.31878e-06
1.13046e-07
4.33271e-06
4.23542e-07
4.32819e-06
-8.41847e-09
4.32475e-06
-3.30517e-07
4.30763e-06
-3.60479e-07
4.30312e-06
-3.74508e-07
4.2748e-06
-5.53701e-07
4.26652e-06
-2.79028e-07
4.24379e-06
-2.54375e-07
4.23739e-06
-8.78572e-08
4.23263e-06
9.21445e-08
4.23269e-06
1.90449e-07
4.23965e-06
2.72348e-07
4.24605e-06
2.91901e-07
4.25528e-06
3.11405e-07
4.2629e-06
2.91761e-07
4.27236e-06
2.77768e-07
4.27617e-06
2.52537e-07
2.30491e-07
4.2819e-06
4.46839e-06
-2.16358e-07
4.48243e-06
9.90078e-08
4.49759e-06
4.0838e-07
4.49146e-06
-2.28959e-09
4.48813e-06
-3.27187e-07
4.47197e-06
-3.44321e-07
4.46462e-06
-3.67156e-07
4.43854e-06
-5.27618e-07
4.42903e-06
-2.69524e-07
4.40622e-06
-2.31567e-07
4.39924e-06
-8.08697e-08
4.39526e-06
9.61186e-08
4.39533e-06
1.90384e-07
4.40207e-06
2.65601e-07
4.40859e-06
2.85382e-07
4.41777e-06
3.02225e-07
4.42445e-06
2.85083e-07
4.43032e-06
2.71898e-07
4.43877e-06
2.44091e-07
2.24658e-07
4.4446e-06
4.63857e-06
-2.03722e-07
4.65225e-06
8.53266e-08
4.66863e-06
3.92006e-07
4.66117e-06
5.16775e-09
4.65742e-06
-3.23441e-07
4.64269e-06
-3.29586e-07
4.63265e-06
-3.57115e-07
4.60802e-06
-5.02989e-07
4.59782e-06
-2.59324e-07
4.57511e-06
-2.08854e-07
4.5673e-06
-7.30601e-08
4.56421e-06
9.9204e-08
4.56438e-06
1.90212e-07
4.5709e-06
2.59087e-07
4.57746e-06
2.78822e-07
4.58636e-06
2.93319e-07
4.59346e-06
2.77989e-07
4.60067e-06
2.64683e-07
4.60761e-06
2.37155e-07
2.18672e-07
4.61359e-06
4.81528e-06
-1.9121e-07
4.82848e-06
7.21186e-08
4.84604e-06
3.74453e-07
4.83756e-06
1.36492e-08
4.83289e-06
-3.18773e-07
4.81993e-06
-3.16629e-07
4.80759e-06
-3.44773e-07
4.78353e-06
-4.78934e-07
4.77293e-06
-2.48719e-07
4.75067e-06
-1.86591e-07
4.74188e-06
-6.42707e-08
4.73977e-06
1.01314e-07
4.73998e-06
1.89996e-07
4.74635e-06
2.52722e-07
4.75289e-06
2.7228e-07
4.76153e-06
2.84674e-07
4.76953e-06
2.69992e-07
4.77864e-06
2.55573e-07
4.78294e-06
2.32856e-07
2.12592e-07
4.78902e-06
4.99875e-06
-1.78889e-07
5.01137e-06
5.94954e-08
5.03003e-06
3.55796e-07
5.02085e-06
2.2826e-08
5.0148e-06
-3.12719e-07
5.00376e-06
-3.05592e-07
4.9897e-06
-3.3071e-07
4.96529e-06
-4.5453e-07
4.95456e-06
-2.37986e-07
4.93297e-06
-1.65003e-07
4.92343e-06
-5.47278e-08
4.92204e-06
1.02703e-07
4.92246e-06
1.89577e-07
4.92858e-06
2.46601e-07
4.93525e-06
2.65608e-07
4.9436e-06
2.76322e-07
4.95109e-06
2.62507e-07
4.95677e-06
2.49895e-07
4.965e-06
2.24618e-07
2.0647e-07
4.97113e-06
5.18924e-06
-1.66817e-07
5.20118e-06
4.75547e-08
5.22081e-06
3.36164e-07
5.21135e-06
3.22883e-08
5.20339e-06
-3.04755e-07
5.19424e-06
-2.96449e-07
5.17904e-06
-3.15502e-07
5.15381e-06
-4.29299e-07
5.14293e-06
-2.2711e-07
5.12229e-06
-1.44359e-07
5.1122e-06
-4.46408e-08
5.11129e-06
1.03615e-07
5.11207e-06
1.88793e-07
5.11791e-06
2.40757e-07
5.12475e-06
2.5877e-07
5.13267e-06
2.68407e-07
5.14056e-06
2.54617e-07
5.14918e-06
2.41269e-07
5.15415e-06
2.19655e-07
2.00393e-07
5.16022e-06
5.38703e-06
-1.55065e-07
5.39818e-06
3.64041e-08
5.41865e-06
3.1569e-07
5.40929e-06
4.16452e-08
5.39914e-06
-2.94597e-07
5.39137e-06
-2.88686e-07
5.37569e-06
-2.99818e-07
5.34957e-06
-4.0318e-07
5.33842e-06
-2.1596e-07
5.31896e-06
-1.24898e-07
5.30839e-06
-3.40681e-08
5.30783e-06
1.04176e-07
5.3091e-06
1.87517e-07
5.31459e-06
2.35272e-07
5.32154e-06
2.51816e-07
5.32921e-06
2.60737e-07
5.33657e-06
2.4726e-07
5.34296e-06
2.34881e-07
5.35053e-06
2.12077e-07
1.94383e-07
5.35654e-06
5.59237e-06
-1.43695e-07
5.60264e-06
2.61322e-08
5.6238e-06
2.94526e-07
5.615e-06
5.04491e-08
5.60255e-06
-2.82148e-07
5.59528e-06
-2.81418e-07
5.57974e-06
-2.8428e-07
5.55304e-06
-3.76475e-07
5.54144e-06
-2.04362e-07
5.52328e-06
-1.06739e-07
5.51232e-06
-2.31044e-08
5.51198e-06
1.04513e-07
5.51374e-06
1.85759e-07
5.51887e-06
2.30139e-07
5.52589e-06
2.44794e-07
5.53342e-06
2.53209e-07
5.54074e-06
2.39947e-07
5.5482e-06
2.27414e-07
5.55446e-06
2.05817e-07
1.88361e-07
5.56048e-06
5.80555e-06
-1.32769e-07
5.81485e-06
1.68332e-08
5.83656e-06
2.72822e-07
5.82883e-06
5.81776e-08
5.8141e-06
-2.67414e-07
5.80634e-06
-2.73658e-07
5.79135e-06
-2.69298e-07
5.7645e-06
-3.49625e-07
5.75242e-06
-1.92283e-07
5.73556e-06
-8.98759e-08
5.72432e-06
-1.18607e-08
5.72394e-06
1.04886e-07
5.72628e-06
1.83429e-07
5.73111e-06
2.253e-07
5.7381e-06
2.37812e-07
5.74558e-06
2.45725e-07
5.75289e-06
2.32635e-07
5.76079e-06
2.19517e-07
5.76623e-06
2.00377e-07
1.82315e-07
5.77227e-06
6.02688e-06
-1.22353e-07
6.03509e-06
8.6218e-09
6.05723e-06
2.50682e-07
6.05099e-06
6.44234e-08
6.03414e-06
-2.50568e-07
6.02524e-06
-2.64752e-07
6.01085e-06
-2.54909e-07
5.98427e-06
-3.23048e-07
5.97168e-06
-1.79689e-07
5.95602e-06
-7.42219e-08
5.9447e-06
-5.39681e-10
5.94406e-06
1.05524e-07
5.94705e-06
1.8044e-07
5.95162e-06
2.20729e-07
5.95845e-06
2.30982e-07
5.96596e-06
2.38214e-07
5.97269e-06
2.25912e-07
5.9791e-06
2.13101e-07
5.98611e-06
1.93366e-07
1.76271e-07
5.99216e-06
6.25665e-06
-1.12502e-07
6.26366e-06
1.6085e-09
6.28613e-06
2.28216e-07
6.28158e-06
6.89708e-08
6.26293e-06
-2.31917e-07
6.25275e-06
-2.54571e-07
6.23862e-06
-2.40775e-07
6.21259e-06
-2.97016e-07
6.19945e-06
-1.66552e-07
6.18498e-06
-5.97515e-08
6.17385e-06
1.05886e-08
6.17275e-06
1.06627e-07
6.17624e-06
1.76947e-07
6.1807e-06
2.16267e-07
6.18726e-06
2.24423e-07
6.1948e-06
2.30679e-07
6.20156e-06
2.19149e-07
6.20905e-06
2.05606e-07
6.21448e-06
1.87944e-07
1.7022e-07
6.22053e-06
6.49518e-06
-1.03276e-07
6.50085e-06
-4.06263e-09
6.52357e-06
2.05494e-07
6.52075e-06
7.17911e-08
6.50081e-06
-2.11979e-07
6.4893e-06
-2.43055e-07
6.47514e-06
-2.2662e-07
6.44974e-06
-2.71617e-07
6.43612e-06
-1.52937e-07
6.42275e-06
-4.63758e-08
6.41202e-06
2.13209e-08
6.41029e-06
1.0835e-07
6.41413e-06
1.73106e-07
6.41871e-06
2.11695e-07
6.42491e-06
2.18221e-07
6.43244e-06
2.23143e-07
6.43887e-06
2.12719e-07
6.44535e-06
1.99133e-07
6.45162e-06
1.81668e-07
1.64229e-07
6.45761e-06
6.74279e-06
-9.47251e-08
6.74696e-06
-8.23924e-09
6.76989e-06
1.82569e-07
6.76881e-06
7.28719e-08
6.7482e-06
-1.91364e-07
6.73523e-06
-2.30085e-07
6.72088e-06
-2.12272e-07
6.69605e-06
-2.46792e-07
6.68201e-06
-1.38896e-07
6.66957e-06
-3.39292e-08
6.65949e-06
3.13961e-08
6.65718e-06
1.1066e-07
6.66109e-06
1.69202e-07
6.66596e-06
2.06824e-07
6.67176e-06
2.12417e-07
6.67923e-06
2.15672e-07
6.68567e-06
2.0628e-07
6.69264e-06
1.92168e-07
6.69787e-06
1.76438e-07
1.58357e-07
6.70374e-06
6.99982e-06
-8.68998e-08
7.00233e-06
-1.07417e-08
7.02544e-06
1.59456e-07
7.02603e-06
7.22802e-08
7.00546e-06
-1.70795e-07
6.99088e-06
-2.15505e-07
6.97615e-06
-1.97545e-07
6.95184e-06
-2.2248e-07
6.9375e-06
-1.24554e-07
6.92583e-06
-2.22543e-08
6.91654e-06
4.06867e-08
6.91381e-06
1.13383e-07
6.91746e-06
1.65551e-07
6.92271e-06
2.01575e-07
6.92814e-06
2.06992e-07
6.93547e-06
2.08339e-07
6.94161e-06
2.00136e-07
6.94806e-06
1.85722e-07
6.95369e-06
1.70803e-07
1.52728e-07
6.95932e-06
7.26663e-06
-7.98358e-08
7.26735e-06
-1.14687e-08
7.29057e-06
1.36238e-07
7.29274e-06
7.01144e-08
7.27252e-06
-1.50582e-07
7.25653e-06
-1.99516e-07
7.24133e-06
-1.82342e-07
7.2175e-06
-1.98649e-07
7.20297e-06
-1.10021e-07
7.19189e-06
-1.11729e-08
7.18342e-06
4.91532e-08
7.18055e-06
1.16251e-07
7.1837e-06
1.62398e-07
7.18925e-06
1.96025e-07
7.19441e-06
2.01839e-07
7.20161e-06
2.0113e-07
7.20763e-06
1.9412e-07
7.21408e-06
1.79274e-07
7.21939e-06
1.65496e-07
1.47411e-07
7.2247e-06
7.54355e-06
-7.35512e-08
7.54253e-06
-1.04566e-08
7.56565e-06
1.13125e-07
7.56926e-06
6.64982e-08
7.54962e-06
-1.30943e-07
7.53248e-06
-1.82376e-07
7.51675e-06
-1.66606e-07
7.49342e-06
-1.75319e-07
7.47877e-06
-9.53673e-08
7.46817e-06
-5.75973e-10
7.46046e-06
5.68609e-08
7.45774e-06
1.18973e-07
7.46023e-06
1.59902e-07
7.46598e-06
1.90282e-07
7.47098e-06
1.96836e-07
7.47801e-06
1.94105e-07
7.48394e-06
1.88188e-07
7.49012e-06
1.73097e-07
7.49532e-06
1.60289e-07
1.42443e-07
7.50029e-06
7.83095e-06
-6.80458e-08
7.82838e-06
-7.88214e-09
7.85104e-06
9.04616e-08
7.85595e-06
6.15835e-08
7.83715e-06
-1.12143e-07
7.81891e-06
-1.64132e-07
7.80274e-06
-1.50435e-07
7.78001e-06
-1.52591e-07
7.76527e-06
-8.06287e-08
7.75512e-06
9.57902e-09
7.74802e-06
6.39533e-08
7.74566e-06
1.21333e-07
7.74753e-06
1.58038e-07
7.75331e-06
1.84497e-07
7.75819e-06
1.9196e-07
7.76497e-06
1.87326e-07
7.77079e-06
1.8236e-07
7.77655e-06
1.6734e-07
7.78189e-06
1.54952e-07
1.37834e-07
7.7865e-06
8.1292e-06
-6.32872e-08
8.12539e-06
-4.07082e-09
8.14702e-06
6.88275e-08
8.1531e-06
5.55042e-08
8.13533e-06
-9.43709e-08
8.11608e-06
-1.4488e-07
8.09964e-06
-1.33993e-07
8.07763e-06
-1.30584e-07
8.06291e-06
-6.59096e-08
8.05315e-06
1.93451e-08
8.04652e-06
7.0585e-08
8.04467e-06
1.23182e-07
8.04602e-06
1.56687e-07
8.05165e-06
1.7886e-07
8.05643e-06
1.87179e-07
8.0629e-06
1.8086e-07
8.0688e-06
1.76461e-07
8.07432e-06
1.61819e-07
8.07946e-06
1.49811e-07
1.33504e-07
8.08379e-06
8.43869e-06
-5.92175e-08
8.43401e-06
6.06807e-10
8.45376e-06
4.90816e-08
8.4609e-06
4.83651e-08
8.44398e-06
-7.74546e-08
8.42415e-06
-1.25046e-07
8.40783e-06
-1.17677e-07
8.38668e-06
-1.09431e-07
8.3721e-06
-5.13354e-08
8.36273e-06
2.8717e-08
8.35638e-06
7.69335e-08
8.3551e-06
1.24465e-07
8.35609e-06
1.55698e-07
8.36142e-06
1.73532e-07
8.3662e-06
1.824e-07
8.37224e-06
1.74815e-07
8.37815e-06
1.70553e-07
8.38338e-06
1.56595e-07
8.38848e-06
1.44707e-07
1.29396e-07
8.39259e-06
8.75982e-06
-5.57548e-08
8.75459e-06
5.83736e-09
8.77156e-06
3.21122e-08
8.77939e-06
4.05402e-08