/*--------------------------------*- C++ -*----------------------------------*\
| =========                 |                                                 |
| \\      /  F ield         | OpenFOAM: The Open Source CFD Toolbox           |
|  \\    /   O peration     | Version:  v2012                                 |
|   \\  /    A nd           | Website:  www.openfoam.com                      |
|    \\/     M anipulation  |                                                 |
\*---------------------------------------------------------------------------*/
FoamFile
{
    version     2.0;
    format      ascii;
    class       volVectorField;
    location    "1.2";
    object      U;
}
// * * * * * * * * * * * * * * * * * * * * * * * * * * * * * * * * * * * * * //

dimensions      [0 1 -1 0 0 0 0];


internalField   nonuniform List<vector> 
7000
(
(0.987783 -0.00432056 0)
(1.02085 0.00368438 0)
(0.985609 0.0071368 0)
(0.997174 0.000759671 0)
(0.932417 -0.00972268 0)
(0.976173 -0.00797981 0)
(1.02198 -0.0111658 0)
(0.98763 -0.0276021 0)
(0.976711 0.00662645 0)
(1.08115 -0.0234356 0)
(0.912963 0.0145808 0)
(1.19387 -0.00144582 0)
(0.857206 0.0303517 0)
(1.24085 0.0141864 0)
(0.824392 0.0262733 0)
(1.23243 0.0217227 0)
(0.842054 0.0218824 0)
(1.19991 0.0251445 0)
(0.875812 0.0199344 0)
(1.16495 0.0253657 0)
(0.990001 -0.00435882 0)
(1.01914 0.00368778 0)
(0.987885 0.00721252 0)
(0.995057 0.00113487 0)
(0.940443 -0.00957036 0)
(0.973671 -0.00866308 0)
(1.01811 -0.0112788 0)
(0.984177 -0.0270794 0)
(0.978847 0.00558982 0)
(1.07435 -0.0224002 0)
(0.917092 0.0132299 0)
(1.1836 -1.55499e-05 0)
(0.864356 0.029788 0)
(1.22104 0.015124 0)
(0.843267 0.0263806 0)
(1.1959 0.021537 0)
(0.885496 0.0226314 0)
(1.13883 0.0239153 0)
(0.950377 0.0215035 0)
(1.07471 0.0234917 0)
(0.993912 -0.00440418 0)
(1.01532 0.00370643 0)
(0.992208 0.00734488 0)
(0.992514 0.00142127 0)
(0.95158 -0.0094651 0)
(0.970571 -0.00922961 0)
(1.01226 -0.0113345 0)
(0.980103 -0.0267409 0)
(0.983192 0.004439 0)
(1.06311 -0.0215099 0)
(0.931177 0.0113324 0)
(1.16016 0.00104779 0)
(0.891132 0.0286497 0)
(1.17699 0.0160623 0)
(0.893155 0.0264411 0)
(1.13048 0.0208868 0)
(0.950908 0.0238226 0)
(1.06804 0.0222515 0)
(1.00477 0.0231418 0)
(1.02645 0.0220946 0)
(0.998852 -0.0044442 0)
(1.00967 0.00372532 0)
(0.99738 0.00746523 0)
(0.990765 0.00164434 0)
(0.963669 -0.00933848 0)
(0.968537 -0.00961914 0)
(1.00498 -0.0113905 0)
(0.976167 -0.0265195 0)
(0.988407 0.00348615 0)
(1.04902 -0.0208686 0)
(0.954905 0.00978025 0)
(1.12735 0.00178185 0)
(0.93521 0.0280067 0)
(1.1238 0.0162457 0)
(0.95288 0.0270287 0)
(1.07265 0.0198307 0)
(1.00008 0.0250479 0)
(1.0305 0.0211346 0)
(1.0264 0.0240308 0)
(1.01618 0.0217803 0)
(1.00404 -0.00447618 0)
(1.00297 0.00373335 0)
(1.00218 0.00755631 0)
(0.990288 0.00182486 0)
(0.97563 -0.00918586 0)
(0.968582 -0.00987126 0)
(0.996985 -0.0114387 0)
(0.972667 -0.0264095 0)
(0.992317 0.00267929 0)
(1.03543 -0.0205415 0)
(0.980917 0.0087331 0)
(1.09473 0.00199745 0)
(0.981795 0.0280697 0)
(1.0823 0.0159108 0)
(1.00014 0.0280324 0)
(1.04418 0.0189212 0)
(1.02625 0.0259854 0)
(1.02479 0.0206655 0)
(1.03403 0.0243446 0)
(1.02264 0.0219279 0)
(1.00876 -0.00449791 0)
(0.996077 0.00373492 0)
(1.00592 0.00761664 0)
(0.990944 0.00196227 0)
(0.987011 -0.00902439 0)
(0.970893 -0.00997775 0)
(0.989464 -0.0114548 0)
(0.969244 -0.0263956 0)
(0.993594 0.0019486 0)
(1.02495 -0.0204896 0)
(1.0012 0.00800642 0)
(1.06978 0.00180479 0)
(1.01794 0.0284138 0)
(1.06053 0.0155428 0)
(1.02858 0.0289076 0)
(1.03941 0.018413 0)
(1.03811 0.0265084 0)
(1.03245 0.0204976 0)
(1.03856 0.0244287 0)
(1.03253 0.0220859 0)
(1.01253 -0.0045064 0)
(0.98964 0.00373671 0)
(1.00856 0.0076402 0)
(0.992156 0.00204707 0)
(0.99765 -0.00886553 0)
(0.975004 -0.00993596 0)
(0.983584 -0.0114121 0)
(0.965428 -0.0264525 0)
(0.99238 0.00124864 0)
(1.018 -0.0206489 0)
(1.0126 0.0074435 0)
(1.05388 0.00133355 0)
(1.03958 0.0286775 0)
(1.05338 0.0153121 0)
(1.04233 0.0294071 0)
(1.04387 0.0181993 0)
(1.04325 0.0267193 0)
(1.04086 0.0204415 0)
(1.04217 0.0244493 0)
(1.04017 0.0222064 0)
(1.01519 -0.00449885 0)
(0.984042 0.0037396 0)
(1.01038 0.00762377 0)
(0.993229 0.00207542 0)
(1.00727 -0.00871999 0)
(0.980215 -0.00975984 0)
(0.980015 -0.011286 0)
(0.961298 -0.0265425 0)
(0.989552 0.000540827 0)
(1.01327 -0.0209476 0)
(1.01661 0.00697219 0)
(1.04433 0.000674264 0)
(1.04927 0.0287621 0)
(1.05252 0.0151714 0)
(1.04751 0.0296575 0)
(1.04851 0.018133 0)
(1.04526 0.0268145 0)
(1.04598 0.0204663 0)
(1.04454 0.0244632 0)
(1.04448 0.0223348 0)
(1.01676 -0.00447363 0)
(0.979491 0.00374091 0)
(1.0117 0.00757182 0)
(0.993678 0.00204702 0)
(1.01531 -0.00860033 0)
(0.985872 -0.00947407 0)
(0.978855 -0.0110594 0)
(0.957567 -0.026624 0)
(0.985902 -0.000195704 0)
(1.00907 -0.0213274 0)
(1.01635 0.00654136 0)
(1.03786 -9.73148e-05 0)
(1.05146 0.0286847 0)
(1.05268 0.0150695 0)
(1.04858 0.029829 0)
(1.05085 0.0181384 0)
(1.04574 0.0269004 0)
(1.04818 0.0205515 0)
(1.04575 0.0244736 0)
(1.04643 0.0224673 0)
(1.01739 -0.00443059 0)
(0.976128 0.00373772 0)
(1.01262 0.00749357 0)
(0.993415 0.00196875 0)
(1.02109 -0.00851831 0)
(0.991389 -0.00911095 0)
(0.979861 -0.0107295 0)
(0.95516 -0.02666 0)
(0.981999 -0.000952921 0)
(1.00425 -0.0217581 0)
(1.0141 0.00610786 0)
(1.03238 -0.00092195 0)
(1.04981 0.0284696 0)
(1.05205 0.014982 0)
(1.04805 0.0299631 0)
(1.05138 0.0181845 0)
(1.04565 0.0269714 0)
(1.04886 0.020665 0)
(1.04633 0.0244559 0)
(1.04727 0.022582 0)
(1.01723 -0.00437126 0)
(0.974079 0.00372812 0)
(1.01307 0.00739955 0)
(0.992724 0.00185456 0)
(1.02416 -0.008481 0)
(0.996188 -0.00870904 0)
(0.982628 -0.0103098 0)
(0.954738 -0.0266221 0)
(0.978493 -0.00169527 0)
(0.998354 -0.0222231 0)
(1.01087 0.0056448 0)
(1.02691 -0.00176597 0)
(1.04641 0.0281294 0)
(1.0506 0.01488 0)
(1.04718 0.0300317 0)
(1.05114 0.0182649 0)
(1.0456 0.026984 0)
(1.04908 0.0207931 0)
(1.04676 0.0244012 0)
(1.04774 0.0226772 0)
(1.01636 -0.0042987 0)
(0.973419 0.00371158 0)
(1.01295 0.00729943 0)
(0.992115 0.00171984 0)
(1.02454 -0.00848709 0)
(0.999755 -0.0083099 0)
(0.986615 -0.00982764 0)
(0.956451 -0.0264953 0)
(0.97623 -0.00237086 0)
(0.991481 -0.0226972 0)
(1.00693 0.00513591 0)
(1.021 -0.00261682 0)
(1.04227 0.0276557 0)
(1.04871 0.0147331 0)
(1.04652 0.030011 0)
(1.0508 0.018379 0)
(1.04592 0.026915 0)
(1.04927 0.0209458 0)
(1.04722 0.0243203 0)
(1.04804 0.0227661 0)
(1.01486 -0.004217 0)
(0.974116 0.0036889 0)
(1.01224 0.00719937 0)
(0.992101 0.00158223 0)
(1.02275 -0.00852457 0)
(1.00179 -0.00795142 0)
(0.991141 -0.00931866 0)
(0.959944 -0.0262833 0)
(0.975941 -0.00292718 0)
(0.984168 -0.0231371 0)
(1.00244 0.00457594 0)
(1.0143 -0.0034768 0)
(1.03777 0.0270223 0)
(1.0465 0.0145207 0)
(1.04618 0.0298799 0)
(1.05049 0.0185241 0)
(1.04655 0.0267739 0)
(1.04937 0.0211414 0)
(1.04752 0.024232 0)
(1.04795 0.0228667 0)
(1.01283 -0.00413045 0)
(0.975994 0.00366132 0)
(1.01103 0.00710185 0)
(0.993002 0.00145444 0)
(1.01964 -0.00857318 0)
(1.00235 -0.00766012 0)
(0.995481 -0.00881999 0)
(0.964551 -0.0260089 0)
(0.977742 -0.00332554 0)
(0.977309 -0.0234883 0)
(0.9978 0.00397745 0)
(1.00662 -0.00434555 0)
(1.03294 0.0261963 0)
(1.04368 0.0142299 0)
(1.04573 0.029619 0)
(1.04981 0.0186944 0)
(1.04691 0.0265805 0)
(1.04886 0.0213934 0)
(1.04713 0.0241643 0)
(1.04697 0.0230029 0)
(1.0104 -0.00404284 0)
(0.978747 0.00362924 0)
(1.00952 0.00700714 0)
(0.994837 0.0013437 0)
(1.01605 -0.00861057 0)
(1.00179 -0.00744673 0)
(0.999049 -0.00836221 0)
(0.969558 -0.0257042 0)
(0.980919 -0.00355248 0)
(0.971965 -0.023705 0)
(0.993459 0.00337056 0)
(0.998126 -0.00519538 0)
(1.02748 0.0251622 0)
(1.03954 0.0138545 0)
(1.04422 0.0292201 0)
(1.04784 0.0188888 0)
(1.04601 0.0263509 0)
(1.04692 0.0216983 0)
(1.04528 0.0241391 0)
(1.04445 0.0231946 0)
(1.0078 -0.00395703 0)
(0.981989 0.00359242 0)
(1.00793 0.00691342 0)
(0.997348 0.00125264 0)
(1.01262 -0.00861895 0)
(1.00068 -0.00730771 0)
(1.00155 -0.00796393 0)
(0.974405 -0.0253948 0)
(0.984238 -0.00362519 0)
(0.968994 -0.0237674 0)
(0.989687 0.00280858 0)
(0.989551 -0.0060044 0)
(1.0209 0.0239326 0)
(1.03337 0.0134098 0)
(1.04048 0.0286828 0)
(1.04359 0.0191086 0)
(1.04278 0.026102 0)
(1.04275 0.0220449 0)
(1.04127 0.0241579 0)
(1.03991 0.0234381 0)
(1.00524 -0.00387482 0)
(0.985328 0.00355027 0)
(1.00645 0.00681799 0)
(1.00013 0.0011788 0)
(1.00971 -0.00858752 0)
(0.999501 -0.00723127 0)
(1.00303 -0.00763091 0)
(0.978748 -0.0250881 0)
(0.986592 -0.00359006 0)
(0.968642 -0.0236821 0)
(0.986451 0.00234079 0)
(0.981978 -0.00671094 0)
(1.01295 0.022566 0)
(1.02498 0.0129395 0)
(1.03374 0.0280165 0)
(1.03654 0.0193468 0)
(1.03664 0.0258398 0)
(1.03609 0.0224186 0)
(1.03492 0.0242086 0)
(1.03339 0.0237059 0)
(1.00295 -0.00379691 0)
(0.988434 0.0035017 0)
(1.0052 0.00671983 0)
(1.0028 0.00111835 0)
(1.0074 -0.00851264 0)
(0.998557 -0.00720316 0)
(1.00373 -0.00735901 0)
(0.98242 -0.0247761 0)
(0.987516 -0.00350169 0)
(0.970414 -0.0234762 0)
(0.983584 0.00198905 0)
(0.976353 -0.00722386 0)
(1.00395 0.0211603 0)
(1.01501 0.012501 0)
(1.02431 0.0272443 0)
(1.02713 0.0195863 0)
(1.02803 0.0255463 0)
(1.0275 0.0227845 0)
(1.0268 0.0242666 0)
(1.02553 0.0239603 0)
(1.00105 -0.00372323 0)
(0.991087 0.0034461 0)
(1.00422 0.00661877 0)
(1.00508 0.00106851 0)
(1.00566 -0.00839774 0)
(0.997915 -0.00721001 0)
(1.00399 -0.00713738 0)
(0.985369 -0.0244455 0)
(0.98725 -0.00340673 0)
(0.97333 -0.02318 0)
(0.981006 0.00174827 0)
(0.973027 -0.00750923 0)
(0.994874 0.0198073 0)
(1.00476 0.0121509 0)
(1.01354 0.0263953 0)
(1.01671 0.019807 0)
(1.01827 0.0251972 0)
(1.01824 0.0230896 0)
(1.0181 0.0242892 0)
(1.01743 0.0241578 0)
(0.999607 -0.00365316 0)
(0.993191 0.00338345 0)
(1.00348 0.00651528 0)
(1.00684 0.00102584 0)
(1.00441 -0.00824898 0)
(0.997501 -0.00724131 0)
(1.00402 -0.00695319 0)
(0.98762 -0.0240853 0)
(0.986413 -0.00333576 0)
(0.976396 -0.0228124 0)
(0.978806 0.00158485 0)
(0.971664 -0.00756109 0)
(0.986924 0.0185727 0)
(0.995658 0.0119202 0)
(1.00328 0.0254994 0)
(1.00691 0.0199996 0)
(1.00901 0.0247866 0)
(1.00971 0.0232889 0)
(1.01009 0.0242339 0)
(1.01017 0.0242673 0)
(0.99861 -0.0035858 0)
(0.99475 0.00331416 0)
(1.00295 0.00641028 0)
(1.00806 0.000987095 0)
(1.00355 -0.00807202 0)
(0.997209 -0.00728952 0)
(1.00394 -0.00679713 0)
(0.989252 -0.02369 0)
(0.98559 -0.00330124 0)
(0.978975 -0.0223784 0)
(0.977135 0.00145329 0)
(0.971544 -0.00739647 0)
(0.980939 0.0174767 0)
(0.988639 0.0118095 0)
(0.994972 0.0245814 0)
(0.999015 0.0201586 0)
(1.00147 0.0243291 0)
(1.00292 0.0233797 0)
(1.00364 0.0240968 0)
(1.00443 0.0242884 0)
(0.998002 -0.00352024 0)
(0.995828 0.00323923 0)
(1.00255 0.00630444 0)
(1.00881 0.00094972 0)
(1.00303 -0.00787216 0)
(0.996978 -0.00734883 0)
(1.00376 -0.00666149 0)
(0.990383 -0.0232612 0)
(0.985089 -0.00330504 0)
(0.980865 -0.0218764 0)
(0.976061 0.00131266 0)
(0.971966 -0.00705428 0)
(0.977089 0.0164942 0)
(0.983881 0.0118106 0)
(0.989146 0.0236539 0)
(0.993453 0.0202675 0)
(0.996086 0.0238466 0)
(0.998125 0.023397 0)
(0.998987 0.0239069 0)
(1.00031 0.0242414 0)
(0.99771 -0.00345563 0)
(0.996512 0.0031598 0)
(1.00224 0.00619877 0)
(1.00917 0.000910379 0)
(1.00279 -0.00765284 0)
(0.996802 -0.0074145 0)
(1.00348 -0.00653923 0)
(0.991141 -0.0228091 0)
(0.984938 -0.00333946 0)
(0.982157 -0.0213028 0)
(0.975521 0.00114453 0)
(0.972493 -0.00658939 0)
(0.974985 0.0155827 0)
(0.980996 0.0119042 0)
(0.98551 0.0227322 0)
(0.989944 0.0203199 0)
(0.992598 0.0233532 0)
(0.99504 0.0233668 0)
(0.995875 0.0236773 0)
(0.997546 0.0241432 0)
(0.99765 -0.00339112 0)
(0.996897 0.0030768 0)
(1.002 0.00609444 0)
(1.00922 0.000865771 0)
(1.00275 -0.00741811 0)
(0.996705 -0.00748005 0)
(1.00308 -0.00642746 0)
(0.991644 -0.0223392 0)
(0.985012 -0.00340179 0)
(0.983034 -0.0206537 0)
(0.975366 0.000938784 0)
(0.972958 -0.0060224 0)
(0.974029 0.0147075 0)
(0.979388 0.0120544 0)
(0.983378 0.0218452 0)
(0.987862 0.0203307 0)
(0.99043 0.0228528 0)
(0.993119 0.023306 0)
(0.99385 0.0234258 0)
(0.995703 0.0239993 0)
(0.997742 -0.00332596 0)
(0.997074 0.0029911 0)
(1.00178 0.00599215 0)
(1.00904 0.000814248 0)
(1.00285 -0.00717394 0)
(0.996706 -0.00753768 0)
(1.0026 -0.00632595 0)
(0.991984 -0.0218498 0)
(0.98517 -0.0035009 0)
(0.983645 -0.0199338 0)
(0.975448 0.000688768 0)
(0.973358 -0.00536768 0)
(0.973704 0.0138523 0)
(0.978553 0.0122173 0)
(0.982111 0.0210026 0)
(0.986612 0.0203218 0)
(0.989047 0.022347 0)
(0.991879 0.0231998 0)
(0.992506 0.0231974 0)
(0.994427 0.0238462 0)
(0.997911 -0.00325974 0)
(0.997127 0.00290352 0)
(1.00159 0.00589218 0)
(1.00871 0.000755591 0)
(1.00301 -0.00692612 0)
(0.99681 -0.00758107 0)
(1.00209 -0.00623355 0)
(0.992227 -0.0213406 0)
(0.985322 -0.00363754 0)
(0.984074 -0.0191529 0)
(0.975661 0.000401702 0)
(0.97374 -0.00467482 0)
(0.973695 0.013031 0)
(0.97818 0.0123834 0)
(0.981322 0.0201752 0)
(0.985816 0.0203112 0)
(0.988118 0.0218831 0)
(0.991029 0.0230085 0)
(0.991603 0.0229487 0)
(0.993507 0.0236985 0)
(0.998098 -0.00319211 0)
(0.997125 0.00281432 0)
(1.00141 0.00579526 0)
(1.00831 0.000688556 0)
(1.00319 -0.00667645 0)
(0.997005 -0.00760971 0)
(1.0016 -0.0061487 0)
(0.992419 -0.020807 0)
(0.985435 -0.00380685 0)
(0.984363 -0.0183295 0)
(0.975952 9.78101e-05 0)
(0.974144 -0.00395628 0)
(0.97386 0.0122127 0)
(0.978109 0.0125769 0)
(0.980843 0.0193681 0)
(0.985305 0.0202743 0)
(0.987492 0.0215033 0)
(0.990432 0.0227981 0)
(0.991029 0.0226154 0)
(0.992855 0.0234996 0)
(0.998262 -0.00312223 0)
(0.997118 0.00272196 0)
(1.00125 0.00570389 0)
(1.00787 0.000610294 0)
(1.00332 -0.0064239 0)
(0.997266 -0.00762741 0)
(1.00116 -0.00606777 0)
(0.992587 -0.0202463 0)
(0.98551 -0.00400899 0)
(0.984542 -0.0174617 0)
(0.976295 -0.000234278 0)
(0.974579 -0.00320405 0)
(0.974147 0.0113822 0)
(0.978256 0.0127447 0)
(0.980622 0.0186271 0)
(0.985022 0.020201 0)
(0.987129 0.0211438 0)
(0.990033 0.022654 0)
(0.990715 0.0222556 0)
(0.992432 0.023236 0)
(0.998384 -0.00304949 0)
(0.997129 0.00262578 0)
(1.0011 0.00561722 0)
(1.00746 0.000523335 0)
(1.0034 -0.0061768 0)
(0.997569 -0.00762657 0)
(1.0008 -0.0059997 0)
(0.992745 -0.0196521 0)
(0.98556 -0.0042332 0)
(0.984643 -0.0165523 0)
(0.976673 -0.000583988 0)
(0.975039 -0.00245825 0)
(0.974525 0.0106289 0)
(0.978557 0.0128551 0)
(0.98063 0.0179115 0)
(0.984922 0.0201216 0)
(0.987001 0.0207562 0)
(0.989811 0.0225744 0)
(0.990598 0.0219565 0)
(0.992197 0.0229681 0)
(0.998465 -0.00297598 0)
(0.997163 0.00253048 0)
(1.00096 0.00552942 0)
(1.00709 0.000438727 0)
(1.00339 -0.00595061 0)
(0.99789 -0.00758348 0)
(1.0005 -0.00597913 0)
(0.992902 -0.0189869 0)
(0.985603 -0.00450844 0)
(0.984701 -0.015586 0)
(0.977072 -0.000960467 0)
(0.975511 -0.00172636 0)
(0.974971 0.00988425 0)
(0.978931 0.0129777 0)
(0.980821 0.0171697 0)
(0.984964 0.0200152 0)
(0.98706 0.0203396 0)
(0.989733 0.0224805 0)
(0.990611 0.0217287 0)
(0.992093 0.0227459 0)
(0.998515 -0.00289938 0)
(0.997213 0.00242913 0)
(1.00085 0.00544966 0)
(1.00679 0.000345371 0)
(1.00333 -0.00572437 0)
(0.998205 -0.00753065 0)
(1.00025 -0.00595867 0)
(0.993061 -0.0183084 0)
(0.985649 -0.00478138 0)
(0.98475 -0.014639 0)
(0.977479 -0.00132321 0)
(0.975974 -0.00102754 0)
(0.975464 0.00918772 0)
(0.979322 0.0129845 0)
(0.981126 0.0165665 0)
(0.985091 0.0197571 0)
(0.987227 0.019969 0)
(0.989749 0.0222355 0)
(0.990682 0.0215442 0)
(0.99205 0.0225752 0)
(0.998548 -0.00281733 0)
(0.997267 0.00231765 0)
(1.00075 0.00537658 0)
(1.00653 0.000244134 0)
(1.00321 -0.00549383 0)
(0.998491 -0.00747998 0)
(1.00005 -0.00592428 0)
(0.993222 -0.0176314 0)
(0.985705 -0.00501829 0)
(0.984814 -0.0137505 0)
(0.97789 -0.00163002 0)
(0.976418 -0.000492661 0)
(0.975976 0.00880076 0)
(0.979705 0.0126784 0)
(0.981481 0.0161874 0)
(0.985254 0.0193195 0)
(0.987448 0.0196842 0)
(0.989827 0.0218338 0)
(0.990798 0.0214516 0)
(0.992042 0.0224649 0)
(0.998576 -0.00273562 0)
(0.997313 0.00220956 0)
(1.00066 0.00529529 0)
(1.00631 0.000156636 0)
(1.00307 -0.00529664 0)
(0.998727 -0.00737008 0)
(0.999868 -0.00594894 0)
(0.993381 -0.0168969 0)
(0.985778 -0.00526457 0)
(0.984902 -0.0128603 0)
(0.978304 -0.00189065 0)
(0.976859 -7.82718e-05 0)
(0.976485 0.00852457 0)
(0.980063 0.0123136 0)
(0.98186 0.0158507 0)
(0.985424 0.0188031 0)
(0.987672 0.019423 0)
(0.989942 0.0213609 0)
(0.990941 0.021365 0)
(0.992021 0.0223677 0)
(0.998605 -0.00265144 0)
(0.997356 0.00209901 0)
(1.00059 0.00521217 0)
(1.00611 7.61017e-05 0)
(1.00293 -0.00512598 0)
(0.998913 -0.00720976 0)
(0.999706 -0.00601754 0)
(0.993532 -0.0161149 0)
(0.985877 -0.00555542 0)
(0.985018 -0.0118944 0)
(0.978736 -0.0021843 0)
(0.977289 0.000399997 0)
(0.977006 0.00802903 0)
(0.980412 0.0121924 0)
(0.982231 0.0153605 0)
(0.985603 0.0183781 0)
(0.987901 0.0191512 0)
(0.99009 0.0210321 0)
(0.99112 0.0211939 0)
(0.992009 0.0221638 0)
(0.998631 -0.00256075 0)
(0.997402 0.00197504 0)
(1.00052 0.00513743 0)
(1.00593 -1.27086e-05 0)
(1.00278 -0.0049484 0)
(0.999058 -0.00705603 0)
(0.999552 -0.00606671 0)
(0.99367 -0.015342 0)
(0.986013 -0.00580928 0)
(0.985159 -0.0109766 0)
(0.979194 -0.00246019 0)
(0.977721 0.000907125 0)
(0.977552 0.007473 0)
(0.980766 0.012145 0)
(0.982604 0.0148258 0)
(0.985828 0.0181498 0)
(0.98814 0.0188103 0)
(0.990246 0.0208048 0)
(0.991264 0.0209767 0)
(0.991974 0.0218471 0)
(0.998656 -0.00246817 0)
(0.997459 0.00184841 0)
(1.00045 0.00505816 0)
(1.00575 -8.93628e-05 0)
(1.00264 -0.00478963 0)
(0.999167 -0.00688055 0)
(0.999402 -0.00610834 0)
(0.993798 -0.0146011 0)
(0.986176 -0.00596726 0)
(0.985329 -0.0101856 0)
(0.979688 -0.00261509 0)
(0.978168 0.00125669 0)
(0.978119 0.00713238 0)
(0.981148 0.0119757 0)
(0.983 0.0144291 0)
(0.986067 0.0179346 0)
(0.988369 0.0184834 0)
(0.990426 0.0205548 0)
(0.991386 0.0206766 0)
(0.991925 0.0214519 0)
(0.998679 -0.00237632 0)
(0.997529 0.00172927 0)
(1.00038 0.00495783 0)
(1.00557 -0.000130156 0)
(1.0025 -0.00468295 0)
(0.999246 -0.00663954 0)
(0.999258 -0.00619522 0)
(0.993916 -0.0138186 0)
(0.986367 -0.00615047 0)
(0.985522 -0.00938253 0)
(0.980206 -0.00273923 0)
(0.978653 0.00154872 0)
(0.978711 0.00687224 0)
(0.981563 0.0117879 0)
(0.983427 0.0141429 0)
(0.986347 0.0176335 0)
(0.988616 0.018231 0)
(0.990615 0.0202973 0)
(0.991489 0.020243 0)
(0.991881 0.0209209 0)
(0.998698 -0.00227963 0)
(0.997614 0.00160024 0)
(1.00031 0.00486381 0)
(1.00539 -0.000171093 0)
(1.00237 -0.00458527 0)
(0.999302 -0.00639164 0)
(0.999119 -0.00626748 0)
(0.994027 -0.0130589 0)
(0.986585 -0.00626793 0)
(0.985737 -0.00865763 0)
(0.980753 -0.00282562 0)
(0.979167 0.00191811 0)
(0.979326 0.00660108 0)
(0.982031 0.0116127 0)
(0.983877 0.0139326 0)
(0.986667 0.017293 0)
(0.988894 0.0179424 0)
(0.990799 0.0198221 0)
(0.991562 0.0196884 0)
(0.991855 0.0203915 0)
(0.998714 -0.00217848 0)
(0.997713 0.00146215 0)
(1.00024 0.00477192 0)
(1.00519 -0.000209928 0)
(1.00224 -0.00447777 0)
(0.999341 -0.00616045 0)
(0.998984 -0.00628841 0)
(0.994137 -0.0123913 0)
(0.986821 -0.00625664 0)
(0.985971 -0.00803312 0)
(0.981328 -0.00278706 0)
(0.979714 0.0021299 0)
(0.979949 0.00652885 0)
(0.982544 0.0113778 0)
(0.98435 0.0136961 0)
(0.987008 0.0169262 0)
(0.989158 0.0175709 0)
(0.990976 0.0191658 0)
(0.991678 0.0192032 0)
(0.991882 0.0199814 0)
(0.998729 -0.00208122 0)
(0.997821 0.00133819 0)
(1.00017 0.00464884 0)
(1.00499 -0.000195579 0)
(1.00212 -0.00441641 0)
(0.999367 -0.00589594 0)
(0.998857 -0.00631875 0)
(0.994247 -0.0117329 0)
(0.987074 -0.0061991 0)
(0.986226 -0.00744807 0)
(0.981912 -0.00269332 0)
(0.980295 0.00229115 0)
(0.980589 0.00653099 0)
(0.983073 0.0111374 0)
(0.984843 0.013439 0)
(0.987369 0.016477 0)
(0.989416 0.0171304 0)
(0.991187 0.0186303 0)
(0.991844 0.0188833 0)
(0.991928 0.0195847 0)
(0.998744 -0.00198197 0)
(0.997934 0.00121164 0)
(1.00011 0.00451778 0)
(1.00477 -0.000155667 0)
(1.00201 -0.00438792 0)
(0.999385 -0.00561069 0)
(0.998739 -0.00632886 0)
(0.994361 -0.0111117 0)
(0.98734 -0.006111 0)
(0.98649 -0.00686502 0)
(0.982516 -0.00262578 0)
(0.980906 0.00255624 0)
(0.981234 0.00646671 0)
(0.983626 0.0109221 0)
(0.985339 0.013174 0)
(0.987736 0.0159772 0)
(0.989701 0.0167413 0)
(0.991441 0.0182127 0)
(0.992022 0.0185185 0)
(0.991972 0.0191212 0)
(0.998757 -0.00187586 0)
(0.998054 0.0010695 0)
(1.00005 0.00439759 0)
(1.00456 -0.000137225 0)
(1.0019 -0.00432076 0)
(0.9994 -0.00537613 0)
(0.998626 -0.00624587 0)
(0.994479 -0.0106012 0)
(0.987621 -0.00594107 0)
(0.986769 -0.00630991 0)
(0.983131 -0.00246583 0)
(0.981538 0.00269467 0)
(0.981879 0.00650278 0)
(0.984192 0.0106557 0)
(0.985836 0.0128437 0)
(0.988131 0.0155318 0)
(0.990016 0.0164429 0)
(0.991697 0.0177575 0)
(0.992199 0.0180073 0)
(0.992031 0.0186114 0)
(0.998771 -0.00177733 0)
(0.998175 0.000948522 0)
(1 0.00423771 0)
(1.00434 -6.22514e-05 0)
(1.00179 -0.00428439 0)
(0.999413 -0.00513485 0)
(0.998521 -0.00612764 0)
(0.994603 -0.0101042 0)
(0.987915 -0.00574977 0)
(0.987056 -0.00578719 0)
(0.983746 -0.00227341 0)
(0.982199 0.00282017 0)
(0.982527 0.00653773 0)
(0.984751 0.0103474 0)
(0.986353 0.0125647 0)
(0.988558 0.0151312 0)
(0.990331 0.0160758 0)
(0.991931 0.0172111 0)
(0.992388 0.0175027 0)
(0.992127 0.0181556 0)
(0.998786 -0.00167701 0)
(0.998297 0.000827573 0)
(0.999956 0.00406855 0)
(1.00411 3.46412e-05 0)
(1.00168 -0.00425648 0)
(0.999427 -0.00489414 0)
(0.998425 -0.0059892 0)
(0.994731 -0.00962112 0)
(0.988223 -0.0055644 0)
(0.987357 -0.00522287 0)
(0.984374 -0.00209057 0)
(0.982874 0.00298005 0)
(0.983166 0.00647648 0)
(0.985326 0.0101088 0)
(0.986881 0.0123196 0)
(0.988979 0.0146638 0)
(0.99064 0.0156281 0)
(0.992183 0.0167241 0)
(0.992616 0.0170841 0)
(0.992244 0.0177165 0)
(0.998801 -0.00157178 0)
(0.998421 0.000692583 0)
(0.999916 0.00391621 0)
(1.00389 0.000105944 0)
(1.00158 -0.00418178 0)
(0.999443 -0.00471972 0)
(0.998333 -0.00577803 0)
(0.994868 -0.00918266 0)
(0.988552 -0.00533725 0)
(0.987666 -0.0046869 0)
(0.984997 -0.00185638 0)
(0.983562 0.00301973 0)
(0.983812 0.00649133 0)
(0.985908 0.00991046 0)
(0.987397 0.0119984 0)
(0.989405 0.0141747 0)
(0.990981 0.0152086 0)
(0.992454 0.0163252 0)
(0.992838 0.0166527 0)
(0.992366 0.0172201 0)
(0.998817 -0.00147758 0)
(0.998547 0.00059077 0)
(0.999883 0.00371206 0)
(1.00367 0.000220026 0)
(1.00147 -0.00412089 0)
(0.999464 -0.00455759 0)
(0.998252 -0.00554746 0)
(0.995008 -0.00871858 0)
(0.988894 -0.00512427 0)
(0.987989 -0.0041885 0)
(0.985613 -0.00161692 0)
(0.984268 0.00308743 0)
(0.984468 0.00652919 0)
(0.986477 0.00962516 0)
(0.987912 0.0116907 0)
(0.989848 0.0137813 0)
(0.991344 0.0148145 0)
(0.992727 0.0158856 0)
(0.993055 0.0161812 0)
(0.992502 0.0167239 0)
(0.998834 -0.00137829 0)
(0.998671 0.000476511 0)
(0.999859 0.00351694 0)
(1.00345 0.000329328 0)
(1.00137 -0.00403217 0)
(0.99949 -0.00440809 0)
(0.998181 -0.00531939 0)
(0.995153 -0.00824483 0)
(0.989254 -0.00491265 0)
(0.988321 -0.0036681 0)
(0.986229 -0.00134224 0)
(0.984989 0.00313807 0)
(0.98511 0.00646886 0)
(0.987049 0.00936779 0)
(0.988453 0.0114392 0)
(0.990295 0.0134069 0)
(0.991705 0.0143729 0)
(0.993002 0.0154207 0)
(0.99328 0.0157313 0)
(0.992659 0.0162396 0)
(0.998851 -0.00128039 0)
(0.998798 0.000364678 0)
(0.999844 0.00332263 0)
(1.00323 0.000424914 0)
(1.00126 -0.0038958 0)
(0.999522 -0.00430193 0)
(0.998121 -0.00506483 0)
(0.995299 -0.00776277 0)
(0.98963 -0.00466438 0)
(0.988672 -0.00318956 0)
(0.986828 -0.00105773 0)
(0.985705 0.00311778 0)
(0.98577 0.00643467 0)
(0.987635 0.00920273 0)
(0.988989 0.0111603 0)
(0.990732 0.0130079 0)
(0.992079 0.0139289 0)
(0.993303 0.0149482 0)
(0.993512 0.0152786 0)
(0.992824 0.0157522 0)
(0.998869 -0.00119339 0)
(0.998922 0.00028343 0)
(0.999838 0.00308747 0)
(1.00301 0.00054329 0)
(1.00114 -0.00374762 0)
(0.999558 -0.00419116 0)
(0.998078 -0.00481617 0)
(0.995451 -0.00725633 0)
(0.990018 -0.00442399 0)
(0.989029 -0.00275238 0)
(0.987417 -0.000794669 0)
(0.986437 0.00316081 0)
(0.986442 0.0064167 0)
(0.98821 0.00898466 0)
(0.989526 0.0108298 0)
(0.991181 0.0126449 0)
(0.992455 0.013522 0)
(0.993605 0.0144614 0)
(0.993756 0.0148298 0)
(0.993012 0.0152837 0)
(0.998887 -0.00109801 0)
(0.999047 0.000181818 0)
(0.999843 0.00288407 0)
(1.0028 0.000629279 0)
(1.00102 -0.0035564 0)
(0.999601 -0.00407621 0)
(0.99805 -0.00456795 0)
(0.995603 -0.0067717 0)
(0.990417 -0.00418536 0)
(0.989405 -0.00233343 0)
(0.988001 -0.000458331 0)
(0.987165 0.00317013 0)
(0.987109 0.00631048 0)
(0.988782 0.00876633 0)
(0.990078 0.0105208 0)
(0.991641 0.0123056 0)
(0.992827 0.0131223 0)
(0.993926 0.0140031 0)
(0.99402 0.0143994 0)
(0.993211 0.0148063 0)
(0.998906 -0.00101731 0)
(0.999169 0.000113037 0)
(0.999857 0.00265124 0)
(1.0026 0.000715206 0)
(1.00089 -0.00333831 0)
(0.999643 -0.00396367 0)
(0.998037 -0.00434348 0)
(0.995762 -0.00627232 0)
(0.990831 -0.00391146 0)
(0.989801 -0.00192899 0)
(0.988566 -0.000171775 0)
(0.987879 0.00314722 0)
(0.987793 0.00621904 0)
(0.989363 0.00860809 0)
(0.990634 0.0102278 0)
(0.992106 0.0119425 0)
(0.9932 0.0127478 0)
(0.99425 0.0135532 0)
(0.994279 0.0139298 0)
(0.993419 0.0143046 0)
(0.998926 -0.000934138 0)
(0.999288 4.09105e-05 0)
(0.99988 0.00242635 0)
(1.00241 0.000777211 0)
(1.00077 -0.00311536 0)
(0.999686 -0.0038166 0)
(0.998044 -0.00410499 0)
(0.995926 -0.00577924 0)
(0.991251 -0.00364975 0)
(0.990207 -0.00158178 0)
(0.989123 0.000128057 0)
(0.988597 0.00318787 0)
(0.988488 0.00612476 0)
(0.989936 0.00844256 0)
(0.991182 0.00991428 0)
(0.992584 0.0115482 0)
(0.993576 0.0123714 0)
(0.994566 0.0131016 0)
(0.994545 0.0134839 0)
(0.99365 0.013827 0)
(0.998946 -0.000857969 0)
(0.999405 -1.72704e-05 0)
(0.999911 0.00219942 0)
(1.00224 0.000816964 0)
(1.00064 -0.00285815 0)
(0.999728 -0.00365196 0)
(0.998064 -0.00387264 0)
(0.996092 -0.00530628 0)
(0.991678 -0.00337528 0)
(0.990639 -0.00124704 0)
(0.989678 0.000450421 0)
(0.989293 0.00323231 0)
(0.989184 0.00597996 0)
(0.990513 0.00825931 0)
(0.991724 0.00962498 0)
(0.993073 0.0111721 0)
(0.993961 0.0120264 0)
(0.994894 0.0127034 0)
(0.994816 0.0130751 0)
(0.993885 0.013349 0)
(0.998968 -0.000788066 0)
(0.999517 -5.77814e-05 0)
(0.999949 0.00196294 0)
(1.00208 0.000842112 0)
(1.00051 -0.00259338 0)
(0.999766 -0.00347037 0)
(0.998101 -0.00363782 0)
(0.996267 -0.00483149 0)
(0.992111 -0.00307738 0)
(0.991083 -0.000942347 0)
(0.990223 0.000724205 0)
(0.989975 0.00328755 0)
(0.989886 0.00583817 0)
(0.991098 0.00808403 0)
(0.992262 0.00938126 0)
(0.993576 0.0108132 0)
(0.99436 0.0116834 0)
(0.995213 0.0122873 0)
(0.995066 0.0126493 0)
(0.994123 0.012862 0)
(0.998989 -0.000720157 0)
(0.999625 -9.32567e-05 0)
(0.999993 0.00173542 0)
(1.00193 0.000837494 0)
(1.00039 -0.0023302 0)
(0.999803 -0.0032562 0)
(0.998151 -0.00339008 0)
(0.996446 -0.00437836 0)
(0.992543 -0.00277974 0)
(0.991541 -0.000669246 0)
(0.99077 0.00099112 0)
(0.990637 0.00337777 0)
(0.990586 0.00570356 0)
(0.991695 0.00789652 0)
(0.992794 0.00915013 0)
(0.994076 0.010437 0)
(0.994755 0.0113044 0)
(0.995536 0.0118555 0)
(0.995325 0.0122594 0)
(0.994368 0.0124071 0)
(0.999012 -0.00066349 0)
(0.999729 -0.000102496 0)
(1.00004 0.00149428 0)
(1.0018 0.000822456 0)
(1.00027 -0.00206612 0)
(0.999837 -0.00302571 0)
(0.998214 -0.00314596 0)
(0.996632 -0.00393157 0)
(0.992977 -0.00247168 0)
(0.992009 -0.000392837 0)
(0.991316 0.0012249 0)
(0.991282 0.00347831 0)
(0.991276 0.00558799 0)
(0.992301 0.00768332 0)
(0.993317 0.0089199 0)
(0.994574 0.0100726 0)
(0.995165 0.0109637 0)
(0.995881 0.0114664 0)
(0.995584 0.0118978 0)
(0.994605 0.0119788 0)
(0.999035 -0.000607713 0)
(0.999827 -0.000104419 0)
(1.00009 0.00126143 0)
(1.00169 0.000786037 0)
(1.00016 -0.00180862 0)
(0.999871 -0.00278891 0)
(0.998289 -0.00288361 0)
(0.996824 -0.00348968 0)
(0.993408 -0.00216129 0)
(0.992483 -0.000142553 0)
(0.991864 0.00144144 0)
(0.991912 0.00357925 0)
(0.991949 0.00549425 0)
(0.992914 0.00745476 0)
(0.993841 0.00869949 0)
(0.995079 0.00973931 0)
(0.995582 0.0106472 0)
(0.996226 0.011076 0)
(0.995843 0.0115209 0)
(0.994839 0.0115648 0)
(0.999059 -0.000562762 0)
(0.999919 -8.48117e-05 0)
(1.00014 0.00102726 0)
(1.0016 0.000736567 0)
(1.00006 -0.00155908 0)
(0.999905 -0.00253357 0)
(0.998376 -0.00261596 0)
(0.997021 -0.00305483 0)
(0.993836 -0.00185395 0)
(0.992962 9.58007e-05 0)
(0.992412 0.00163351 0)
(0.992528 0.00365548 0)
(0.992603 0.00542052 0)
(0.993531 0.00722177 0)
(0.994368 0.00848146 0)
(0.995583 0.00940251 0)
(0.996 0.0103202 0)
(0.996574 0.0106945 0)
(0.99611 0.0111466 0)
(0.995071 0.0111784 0)
(0.999082 -0.000521495 0)
(1 -5.50772e-05 0)
(1.0002 0.000800837 0)
(1.00152 0.000673917 0)
(0.999975 -0.00133144 0)
(0.999938 -0.00225515 0)
(0.998472 -0.00234442 0)
(0.997221 -0.00263378 0)
(0.994259 -0.00154044 0)
(0.993442 0.00033128 0)
(0.992956 0.00180309 0)
(0.993135 0.00371875 0)
(0.993238 0.00537455 0)
(0.994148 0.007 0)
(0.994893 0.00826273 0)
(0.996088 0.009068 0)
(0.996428 0.00999147 0)
(0.996924 0.0103335 0)
(0.996387 0.0107847 0)
(0.995307 0.0108273 0)
(0.999105 -0.000487183 0)
(1.00008 -1.49501e-05 0)
(1.00025 0.00058932 0)
(1.00146 0.00059577 0)
(0.999898 -0.001111 0)
(0.999973 -0.00197569 0)
(0.998576 -0.00207373 0)
(0.997426 -0.0022304 0)
(0.994675 -0.00122576 0)
(0.993921 0.000561359 0)
(0.993497 0.00196442 0)
(0.993736 0.00376462 0)
(0.993854 0.00534481 0)
(0.994757 0.00679176 0)
(0.995415 0.0080478 0)
(0.996589 0.00875509 0)
(0.996866 0.00966189 0)
(0.997284 0.0100025 0)
(0.996682 0.0104435 0)
(0.995544 0.0104979 0)
(0.999129 -0.000457625 0)
(1.00014 3.1859e-05 0)
(1.0003 0.00040258 0)
(1.00142 0.000507154 0)
(0.999834 -0.000897961 0)
(1.00001 -0.00169613 0)
(0.998687 -0.00180636 0)
(0.997635 -0.00183939 0)
(0.995086 -0.000920485 0)
(0.994397 0.000785973 0)
(0.994029 0.0021279 0)
(0.994332 0.0037907 0)
(0.994455 0.00531871 0)
(0.995358 0.00659787 0)
(0.995936 0.00783088 0)
(0.997085 0.00846076 0)
(0.997319 0.00933011 0)
(0.997655 0.00968847 0)
(0.996983 0.0100959 0)
(0.995779 0.0101719 0)
(0.999152 -0.000431654 0)
(1.0002 8.14161e-05 0)
(1.00034 0.000247007 0)
(1.00139 0.000416481 0)
(0.999784 -0.000688079 0)
(1.00004 -0.00141745 0)
(0.998804 -0.00155427 0)
(0.997848 -0.00147507 0)
(0.99549 -0.000620037 0)
(0.994872 0.000999328 0)
(0.994552 0.0022975 0)
(0.99492 0.00380024 0)
(0.995041 0.00528841 0)
(0.995945 0.00642385 0)
(0.996453 0.00761777 0)
(0.997572 0.00819421 0)
(0.997778 0.00899731 0)