/*--------------------------------*- C++ -*----------------------------------*\
| =========                 |                                                 |
| \\      /  F ield         | OpenFOAM: The Open Source CFD Toolbox           |
|  \\    /   O peration     | Version:  v2012                                 |
|   \\  /    A nd           | Website:  www.openfoam.com                      |
|    \\/     M anipulation  |                                                 |
\*---------------------------------------------------------------------------*/
FoamFile
{
    version     2.0;
    format      ascii;
    class       surfaceScalarField;
    location    "9.1";
    object      phi;
}
// * * * * * * * * * * * * * * * * * * * * * * * * * * * * * * * * * * * * * //

dimensions      [0 3 -1 0 0 0 0];
oriented        oriented;


internalField   nonuniform List<scalar> 
13830
(
9.37038e-07
-8.28366e-09
8.83896e-07
1.2512e-06
9.18757e-07
-1.95546e-06
1.01004e-06
-2.07336e-06
1.03017e-06
-8.51069e-07
9.57398e-07
4.77502e-07
9.53597e-07
5.89907e-07
9.77439e-07
7.24875e-07
9.49896e-07
1.40735e-07
9.67726e-07
3.25008e-07
9.60688e-07
-1.00736e-07
9.59646e-07
-1.29746e-07
9.5714e-07
-9.45887e-08
9.36675e-07
-4.22862e-07
9.42756e-07
-2.05999e-07
9.164e-07
-4.52263e-07
9.26552e-07
-2.39838e-07
9.01209e-07
-3.88716e-07
9.10099e-07
-1.8978e-07
-2.90701e-07
8.77974e-07
9.71184e-07
-6.93531e-09
9.30303e-07
1.29208e-06
9.58047e-07
-1.9832e-06
1.03966e-06
-2.15498e-06
1.06649e-06
-8.77904e-07
9.96972e-07
5.47025e-07
9.89951e-07
5.96927e-07
1.01804e-06
6.96784e-07
9.88576e-07
1.70202e-07
1.00746e-06
3.0612e-07
9.97074e-07
-9.03471e-08
1.00043e-06
-1.331e-07
9.89008e-07
-8.31685e-08
9.77914e-07
-4.11768e-07
9.71214e-07
-1.99298e-07
9.59062e-07
-4.40112e-07
9.54381e-07
-2.35156e-07
9.45168e-07
-3.79502e-07
9.38161e-07
-1.82773e-07
-2.77902e-07
9.25361e-07
1.00521e-06
-2.69653e-09
9.76344e-07
1.32095e-06
9.94313e-07
-2.00117e-06
1.06752e-06
-2.22819e-06
1.10003e-06
-9.10416e-07
1.04296e-06
6.04102e-07
1.02717e-06
6.12711e-07
1.05809e-06
6.65871e-07
1.03063e-06
1.97656e-07
1.04486e-06
2.91891e-07
1.03465e-06
-8.01304e-08
1.0377e-06
-1.3616e-07
1.02524e-06
-7.07048e-08
1.0169e-06
-4.03423e-07
1.00741e-06
-1.8981e-07
1.00076e-06
-4.33468e-07
9.91754e-07
-2.26147e-07
9.88173e-07
-3.75921e-07
9.77695e-07
-1.72295e-07
-2.70048e-07
9.6984e-07
1.04047e-06
4.61071e-09
1.02178e-06
1.33964e-06
1.02905e-06
-2.00844e-06
1.09445e-06
-2.29359e-06
1.13089e-06
-9.46854e-07
1.09035e-06
6.44646e-07
1.06915e-06
6.3391e-07
1.09556e-06
6.39462e-07
1.07491e-06
2.18303e-07
1.08194e-06
2.84861e-07
1.07347e-06
-7.16609e-08
1.07466e-06
-1.37351e-07
1.06358e-06
-5.96237e-08
1.05554e-06
-3.95386e-07
1.04599e-06
-1.80259e-07
1.0406e-06
-4.28072e-07
1.0304e-06
-2.15952e-07
1.02769e-06
-3.73209e-07
1.01685e-06
-1.61452e-07
-2.62605e-07
1.0094e-06
1.07811e-06
1.40566e-08
1.06704e-06
1.3507e-06
1.06446e-06
-2.00585e-06
1.12133e-06
-2.35047e-06
1.16016e-06
-9.85688e-07
1.1363e-06
6.68508e-07
1.11582e-06
6.54396e-07
1.13384e-06
6.21442e-07
1.12008e-06
2.32058e-07
1.12156e-06
2.83384e-07
1.11348e-06
-6.35868e-08
1.11363e-06
-1.37498e-07
1.10373e-06
-4.97179e-08
1.09549e-06
-3.87149e-07
1.08657e-06
-1.7134e-07
1.08086e-06
-4.2236e-07
1.07059e-06
-2.05682e-07
1.06701e-06
-3.69631e-07
1.05671e-06
-1.51152e-07
-2.54317e-07
1.04842e-06
1.119e-06
2.39012e-08
1.11325e-06
1.35645e-06
1.10297e-06
-1.99556e-06
1.14928e-06
-2.39678e-06
1.18928e-06
-1.02569e-06
1.18073e-06
6.7706e-07
1.16556e-06
6.69564e-07
1.17563e-06
6.11372e-07
1.16575e-06
2.41939e-07
1.16406e-06
2.85078e-07
1.15476e-06
-5.42942e-08
1.15472e-06
-1.37459e-07
1.14546e-06
-4.04512e-08
1.13718e-06
-3.78873e-07
1.12875e-06
-1.62911e-07
1.12249e-06
-4.16101e-07
1.11233e-06
-1.9552e-07
1.10752e-06
-3.64818e-07
1.09788e-06
-1.41511e-07
-2.45113e-07
1.08867e-06
1.16338e-06
3.22238e-08
1.16156e-06
1.35826e-06
1.14594e-06
-1.97994e-06
1.17958e-06
-2.43043e-06
1.21935e-06
-1.06546e-06
1.22469e-06
6.71725e-07
1.21656e-06
6.77692e-07
1.22109e-06
6.06846e-07
1.21197e-06
2.51057e-07
1.20858e-06
2.8847e-07
1.19724e-06
-4.29602e-08
1.19734e-06
-1.37557e-07
1.18847e-06
-3.15754e-08
1.18043e-06
-3.70839e-07
1.1723e-06
-1.54783e-07
1.16568e-06
-4.09477e-07
1.15568e-06
-1.85525e-07
1.14971e-06
-3.58838e-07
1.14074e-06
-1.32544e-07
-2.35223e-07
1.13085e-06
1.21079e-06
3.76116e-08
1.21252e-06
1.35654e-06
1.19329e-06
-1.96071e-06
1.21334e-06
-2.45048e-06
1.25116e-06
-1.10327e-06
1.26884e-06
6.54046e-07
1.26743e-06
6.79097e-07
1.26868e-06
6.05598e-07
1.25859e-06
2.61145e-07
1.2542e-06
2.92863e-07
1.24074e-06
-2.94982e-08
1.24098e-06
-1.378e-07
1.23253e-06
-2.31303e-08
1.22498e-06
-3.6328e-07
1.21713e-06
-1.46934e-07
1.21029e-06
-4.02645e-07
1.20066e-06
-1.75889e-07
1.1936e-06
-3.51779e-07
1.1854e-06
-1.24346e-07
-2.2485e-07
1.17503e-06
1.26038e-06
3.95803e-08
1.26586e-06
1.35106e-06
1.24402e-06
-1.93887e-06
1.25119e-06
-2.45765e-06
1.28529e-06
-1.13738e-06
1.31318e-06
6.26163e-07
1.31727e-06
6.75e-07
1.31661e-06
6.06257e-07
1.30518e-06
2.72582e-07
1.30031e-06
2.97727e-07
1.28511e-06
-1.42905e-08
1.28545e-06
-1.38148e-07
1.27762e-06
-1.52994e-08
1.2707e-06
-3.56353e-07
1.26322e-06
-1.39457e-07
1.25622e-06
-3.95646e-07
1.24723e-06
-1.66903e-07
1.2391e-06
-3.43648e-07
1.23181e-06
-1.1705e-07
-2.14143e-07
1.2211e-06
1.31129e-06
3.85635e-08
1.32075e-06
1.3416e-06
1.29696e-06
-1.91507e-06
1.29315e-06
-2.45384e-06
1.32211e-06
-1.16634e-06
1.35741e-06
5.90864e-07
1.36549e-06
6.66914e-07
1.36362e-06
6.08127e-07
1.3513e-06
2.84903e-07
1.34669e-06
3.02345e-07
1.33039e-06
2.00563e-09
1.33088e-06
-1.38638e-07
1.32386e-06
-8.28127e-09
1.31765e-06
-3.50137e-07
1.31066e-06
-1.32473e-07
1.30345e-06
-3.88431e-07
1.2954e-06
-1.58853e-07
1.28621e-06
-3.34458e-07
1.27989e-06
-1.10729e-07
-2.03234e-07
1.26898e-06
1.36303e-06
3.55537e-08
1.37633e-06
1.3283e-06
1.3513e-06
-1.89004e-06
1.3388e-06
-2.44133e-06
1.36152e-06
-1.18906e-06
1.40115e-06
5.51232e-07
1.41173e-06
6.56336e-07
1.4092e-06
6.1065e-07
1.39688e-06
2.97227e-07
1.39344e-06
3.05782e-07
1.37684e-06
1.86092e-08
1.37757e-06
-1.39368e-07
1.3715e-06
-2.20848e-09
1.36597e-06
-3.44611e-07
1.35958e-06
-1.26077e-07
1.35205e-06
-3.80902e-07
1.34516e-06
-1.51962e-07
1.33495e-06
-3.24253e-07
1.32961e-06
-1.05385e-07
-1.92255e-07
1.31863e-06
1.41557e-06
3.16327e-08
1.43212e-06
1.31176e-06
1.40669e-06
-1.86462e-06
1.38758e-06
-2.42222e-06
1.40316e-06
-1.20464e-06
1.44412e-06
5.10266e-07
1.45596e-06
6.44496e-07
1.45361e-06
6.13001e-07
1.44234e-06
3.08501e-07
1.44106e-06
3.0706e-07
1.42489e-06
3.47774e-08
1.42594e-06
-1.4042e-07
1.42084e-06
2.8933e-09
1.41586e-06
-3.39628e-07
1.41013e-06
-1.20343e-07
1.40214e-06
-3.72915e-07
1.39655e-06
-1.46368e-07
1.38541e-06
-3.13117e-07
1.38099e-06
-1.00965e-07
-1.81336e-07
1.37007e-06
1.46926e-06
2.76158e-08
1.48816e-06
1.29286e-06
1.46309e-06
-1.83955e-06
1.4391e-06
-2.39823e-06
1.44681e-06
-1.21235e-06
1.48649e-06
4.70586e-07
1.49883e-06
6.32159e-07
1.49781e-06
6.14025e-07
1.48857e-06
3.17741e-07
1.49024e-06
3.05389e-07
1.47505e-06
4.99621e-08
1.47642e-06
-1.41787e-07
1.4722e-06
7.10865e-09
1.46749e-06
-3.34917e-07
1.46249e-06
-1.15341e-07
1.45387e-06
-3.64301e-07
1.44961e-06
-1.42105e-07
1.43767e-06
-3.0118e-07
1.43409e-06
-9.73764e-08
-1.70598e-07
1.42335e-06
1.52457e-06
2.39143e-08
1.54495e-06
1.27248e-06
1.52063e-06
-1.81523e-06
1.49321e-06
-2.37081e-06
1.4928e-06
-1.21194e-06
1.52921e-06
4.34177e-07
1.54173e-06
6.19641e-07
1.54326e-06
6.12493e-07
1.5367e-06
3.24301e-07
1.54171e-06
3.00374e-07
1.52777e-06
6.39028e-08
1.52933e-06
-1.43344e-07
1.52584e-06
1.05982e-08
1.52102e-06
-3.301e-07
1.51684e-06
-1.11161e-07
1.50741e-06
-3.54872e-07
1.50442e-06
-1.39114e-07
1.49185e-06
-2.88603e-07
1.48897e-06
-9.44993e-08
-1.60147e-07
1.47852e-06
1.58193e-06
2.05934e-08
1.60313e-06
1.25128e-06
1.57954e-06
-1.79164e-06
1.54992e-06
-2.34118e-06
1.54191e-06
-1.20394e-06
1.57393e-06
4.0216e-07
1.58658e-06
6.06994e-07
1.59158e-06
6.07493e-07
1.5878e-06
3.28074e-07
1.59608e-06
2.92102e-07
1.58336e-06
7.66187e-08
1.58489e-06
-1.44871e-07
1.58195e-06
1.35329e-08
1.57659e-06
-3.24738e-07
1.57335e-06
-1.07917e-07
1.56294e-06
-3.44471e-07
1.56108e-06
-1.37252e-07
1.54805e-06
-2.75569e-07
1.54575e-06
-9.21987e-08
-1.50072e-07
1.53567e-06
1.64161e-06
1.75292e-08
1.66328e-06
1.22961e-06
1.64005e-06
-1.76841e-06
1.60926e-06
-2.31039e-06
1.595e-06
-1.18968e-06
1.62243e-06
3.74723e-07
1.63522e-06
5.94208e-07
1.64403e-06
5.9868e-07
1.6426e-06
3.29505e-07
1.65363e-06
2.81075e-07
1.64194e-06
8.83077e-08
1.64317e-06
-1.46099e-07
1.64067e-06
1.60282e-08
1.63432e-06
-3.18383e-07
1.63213e-06
-1.05726e-07
1.62067e-06
-3.33009e-07
1.61973e-06
-1.36313e-07
1.60642e-06
-2.62265e-07
1.60455e-06
-9.03275e-08
-1.4044e-07
1.59492e-06
1.70372e-06
1.45624e-08
1.72575e-06
1.20758e-06
1.70241e-06
-1.74507e-06
1.67121e-06
-2.27919e-06
1.65251e-06
-1.17097e-06
1.67593e-06
3.513e-07
1.68883e-06
5.81304e-07
1.70124e-06
5.8627e-07
1.70136e-06
3.29385e-07
1.7144e-06
2.68037e-07
1.7035e-06
9.92101e-08
1.70415e-06
-1.46752e-07
1.70209e-06
1.80834e-08
1.69436e-06
-3.10646e-07
1.6933e-06
-1.04666e-07
1.68078e-06
-3.20496e-07
1.68052e-06
-1.3605e-07
1.66713e-06
-2.48869e-07
1.66553e-06
-8.87352e-08
-1.31289e-07
1.65638e-06
1.76829e-06
1.15911e-08
1.79076e-06
1.18511e-06
1.76687e-06
-1.72118e-06
1.73574e-06
-2.24806e-06
1.71437e-06
-1.1496e-06
1.73474e-06
3.30927e-07
1.74773e-06
5.68315e-07
1.76315e-06
5.70843e-07
1.76397e-06
3.28573e-07
1.77822e-06
2.53783e-07
1.76794e-06
1.09491e-07
1.76775e-06
-1.46566e-07
1.76627e-06
1.95726e-08
1.7569e-06
-3.01282e-07
1.75698e-06
-1.04741e-07
1.7435e-06
-3.07019e-07
1.74366e-06
-1.36214e-07
1.73033e-06
-2.35535e-07
1.72887e-06
-8.7278e-08
-1.22628e-07
1.72021e-06
1.83533e-06
8.59548e-09
1.85838e-06
1.16206e-06
1.83363e-06
-1.69643e-06
1.8028e-06
-2.21723e-06
1.78014e-06
-1.12694e-06
1.79847e-06
3.12597e-07
1.81154e-06
5.55251e-07
1.82929e-06
5.5309e-07
1.83011e-06
3.27758e-07
1.84487e-06
2.39023e-07
1.83518e-06
1.19173e-07
1.8339e-06
-1.45287e-07
1.83318e-06
2.02978e-08
1.82218e-06
-2.90282e-07
1.82328e-06
-1.05842e-07
1.80901e-06
-2.92748e-07
1.80934e-06
-1.36548e-07
1.7962e-06
-2.2239e-07
1.79475e-06
-8.58276e-08
-1.14433e-07
1.78655e-06
1.90487e-06
5.62198e-09
1.92866e-06
1.13827e-06
1.90288e-06
-1.67065e-06
1.87239e-06
-2.18674e-06
1.84933e-06
-1.10387e-06
1.86644e-06
2.95485e-07
1.8796e-06
5.42089e-07
1.89904e-06
5.33648e-07
1.89945e-06
3.27352e-07
1.91413e-06
2.24338e-07
1.90519e-06
1.28117e-07
1.90256e-06
-1.42654e-07
1.90279e-06
2.00679e-08
1.89036e-06
-2.77856e-07
1.8923e-06
-1.07778e-07
1.87747e-06
-2.77919e-07
1.87773e-06
-1.36812e-07
1.86487e-06
-2.09531e-07
1.86332e-06
-8.42774e-08
-1.06656e-07
1.85555e-06
1.97697e-06
2.75511e-09
2.00166e-06
1.11357e-06
1.97479e-06
-1.64378e-06
1.94456e-06
-2.15651e-06
1.92151e-06
-1.08082e-06
1.93799e-06
2.79013e-07
1.95127e-06
5.2881e-07
1.97188e-06
5.13038e-07
1.97174e-06
3.2749e-07
1.98588e-06
2.10198e-07
1.97798e-06
1.36014e-07
1.97376e-06
-1.38436e-07
1.97511e-06
1.87231e-08
1.96159e-06
-2.64337e-07
1.96411e-06
-1.10303e-07
1.949e-06
-2.6281e-07
1.94901e-06
-1.36815e-07
1.93649e-06
-1.97014e-07
1.93476e-06
-8.25496e-08
-9.92428e-08
1.92735e-06
2.05171e-06
9.41773e-11
2.07744e-06
1.08785e-06
2.04948e-06
-1.61582e-06
2.01937e-06
-2.1264e-06
1.9965e-06
-1.05795e-06
2.01269e-06
2.6282e-07
2.02606e-06
5.15437e-07
2.04743e-06
4.91675e-07
2.04684e-06
3.28075e-07
2.06003e-06
1.97013e-07
2.05358e-06
1.42456e-07
2.04768e-06
-1.32528e-07
2.0502e-06
1.6201e-08
2.03597e-06
-2.50107e-07
2.0388e-06
-1.13139e-07
2.02367e-06
-2.47679e-07
2.02328e-06
-1.36423e-07
2.01114e-06
-1.84871e-07
2.00918e-06
-8.05911e-08
-9.21415e-08
2.00208e-06
2.1292e-06
-2.26289e-09
2.15604e-06
1.061e-06
2.12709e-06
-1.58687e-06
2.0969e-06
-2.09622e-06
2.07422e-06
-1.03527e-06
2.09035e-06
2.46693e-07
2.10372e-06
5.02067e-07
2.12548e-06
4.69916e-07
2.12473e-06
3.28826e-07
2.13656e-06
1.8518e-07
2.13198e-06
1.47039e-07
2.1245e-06
-1.25051e-07
2.12813e-06
1.25756e-08
2.11358e-06
-2.35557e-07
2.11646e-06
-1.1602e-07
2.10153e-06
-2.32751e-07
2.10064e-06
-1.35535e-07
2.0889e-06
-1.73128e-07
2.08667e-06
-7.83686e-08
-8.53033e-08
2.07984e-06
2.20955e-06
-4.23142e-09
2.23755e-06
1.033e-06
2.2077e-06
-1.55701e-06
2.17727e-06
-2.06579e-06
2.15475e-06
-1.01274e-06
2.17094e-06
2.30497e-07
2.18415e-06
4.88861e-07
2.20596e-06
4.48108e-07
2.20546e-06
3.29319e-07
2.21556e-06
1.75082e-07
2.21318e-06
1.49419e-07
2.20443e-06
-1.16304e-07
2.20899e-06
8.02252e-09
2.19447e-06
-2.21043e-07
2.19714e-06
-1.18684e-07
2.1826e-06
-2.18215e-07
2.18116e-06
-1.34092e-07
2.1698e-06
-1.61773e-07
2.16733e-06
-7.58946e-08
-7.86786e-08
2.1607e-06
2.29291e-06
-5.74936e-09
2.32204e-06
1.00387e-06
2.29142e-06
-1.52638e-06
2.26059e-06
-2.03496e-06
2.23819e-06
-9.90344e-07
2.25455e-06
2.14137e-07
2.26741e-06
4.76004e-07
2.28888e-06
4.26631e-07
2.28918e-06
3.29023e-07
2.29729e-06
1.6697e-07
2.29726e-06
1.49452e-07
2.28762e-06
-1.06671e-07
2.29287e-06
2.77449e-09
2.27873e-06
-2.06897e-07
2.28091e-06
-1.20867e-07
2.26691e-06
-2.04215e-07
2.26486e-06
-1.32043e-07
2.25384e-06
-1.50756e-07
2.25121e-06
-7.32658e-08
-7.22283e-08
2.24476e-06
2.37942e-06
-6.78418e-09
2.40961e-06
9.73677e-07
2.37833e-06
-1.4951e-06
2.347e-06
-2.00364e-06
2.3247e-06
-9.68045e-07
2.34131e-06
1.97531e-07
2.35367e-06
4.6364e-07
2.37438e-06
4.05918e-07
2.37601e-06
3.27393e-07
2.3821e-06
1.60885e-07
2.38434e-06
1.47211e-07
2.37423e-06
-9.65663e-08
2.37989e-06
-2.87713e-09
2.36639e-06
-1.93401e-07
2.36787e-06
-1.22351e-07
2.3545e-06
-1.90835e-07
2.35167e-06
-1.29213e-07
2.34081e-06
-1.39902e-07
2.33838e-06
-7.08352e-08
-6.59308e-08
2.33208e-06
2.46923e-06
-7.33681e-09
2.50037e-06
9.42539e-07
2.46852e-06
-1.46325e-06
2.43664e-06
-1.97176e-06
2.41442e-06
-9.45828e-07
2.43133e-06
1.80624e-07
2.44317e-06
4.51796e-07
2.46265e-06
3.8644e-07
2.46609e-06
3.2396e-07
2.47025e-06
1.56715e-07
2.47457e-06
1.42893e-07
2.46443e-06
-8.64195e-08
2.47014e-06
-8.59412e-09
2.45751e-06
-1.80768e-07
2.45809e-06
-1.22927e-07
2.44549e-06
-1.78242e-07
2.44109e-06
-1.24813e-07
2.43043e-06
-1.29243e-07
2.42889e-06
-6.92912e-08
-5.97622e-08
2.42272e-06
2.56251e-06
-7.44244e-09
2.59447e-06
9.10578e-07
2.5621e-06
-1.43088e-06
2.52966e-06
-1.93931e-06
2.5075e-06
-9.23667e-07
2.52469e-06
1.63425e-07
2.53619e-06
4.40304e-07
2.55395e-06
3.68671e-07
2.55953e-06
3.18382e-07
2.56201e-06
1.54237e-07
2.56814e-06
1.36767e-07
2.55829e-06
-7.65776e-08
2.5638e-06
-1.4097e-08
2.55211e-06
-1.69077e-07
2.55166e-06
-1.2248e-07
2.53995e-06
-1.66533e-07
2.53932e-06
-1.24184e-07
2.53121e-06
-1.21132e-07
2.52287e-06
-6.09541e-08
-5.36862e-08
2.5168e-06
2.6594e-06
-7.16735e-09
2.69207e-06
8.77914e-07
2.65917e-06
-1.39798e-06
2.62619e-06
-1.90633e-06
2.60405e-06
-9.01536e-07
2.62144e-06
1.46039e-07
2.63294e-06
4.28803e-07
2.64861e-06
3.53002e-07
2.6565e-06
3.10489e-07
2.65762e-06
1.53123e-07
2.66516e-06
1.29228e-07
2.65601e-06
-6.74323e-08
2.66094e-06
-1.90269e-08
2.65018e-06
-1.58319e-07
2.64938e-06
-1.21679e-07
2.636e-06
-1.53155e-07
2.63045e-06
-1.18634e-07
2.62099e-06
-1.11663e-07
2.62011e-06
-6.00825e-08
-4.79312e-08
2.61436e-06
2.76009e-06
-6.60212e-09
2.79336e-06
8.44645e-07
2.75986e-06
-1.36449e-06
2.72636e-06
-1.87283e-06
2.70423e-06
-8.79406e-07
2.72161e-06
1.28661e-07
2.73361e-06
4.16805e-07
2.747e-06
3.39615e-07
2.75712e-06
3.00363e-07
2.75738e-06
1.52864e-07
2.76566e-06
1.2095e-07
2.75785e-06
-5.96257e-08
2.76154e-06
-2.2717e-08
2.75216e-06
-1.48938e-07
2.75051e-06
-1.20027e-07
2.73666e-06
-1.39299e-07
2.72957e-06
-1.11548e-07
2.72042e-06
-1.02508e-07
2.72129e-06
-6.09566e-08
-4.21209e-08
2.71548e-06
2.86471e-06
-5.85132e-09
2.89851e-06
8.10843e-07
2.86433e-06
-1.3303e-06
2.83031e-06
-1.83882e-06
2.80821e-06
-8.57303e-07
2.82526e-06
1.11603e-07
2.83832e-06
4.0375e-07
2.84946e-06
3.28475e-07
2.86156e-06
2.88259e-07
2.86146e-06
1.52967e-07
2.86985e-06
1.12562e-07
2.86391e-06
-5.36876e-08
2.86566e-06
-2.44706e-08
2.85797e-06
-1.41248e-07
2.85671e-06
-1.18759e-07
2.85054e-06
-1.33134e-07
2.84783e-06
-1.08838e-07
2.84002e-06
-9.46959e-08
2.82676e-06
-4.76989e-08
-3.57553e-08
2.82039e-06
2.97341e-06
-5.01786e-09
3.00771e-06
7.76547e-07
2.97273e-06
-1.29532e-06
2.93814e-06
-1.80423e-06
2.91615e-06
-8.35317e-07
2.93253e-06
9.52291e-08
2.94715e-06
3.89121e-07
2.95627e-06
3.1936e-07
2.97e-06
2.74532e-07
2.96989e-06
1.53072e-07
2.97797e-06
1.04478e-07
2.97403e-06
-4.9745e-08
2.97394e-06
-2.43768e-08
2.96727e-06
-1.34577e-07
2.961e-06
-1.12492e-07
2.94937e-06
-1.21502e-07
2.93948e-06
-9.89492e-08
2.93098e-06
-8.62023e-08
2.9351e-06
-5.18107e-08
-2.9885e-08
2.92923e-06
3.08633e-06
-4.18829e-09
3.1211e-06
7.41775e-07
3.08525e-06
-1.25947e-06
3.04997e-06
-1.76895e-06
3.02829e-06
-8.1364e-07
3.04362e-06
7.99059e-08
3.06015e-06
3.72583e-07
3.06763e-06
3.1188e-07
3.08259e-06
2.59573e-07
3.08273e-06
1.52932e-07
3.09033e-06
9.68837e-08
3.08777e-06
-4.71876e-08
3.08702e-06
-2.36297e-08
3.08117e-06
-1.28719e-07
3.08005e-06
-1.11378e-07
3.07713e-06
-1.18577e-07
3.07335e-06
-9.51702e-08
3.06498e-06
-7.78388e-08
3.04845e-06
-3.52778e-08
-2.36803e-08
3.04225e-06
3.2036e-06
-3.42759e-09
3.23883e-06
7.06548e-07
3.2021e-06
-1.22274e-06
3.16592e-06
-1.73277e-06
3.14488e-06
-7.92596e-07
3.15879e-06
6.5998e-08
3.17747e-06
3.53896e-07
3.18364e-06
3.05712e-07
3.19951e-06
2.43702e-07
3.19993e-06
1.52512e-07
3.20742e-06
8.93961e-08
3.20443e-06
-4.4203e-08
3.2063e-06
-2.54985e-08
3.19768e-06
-1.20098e-07
3.19677e-06
-1.10466e-07
3.17793e-06
-9.97353e-08
3.16797e-06
-8.52121e-08
3.16087e-06
-7.07423e-08
3.1638e-06
-3.82011e-08
-1.95627e-08
3.15968e-06
3.32535e-06
-2.76386e-09
3.36101e-06
6.70886e-07
3.32347e-06
-1.1852e-06
3.28619e-06
-1.69549e-06
3.26607e-06
-7.72471e-07
3.27843e-06
5.36306e-08
3.299e-06
3.33325e-07
3.30474e-06
2.99979e-07
3.32044e-06
2.27996e-07
3.32235e-06
1.50605e-07
3.32826e-06
8.34916e-08
3.32665e-06
-4.26016e-08
3.32794e-06
-2.67814e-08
3.31346e-06
-1.0562e-07
3.30705e-06
-1.04054e-07
3.29739e-06
-9.00771e-08
3.28805e-06
-7.58741e-08
3.28053e-06
-6.3226e-08
3.28515e-06
-4.28139e-08
-1.57284e-08
3.28131e-06
3.45172e-06
-2.19953e-09
3.48776e-06
6.34841e-07
3.44959e-06
-1.14702e-06
3.41095e-06
-1.65686e-06
3.39201e-06
-7.53534e-07
3.40285e-06
4.27915e-08
3.4249e-06
3.11279e-07
3.43098e-06
2.9389e-07
3.44554e-06
2.1344e-07
3.4501e-06
1.46051e-07
3.45281e-06
8.07775e-08
3.4542e-06
-4.39908e-08
3.44985e-06
-2.24349e-08
3.45161e-06
-1.07381e-07
3.44922e-06
-1.01657e-07
3.44768e-06
-8.85367e-08
3.44392e-06
-7.2114e-08
3.43412e-06
-5.34324e-08
3.41329e-06
-2.19801e-08
-9.60849e-09
3.40717e-06
3.58287e-06
-1.72056e-09
3.6192e-06
5.98507e-07
3.58069e-06
-1.10851e-06
3.54028e-06
-1.61645e-06
3.52305e-06
-7.36304e-07
3.53204e-06
3.38053e-08
3.55571e-06
2.87608e-07
3.5617e-06
2.87901e-07
3.57624e-06
1.989e-07
3.5805e-06
1.41793e-07
3.58527e-06
7.60062e-08
3.58267e-06
-4.13898e-08
3.58268e-06
-2.24436e-08
3.56883e-06
-9.35333e-08
3.56189e-06
-9.47146e-08
3.55085e-06
-7.74959e-08
3.54227e-06
-6.35322e-08
3.53652e-06
-4.76894e-08
3.54093e-06
-2.63864e-08
-7.2139e-09
3.53853e-06
3.71895e-06
-1.28132e-09
3.75548e-06
5.61972e-07
3.71693e-06
-1.06996e-06
3.67459e-06
-1.57411e-06
3.65902e-06
-7.2074e-07
3.66664e-06
2.61893e-08
3.691e-06
2.63249e-07
3.6982e-06
2.807e-07
3.71095e-06
1.86145e-07
3.71706e-06
1.35688e-07
3.72105e-06
7.20141e-08
3.71927e-06
-3.96132e-08
3.72198e-06
-2.51524e-08
3.70367e-06
-7.52221e-08
3.69595e-06
-8.6996e-08
3.68537e-06
-6.69172e-08
3.67632e-06
-5.44839e-08
3.67045e-06
-4.1811e-08
3.67667e-06
-3.26059e-08
-4.90871e-09
3.67436e-06
3.86015e-06
-8.41381e-10
3.89676e-06
5.25359e-07
3.8585e-06
-1.03169e-06
3.81414e-06
-1.52975e-06
3.80004e-06
-7.06636e-07
3.80689e-06
1.93371e-08
3.83088e-06
2.39254e-07
3.84073e-06
2.70854e-07
3.84972e-06
1.77154e-07
3.86004e-06
1.25366e-07
3.85786e-06
7.42011e-08
3.86025e-06
-4.20101e-08
3.85304e-06
-1.79365e-08
3.86288e-06
-8.50655e-08
3.86069e-06
-8.48032e-08
3.86074e-06
-6.69649e-08
3.85731e-06
-5.1056e-08
3.84546e-06
-2.99582e-08
3.82164e-06
-8.78723e-09
2.17312e-09
3.81456e-06
4.0067e-06
-3.86542e-10
4.04319e-06
4.88872e-07
4.00572e-06
-9.94228e-07
3.95893e-06
-1.48296e-06
3.94679e-06
-6.94496e-07
3.95218e-06
1.39483e-08
3.97701e-06
2.14419e-07
3.98626e-06
2.61605e-07
3.99749e-06
1.65924e-07
4.00315e-06
1.19705e-07
4.01001e-06
6.73445e-08
4.00987e-06
-4.18686e-08
4.01217e-06
-2.02394e-08
3.9884e-06
-6.12903e-08
3.9796e-06
-7.60037e-08
3.96922e-06
-5.65856e-08
3.96172e-06
-4.35604e-08
3.95732e-06
-2.55565e-08
3.96237e-06
-1.3839e-08
2.75309e-09
3.96179e-06
4.15877e-06
1.29031e-10
4.19501e-06
4.52627e-07
4.15858e-06
-9.57792e-07
4.10968e-06
-1.43407e-06
4.09874e-06
-6.83555e-07
4.10373e-06
8.95511e-09
4.12785e-06
1.90299e-07
4.1386e-06
2.50859e-07
4.14904e-06
1.5548e-07
4.15407e-06
1.14683e-07
4.16194e-06
5.94734e-08
4.14934e-06
-2.9277e-08
4.14719e-06
-1.80802e-08
4.13708e-06
-5.11827e-08
4.13006e-06
-6.8986e-08
4.11993e-06
-4.64507e-08
4.11187e-06
-3.55064e-08
4.1076e-06
-2.12851e-08
4.11429e-06
-2.0531e-08
3.66227e-09
4.11338e-06
4.3166e-06
7.13497e-10
4.35245e-06
4.1678e-07
4.31721e-06
-9.22556e-07
4.26671e-06
-1.38357e-06
4.256e-06
-6.72842e-07
4.26191e-06
3.04136e-09
4.28313e-06
1.69089e-07
4.29841e-06
2.35577e-07
4.30356e-06
1.50327e-07
4.31381e-06
1.04429e-07
4.31055e-06
6.27336e-08
4.32358e-06
-4.22996e-08
4.32394e-06
-1.84427e-08
4.32379e-06
-5.10346e-08
4.32011e-06
-6.53007e-08
4.32287e-06
-4.9215e-08
4.31895e-06
-3.15846e-08
4.30562e-06
-7.95746e-09
4.27916e-06
5.92514e-09
1.35397e-08
4.26929e-06
4.48048e-06
1.3173e-09
4.51562e-06
3.81645e-07
4.48213e-06
-8.89065e-07
4.42954e-06
-1.33098e-06
4.42006e-06
-6.63362e-07
4.42483e-06
-1.72744e-09
4.44745e-06
1.46465e-07
4.45887e-06
2.24162e-07
4.47048e-06
1.38714e-07
4.47296e-06
1.01956e-07
4.48253e-06
5.31561e-08
4.46898e-06
-2.87491e-08
4.46614e-06
-1.56024e-08
4.45494e-06
-3.98326e-08
4.44821e-06
-5.85696e-08
4.43794e-06
-3.89432e-08
4.43225e-06
-2.58949e-08
4.42899e-06
-4.69807e-09
4.43421e-06
6.99887e-10
1.34496e-08
4.4343e-06
4.65055e-06
1.97181e-09
4.68493e-06
3.47267e-07
4.65293e-06
-8.57068e-07
4.59938e-06
-1.27743e-06
4.58937e-06
-6.5335e-07
4.59554e-06
-7.90017e-09
4.61541e-06
1.26597e-07
4.62878e-06
2.10789e-07
4.63956e-06
1.27934e-07
4.63953e-06
1.01982e-07
4.64536e-06
4.73273e-08
4.63584e-06
-1.92241e-08
4.6347e-06
-1.44649e-08
4.62357e-06
-2.8706e-08
4.61682e-06
-5.18183e-08
4.60676e-06
-2.88867e-08
4.60057e-06
-1.97033e-08
4.59783e-06
-1.95627e-09
4.60426e-06
-5.73321e-09
1.41952e-08
4.60352e-06
4.82711e-06
2.64459e-09
4.86063e-06
3.13752e-07
4.82987e-06
-8.26306e-07
4.7764e-06
-1.22396e-06
4.76393e-06
-6.4088e-07
4.7759e-06
-1.98677e-08
4.78657e-06
1.15923e-07
4.80919e-06
1.88173e-07
4.80885e-06
1.28271e-07
4.8235e-06
8.73359e-08
4.81909e-06
5.17353e-08
4.83463e-06
-3.47622e-08
4.83679e-06
-1.66237e-08
4.83918e-06
-3.11014e-08
4.83512e-06
-4.77541e-08
4.84029e-06
-3.40535e-08
4.83429e-06
-1.37027e-08
4.82217e-06
1.01591e-08
4.79123e-06
2.52102e-08
2.83727e-08
4.77705e-06
5.01047e-06
3.24372e-09
5.04267e-06
2.81557e-07
5.01379e-06
-7.97432e-07
4.95937e-06
-1.16953e-06
4.94769e-06
-6.29201e-07
4.95692e-06
-2.90988e-08
4.97165e-06
1.01187e-07
4.98793e-06
1.71895e-07
4.99244e-06
1.23763e-07
4.997e-06
8.27791e-08
4.99826e-06
5.04696e-08
4.99174e-06
-2.82361e-08
4.98926e-06
-1.41501e-08
4.98195e-06
-2.3784e-08
4.97302e-06
-3.88309e-08
4.96582e-06
-2.68467e-08
4.95774e-06
-5.62342e-09
4.9584e-06
9.49867e-09
4.96263e-06
2.09763e-08
2.87312e-08
4.96227e-06
5.20072e-06
3.83972e-09
5.23179e-06
2.50481e-07
5.2041e-06
-7.69734e-07
5.15015e-06
-1.11558e-06
5.13752e-06
-6.16574e-07
5.14593e-06
-3.75128e-08
5.16361e-06
8.35126e-08
5.17382e-06
1.61688e-07
5.1847e-06
1.12879e-07
5.18346e-06
8.40136e-08
5.18656e-06
4.73765e-08
5.17924e-06
-2.0915e-08
5.17878e-06
-1.36955e-08
5.16974e-06
-1.47409e-08
5.16249e-06
-3.15836e-08
5.15499e-06
-1.93465e-08
5.15519e-06
-5.82502e-09
5.15021e-06
1.44781e-08
5.15127e-06
1.99208e-08
2.78948e-08
5.15211e-06
5.39823e-06
4.3863e-09
5.42814e-06
2.20573e-07
5.40129e-06
-7.42888e-07
5.349e-06
-1.0633e-06
5.33314e-06
-6.0071e-07
5.34438e-06
-4.87522e-08
5.35849e-06
6.93989e-08
5.37083e-06
1.49354e-07
5.37636e-06
1.07343e-07
5.37928e-06
8.10955e-08
5.38012e-06
4.65325e-08
5.37568e-06
-1.64752e-08
5.37325e-06
-1.12617e-08
5.36654e-06
-8.03464e-09
5.35834e-06
-2.33802e-08
5.35411e-06
-1.51187e-08
5.35244e-06
-4.14974e-09
5.34989e-06
1.70213e-08
5.34882e-06
2.09966e-08
2.80442e-08
5.34867e-06
5.60329e-06
4.83908e-09
5.63186e-06
1.91995e-07
5.60593e-06
-7.16952e-07
5.55557e-06
-1.01294e-06
5.53722e-06
-5.82365e-07
5.54858e-06
-6.01076e-08
5.56174e-06
5.62373e-08
5.5744e-06
1.36693e-07
5.57879e-06
1.02958e-07
5.58218e-06
7.77058e-08
5.58227e-06
4.64372e-08
5.57884e-06
-1.30444e-08
5.57597e-06
-8.39192e-09
5.57074e-06
-2.80691e-09
5.56252e-06
-1.51533e-08
5.55876e-06
-1.13663e-08
5.55476e-06
-1.47263e-10
5.55289e-06
1.88933e-08
5.55324e-06
2.06438e-08
2.85009e-08
5.55278e-06
5.81608e-06
5.23869e-09
5.84359e-06
1.64483e-07
5.81803e-06
-6.91385e-07
5.77093e-06
-9.65836e-07
5.74928e-06
-5.60723e-07
5.76057e-06
-7.13976e-08
5.77212e-06
4.46953e-08
5.78549e-06
1.23316e-07
5.78935e-06
9.90999e-08
5.79292e-06
7.41326e-08
5.79234e-06
4.70215e-08
5.78981e-06
-1.0516e-08
5.78657e-06
-5.14791e-09
5.78228e-06
1.48503e-09
5.77474e-06
-7.62212e-09
5.7705e-06
-7.12103e-09
5.76861e-06
1.74434e-09
5.76872e-06
1.87804e-08
5.76575e-06
2.36098e-08
2.97129e-08
5.76454e-06
6.03698e-06
5.55705e-09
6.0634e-06
1.38065e-07
6.03814e-06
-6.66124e-07
5.99388e-06
-9.21575e-07
5.97019e-06
-5.37042e-07
5.98003e-06
-8.12316e-08
5.9906e-06
3.41223e-08
6.0042e-06
1.0972e-07
6.00821e-06
9.50885e-08
6.0117e-06
7.06404e-08
6.01086e-06
4.78636e-08
6.00861e-06
-8.26373e-09
6.00525e-06
-1.79503e-09
6.00191e-06
4.82971e-09
5.99531e-06
-1.01979e-09
5.98997e-06
-1.78071e-09
5.98713e-06
4.58317e-09
5.98477e-06
2.1134e-08
5.98557e-06
2.28155e-08
3.00816e-08
5.9852e-06
6.26627e-06
5.78496e-09
6.2916e-06
1.12734e-07
6.26662e-06
-6.41141e-07
6.2244e-06
-8.79355e-07
6.20004e-06
-5.12677e-07
6.2079e-06
-8.90922e-08
6.21773e-06
2.42905e-08
6.23112e-06
9.63334e-08
6.23552e-06
9.06801e-08
6.23894e-06
6.72264e-08
6.23794e-06
4.88611e-08
6.2355e-06
-5.82225e-09
6.23274e-06
9.67771e-10
6.22979e-06
7.77496e-09
6.22373e-06
5.04558e-09
6.21842e-06
3.52373e-09
6.21787e-06
5.13284e-09
6.21753e-06
2.14746e-08
6.21498e-06
2.53622e-08
3.14774e-08
6.21359e-06
6.50428e-06
5.90882e-09
6.52847e-06
8.85475e-08
6.50389e-06
-6.16568e-07
6.46311e-06
-8.38575e-07
6.43911e-06
-4.88677e-07
6.44488e-06
-9.48557e-08
6.45393e-06
1.52378e-08
6.46664e-06
8.36189e-08
6.4716e-06
8.57228e-08
6.47487e-06
6.39608e-08
6.47383e-06
4.98982e-08
6.47124e-06
-3.23222e-09
6.46907e-06
3.13691e-09
6.46578e-06
1.1068e-08
6.46122e-06
9.60138e-09
6.45572e-06
9.02131e-09
6.45262e-06
8.23634e-09
6.45057e-06
2.35249e-08
6.45171e-06
2.42262e-08
3.17069e-08
6.45148e-06
6.75134e-06
5.90435e-09
6.77426e-06
6.56326e-08
6.75032e-06
-5.9263e-07
6.71055e-06
-7.98801e-07
6.68773e-06
-4.65859e-07
6.69167e-06
-9.87992e-08
6.6995e-06
7.41262e-09
6.71135e-06
7.17685e-08
6.71668e-06
8.03944e-08
6.71987e-06
6.07651e-08
6.71897e-06
5.07958e-08
6.71586e-06
-1.206e-10
6.71437e-06
4.63207e-09
6.71109e-06
1.43432e-08
6.70746e-06
1.32309e-08
6.70201e-06
1.447e-08
6.7009e-06
9.35179e-09
6.70072e-06
2.37032e-08
6.69866e-06
2.62853e-08
3.25971e-08
6.69777e-06
7.00779e-06
5.76272e-09
7.02925e-06
4.41732e-08
7.00635e-06
-5.69731e-07
6.96715e-06
-7.59601e-07
6.94611e-06
-4.44818e-07
6.94841e-06
-1.01098e-07
6.9548e-06
1.02632e-09
6.96556e-06
6.1003e-08
6.97105e-06
7.4906e-08
6.9742e-06
5.76204e-08
6.97353e-06
5.14573e-08
6.97003e-06
3.38386e-09
6.96911e-06
5.55287e-09
6.96571e-06
1.77424e-08
6.96295e-06
1.59879e-08
6.95797e-06
1.94577e-08
6.95453e-06
1.27904e-08
6.95286e-06
2.53688e-08
6.95383e-06
2.53167e-08
3.23287e-08
6.9541e-06
7.27401e-06
5.44654e-09
7.2937e-06
2.44809e-08
7.27223e-06
-5.48261e-07
7.23348e-06
-7.20851e-07
7.21627e-06
-4.27609e-07
7.21553e-06
-1.00357e-07
7.22015e-06
-3.59621e-09
7.22978e-06
5.13688e-08
7.23512e-06
6.95687e-08
7.23824e-06
5.45059e-08
7.23821e-06
5.1488e-08
7.2339e-06
7.69352e-09
7.23348e-06
5.97266e-09
7.23032e-06
2.08939e-08
7.2279e-06
1.84092e-08
7.22354e-06
2.38194e-08
7.22151e-06
1.48171e-08
7.22138e-06
2.55078e-08
7.21972e-06
2.69759e-08
3.25066e-08
7.21954e-06
7.55031e-06
4.96286e-09
7.56827e-06
6.52965e-09
7.54796e-06
-5.27951e-07
7.51025e-06
-6.83145e-07
7.49662e-06
-4.13981e-07
7.49186e-06
-9.55954e-08
7.49608e-06
-7.81756e-09
7.50435e-06
4.31018e-08
7.50928e-06
6.46379e-08
7.51228e-06
5.15021e-08
7.51291e-06
5.08578e-08
7.50814e-06
1.24709e-08
7.50785e-06
6.26016e-09
7.50508e-06
2.36652e-08
7.5029e-06
2.05826e-08
7.49938e-06
2.73474e-08
7.49556e-06
1.86338e-08
7.4942e-06
2.68652e-08
7.49483e-06
2.63501e-08
3.17805e-08
7.49555e-06
7.83702e-06
4.39332e-09
7.85401e-06
-1.04522e-08
7.83339e-06
-5.0733e-07
7.79781e-06
-6.47564e-07
7.77321e-06
-3.89384e-07
7.77638e-06
-9.87726e-08
7.78329e-06
-1.4723e-08
7.78964e-06
3.67537e-08
7.79401e-06
6.0267e-08
7.79682e-06
4.86904e-08
7.7982e-06
4.94746e-08
7.79301e-06
1.76623e-08
7.79255e-06
6.72768e-09
7.79052e-06
2.5689e-08
7.78817e-06
2.29326e-08
7.78542e-06
3.00982e-08
7.78291e-06
2.11471e-08
7.78276e-06
2.70106e-08
7.78126e-06
2.78508e-08
3.15618e-08
7.78148e-06
8.13467e-06
3.67923e-09
8.15025e-06
-2.60282e-08
8.12887e-06
-4.85954e-07
8.09844e-06
-6.17134e-07
8.08421e-06
-3.75151e-07
8.09374e-06
-1.08306e-07
8.08581e-06
-6.79168e-09
8.08538e-06
3.71835e-08
8.08974e-06
5.59119e-08
8.09225e-06
4.61772e-08
8.09428e-06
4.74482e-08
8.08919e-06
2.275e-08
8.08821e-06
7.7108e-09
8.08685e-06
2.70456e-08
8.0846e-06
2.51852e-08
8.08257e-06
3.2129e-08
8.07887e-06
2.48448e-08
8.07762e-06
2.82578e-08
8.07796e-06
2.75147e-08
3.06882e-08
8.07883e-06
8.4437e-06
2.74376e-09
8.45639e-06
-3.87204e-08
8.43867e-06
-4.68238e-07
8.40549e-06
-5.83956e-07
8.38907e-06
-3.58727e-07
8.38535e-06
-1.04581e-07
8.38847e-06
-9.91321e-09
8.39314e-06
3.25127e-08
8.39726e-06
5.1788e-08
8.39909e-06
4.43457e-08
8.40163e-06
4.49103e-08
8.39686e-06
2.75233e-08
8.39503e-06
9.53388e-09
8.39447e-06
2.76089e-08
8.3921e-06
2.7561e-08
8.39062e-06
3.36037e-08
8.38814e-06