/*--------------------------------*- C++ -*----------------------------------*\
| =========                 |                                                 |
| \\      /  F ield         | OpenFOAM: The Open Source CFD Toolbox           |
|  \\    /   O peration     | Version:  v2012                                 |
|   \\  /    A nd           | Website:  www.openfoam.com                      |
|    \\/     M anipulation  |                                                 |
\*---------------------------------------------------------------------------*/
FoamFile
{
    version     2.0;
    format      ascii;
    class       volVectorField;
    location    "9.1";
    object      U;
}
// * * * * * * * * * * * * * * * * * * * * * * * * * * * * * * * * * * * * * //

dimensions      [0 1 -1 0 0 0 0];


internalField   nonuniform List<vector> 
7000
(
(0.896398 -5.97737e-05 0)
(1.09298 0.0109636 0)
(0.809459 -0.0196374 0)
(1.13288 -0.0230122 0)
(1.02746 -0.0108179 0)
(1.16609 0.00634232 0)
(0.889733 0.00961839 0)
(1.13546 0.0137905 0)
(0.960106 0.00252468 0)
(1.06181 0.00797141 0)
(1.00466 -0.00281542 0)
(1.04645 -0.00393051 0)
(1.00245 -0.00328245 0)
(1.03982 -0.0168271 0)
(0.961884 -0.00879831 0)
(1.04729 -0.0230284 0)
(0.913126 -0.0130379 0)
(1.05927 -0.0251342 0)
(0.867806 -0.0133098 0)
(1.06843 -0.0237607 0)
(0.90356 -7.39273e-05 0)
(1.08326 0.0114099 0)
(0.843456 -0.0200582 0)
(1.11122 -0.0243203 0)
(1.03014 -0.0112293 0)
(1.1581 0.00734352 0)
(0.905095 0.00980877 0)
(1.11905 0.0133055 0)
(0.9828 0.00324904 0)
(1.04636 0.00757067 0)
(1.02498 -0.00258368 0)
(1.02749 -0.00394732 0)
(1.02819 -0.00311319 0)
(1.00824 -0.0160442 0)
(1.00108 -0.00893033 0)
(0.998247 -0.0219019 0)
(0.972153 -0.0131631 0)
(0.992318 -0.0242815 0)
(0.9472 -0.0126957 0)
(0.985196 -0.0238318 0)
(0.917101 -4.93249e-05 0)
(1.066 0.0118079 0)
(0.878639 -0.0203009 0)
(1.07997 -0.0252151 0)
(1.03608 -0.0116216 0)
(1.13992 0.0084596 0)
(0.936292 0.00999472 0)
(1.09089 0.0127087 0)
(1.01022 0.0039228 0)
(1.03062 0.0070835 0)
(1.03715 -0.00229265 0)
(1.01643 -0.00407678 0)
(1.03644 -0.00264907 0)
(0.99865 -0.0157123 0)
(1.01288 -0.00854468 0)
(0.986595 -0.0214281 0)
(0.992343 -0.0129454 0)
(0.97634 -0.0235907 0)
(0.975529 -0.0126562 0)
(0.966638 -0.0222867 0)
(0.934644 3.82865e-06 0)
(1.04528 0.0120299 0)
(0.911909 -0.0204414 0)
(1.0452 -0.0260181 0)
(1.04236 -0.0120461 0)
(1.11479 0.00922872 0)
(0.972478 0.0102875 0)
(1.06435 0.0121527 0)
(1.02871 0.00441609 0)
(1.02364 0.00680688 0)
(1.03846 -0.00204291 0)
(1.01472 -0.00415695 0)
(1.03333 -0.00222409 0)
(1.00054 -0.0154281 0)
(1.01112 -0.00804901 0)
(0.9888 -0.0212164 0)
(0.993733 -0.0122787 0)
(0.97665 -0.0234744 0)
(0.979789 -0.0119582 0)
(0.965656 -0.0213132 0)
(0.953171 7.46939e-05 0)
(1.02569 0.0121519 0)
(0.940312 -0.0204583 0)
(1.01383 -0.0267263 0)
(1.04465 -0.0125182 0)
(1.08912 0.00967301 0)
(1.00303 0.0106519 0)
(1.04801 0.0117238 0)
(1.03726 0.0047585 0)
(1.02378 0.00672307 0)
(1.03558 -0.00182587 0)
(1.01627 -0.00417168 0)
(1.02853 -0.00186211 0)
(1.00455 -0.0151028 0)
(1.00721 -0.0076423 0)
(0.993746 -0.0209381 0)
(0.990788 -0.0116569 0)
(0.980777 -0.0233388 0)
(0.977612 -0.0111266 0)
(0.968985 -0.0205714 0)
(0.969964 0.000155018 0)
(1.0108 0.0122216 0)
(0.962829 -0.0203806 0)
(0.99086 -0.0273216 0)
(1.04055 -0.0130265 0)
(1.06786 0.00989135 0)
(1.02392 0.0109648 0)
(1.04204 0.0114656 0)
(1.04027 0.00499494 0)
(1.02655 0.00674159 0)
(1.03275 -0.00159401 0)
(1.01741 -0.00416664 0)
(1.02529 -0.00152989 0)
(1.00729 -0.0147806 0)
(1.00485 -0.00726741 0)
(0.9973 -0.0206287 0)
(0.988875 -0.0110952 0)
(0.983867 -0.023085 0)
(0.97587 -0.0103632 0)
(0.971602 -0.0198753 0)
(0.983219 0.000230576 0)
(1.00218 0.0122528 0)
(0.979994 -0.0202362 0)
(0.977579 -0.0277745 0)
(1.03082 -0.0135447 0)
(1.05223 0.0099158 0)
(1.03627 0.0111627 0)
(1.04216 0.0113435 0)
(1.04126 0.00518775 0)
(1.02902 0.00681022 0)
(1.03083 -0.0013155 0)
(1.0172 -0.00416397 0)
(1.02326 -0.00121816 0)
(1.00844 -0.0144658 0)
(1.00391 -0.00690281 0)
(0.999099 -0.0203124 0)
(0.988536 -0.0105417 0)
(0.985434 -0.0227313 0)
(0.975762 -0.00969275 0)
(0.973005 -0.0191349 0)
(0.992264 0.000286565 0)
(0.999277 0.0122522 0)
(0.992988 -0.0200488 0)
(0.972201 -0.0280701 0)
(1.01846 -0.0140523 0)
(1.04073 0.00974895 0)
(1.04272 0.0112394 0)
(1.04392 0.0113007 0)
(1.04137 0.00538894 0)
(1.03007 0.00690747 0)
(1.02923 -0.000979295 0)
(1.01587 -0.00416865 0)
(1.0214 -0.000921329 0)
(1.00854 -0.0141647 0)
(1.00341 -0.00655071 0)
(0.999786 -0.019989 0)
(0.988929 -0.00999203 0)
(0.986157 -0.0223078 0)
(0.976591 -0.00909805 0)
(0.973858 -0.0183388 0)
(0.997443 0.000315109 0)
(1.00018 0.0122204 0)
(1.00288 -0.0198325 0)
(0.971718 -0.0282143 0)
(1.00657 -0.0145279 0)
(1.03131 0.009409 0)
(1.04526 0.0112109 0)
(1.04447 0.0113006 0)
(1.04028 0.00561818 0)
(1.02947 0.00702116 0)
(1.02727 -0.000590011 0)
(1.0138 -0.00417893 0)
(1.0191 -0.000641267 0)
(1.00806 -0.0138868 0)
(1.00275 -0.006213 0)
(0.999868 -0.0196553 0)
(0.989376 -0.00947031 0)
(0.986543 -0.0218212 0)
(0.977632 -0.00856501 0)
(0.974611 -0.0174995 0)
(0.999727 0.000316759 0)
(1.00264 0.0121542 0)
(1.0103 -0.0195954 0)
(0.973547 -0.0282262 0)
(0.996945 -0.0149471 0)
(1.0226 0.00893334 0)
(1.04479 0.0111017 0)
(1.04253 0.0113262 0)
(1.03744 0.00587176 0)
(1.02727 0.00713779 0)
(1.02465 -0.0001624 0)
(1.01133 -0.00419311 0)
(1.01627 -0.000384945 0)
(1.00727 -0.0136375 0)
(1.00176 -0.00589286 0)
(0.999559 -0.0193098 0)
(0.989635 -0.00899905 0)
(0.986749 -0.0212671 0)
(0.978563 -0.00809316 0)
(0.975354 -0.0166352 0)
(1.00025 0.000298224 0)
(1.00497 0.0120515 0)
(1.01554 -0.0193437 0)
(0.976182 -0.0281279 0)
(0.989798 -0.0152906 0)
(1.01399 0.00836865 0)
(1.04153 0.0109383 0)
(1.03788 0.0113684 0)
(1.03271 0.00613471 0)
(1.02375 0.00723751 0)
(1.02147 0.000283448 0)
(1.00874 -0.004213 0)
(1.01315 -0.000158713 0)
(1.00629 -0.0134179 0)
(1.00054 -0.00559566 0)
(0.998926 -0.0189482 0)
(0.989714 -0.00859248 0)
(0.986764 -0.0206453 0)
(0.979327 -0.00768676 0)
(0.976026 -0.0157613 0)
(0.999939 0.000268602 0)
(1.0064 0.0119148 0)
(1.01875 -0.0190852 0)
(0.978995 -0.0279412 0)
(0.984532 -0.0155439 0)
(1.00523 0.00776372 0)
(1.03554 0.0107453 0)
(1.03091 0.0114158 0)
(1.02645 0.0063865 0)
(1.01939 0.00729652 0)
(1.01806 0.000727146 0)
(1.0063 -0.0042422 0)
(1.01002 3.43718e-05 0)
(1.00521 -0.0132237 0)
(0.999228 -0.00532741 0)
(0.998021 -0.0185631 0)
(0.989677 -0.00825894 0)
(0.986562 -0.0199615 0)
(0.979946 -0.00734601 0)
(0.976565 -0.0148892 0)
(0.999355 0.000235866 0)
(1.00694 0.0117513 0)
(1.02018 -0.0188282 0)
(0.981773 -0.0276873 0)
(0.980528 -0.015694 0)
(0.996418 0.00716353 0)
(1.02723 0.0105409 0)
(1.02253 0.0114503 0)
(1.01945 0.00660521 0)
(1.01482 0.00729298 0)
(1.01481 0.0011508 0)
(1.00423 -0.00428241 0)
(1.00718 0.000194748 0)
(1.00409 -0.013045 0)
(0.997957 -0.00509346 0)
(0.996916 -0.0181464 0)
(0.989569 -0.00800118 0)
(0.986156 -0.0192241 0)
(0.980437 -0.00706548 0)
(0.97695 -0.014028 0)
(0.998742 0.000204802 0)
(1.007 0.0115701 0)
(1.02024 -0.0185787 0)
(0.984387 -0.0273861 0)
(0.977506 -0.0157358 0)
(0.988029 0.0066027 0)
(1.01756 0.0103343 0)
(1.01395 0.0114488 0)
(1.01264 0.00677253 0)
(1.01064 0.00721246 0)
(1.01205 0.00154324 0)
(1.00266 -0.00433203 0)
(1.00479 0.000320859 0)
(1.00298 -0.0128681 0)
(0.996815 -0.00489819 0)
(0.995701 -0.0176903 0)
(0.989407 -0.00781735 0)
(0.9856 -0.0184438 0)
(0.980805 -0.0068357 0)
(0.977201 -0.0131856 0)
(0.998159 0.000176966 0)
(1.00699 0.0113791 0)
(1.01944 -0.0183381 0)
(0.986693 -0.0270546 0)
(0.975426 -0.0156746 0)
(0.980868 0.0061023 0)
(1.00789 0.0101273 0)
(1.00638 0.0113896 0)
(1.00682 0.00688045 0)
(1.00731 0.00705106 0)
(1.00995 0.00190211 0)
(1.00161 -0.00438592 0)
(1.00296 0.000430022 0)
(1.00189 -0.0126747 0)
(0.995858 -0.00474541 0)
(0.99447 -0.017187 0)
(0.989195 -0.00770068 0)
(0.984974 -0.0176355 0)
(0.981054 -0.00664687 0)
(0.977359 -0.0123684 0)
(0.997616 0.0001518 0)
(1.00713 0.0111832 0)
(1.01825 -0.0181042 0)
(0.988567 -0.0267055 0)
(0.974268 -0.0155243 0)
(0.975652 0.00566993 0)
(0.99948 0.00991918 0)
(1.00069 0.0112601 0)
(1.00247 0.00693375 0)
(1.00496 0.00681605 0)
(1.00852 0.00223044 0)
(1.00099 -0.00443503 0)
(1.00166 0.000529558 0)
(1.00083 -0.0124448 0)
(0.995117 -0.00464025 0)
(0.993311 -0.0166316 0)
(0.988952 -0.00763667 0)
(0.984367 -0.0168147 0)
(0.981202 -0.00649295 0)
(0.977477 -0.0115827 0)
(0.997133 0.000127934 0)
(1.00742 0.0109846 0)
(1.01701 -0.0178714 0)
(0.989961 -0.0263493 0)
(0.973911 -0.0153063 0)
(0.972634 0.0053013 0)
(0.993092 0.00970855 0)
(0.997141 0.0110601 0)
(0.999646 0.00694446 0)
(1.00352 0.00652541 0)
(1.00765 0.00253535 0)
(1.00068 -0.00446954 0)
(1.00082 0.00060841 0)
(0.999815 -0.0121607 0)
(0.994605 -0.00458707 0)
(0.992295 -0.0160265 0)
(0.988713 -0.00760738 0)
(0.983857 -0.0159894 0)
(0.981287 -0.00636824 0)
(0.977606 -0.0108349 0)
(0.996749 0.00010427 0)
(1.00775 0.0107831 0)
(1.01594 -0.0176341 0)
(0.9909 -0.025993 0)
(0.974149 -0.0150446 0)
(0.971536 0.00498394 0)
(0.988849 0.00949594 0)
(0.995471 0.0107965 0)
(0.998114 0.00693302 0)
(1.00274 0.00619504 0)
(1.00715 0.00282112 0)
(1.00053 -0.00448303 0)
(1.00033 0.000666212 0)
(0.998865 -0.0118114 0)
(0.994322 -0.0045833 0)
(0.991473 -0.0153804 0)
(0.988529 -0.00760172 0)
(0.983501 -0.0151607 0)
(0.981359 -0.00625964 0)
(0.97779 -0.0101282 0)
(0.996494 8.03367e-05 0)
(1.008 0.0105777 0)
(1.01513 -0.0173889 0)
(0.991466 -0.0256392 0)
(0.974759 -0.0147585 0)
(0.971762 0.00470274 0)
(0.986405 0.0092825 0)
(0.995136 0.0104822 0)
(0.997484 0.0069151 0)
(1.00236 0.00584353 0)
(1.00688 0.00309259 0)
(1.00043 -0.00446323 0)
(1.00009 0.000697478 0)
(0.998014 -0.0113984 0)
(0.994255 -0.00462035 0)
(0.990869 -0.0146998 0)
(0.988458 -0.00761663 0)
(0.983332 -0.0143364 0)
(0.981476 -0.00614756 0)
(0.978059 -0.00945844 0)
(0.996376 5.63172e-05 0)
(1.00807 0.0103668 0)
(1.01458 -0.0171331 0)
(0.991761 -0.025289 0)
(0.975551 -0.0144616 0)
(0.972698 0.00444435 0)
(0.985227 0.00906714 0)
(0.995548 0.0101326 0)
(0.997376 0.00690162 0)
(1.00214 0.00548625 0)
(1.00669 0.00334543 0)
(1.00031 -0.00439577 0)
(1.00001 0.000699129 0)
(0.99729 -0.010932 0)
(0.994382 -0.00469148 0)
(0.990485 -0.0139823 0)
(0.988539 -0.00763998 0)
(0.983359 -0.0135406 0)
(0.981683 -0.00602669 0)
(0.978428 -0.00881627 0)
(0.996377 3.27972e-05 0)
(1.00797 0.0101486 0)
(1.01424 -0.0168656 0)
(0.991884 -0.0249419 0)
(0.976387 -0.0141626 0)
(0.973898 0.00419958 0)
(0.98481 0.00884926 0)
(0.996236 0.00975546 0)
(0.997499 0.00690235 0)
(1.00192 0.00513808 0)
(1.00651 0.00357012 0)
(1.00015 -0.00427693 0)
(1.00003 0.000665665 0)
(0.996712 -0.010422 0)
(0.994667 -0.00479834 0)
(0.990309 -0.0132346 0)
(0.988784 -0.00763428 0)
(0.983573 -0.0127794 0)
(0.982014 -0.00591708 0)
(0.978903 -0.0082044 0)
(0.996466 1.05537e-05 0)
(1.00771 0.0099218 0)
(1.01407 -0.0165866 0)
(0.991924 -0.0245964 0)
(0.97717 -0.0138648 0)
(0.975116 0.00396053 0)
(0.984788 0.00863118 0)
(0.996884 0.0093589 0)
(0.997666 0.00691276 0)
(1.0016 0.0048142 0)
(1.00629 0.00376277 0)
(0.999926 -0.00411035 0)
(1.00009 0.000592098 0)
(0.99629 -0.00987039 0)
(0.995062 -0.00493551 0)
(0.990322 -0.0125051 0)
(0.989172 -0.00757978 0)
(0.983946 -0.0120089 0)
(0.98247 -0.0058131 0)
(0.979479 -0.00763398 0)
(0.996605 -9.65229e-06 0)
(1.00734 0.00968539 0)
(1.01397 -0.0162967 0)
(0.991951 -0.0242509 0)
(0.977838 -0.0135687 0)
(0.976259 0.00372267 0)
(0.984936 0.0084116 0)
(0.997306 0.00895399 0)
(0.997775 0.00693083 0)
(1.00114 0.00451356 0)
(1.006 0.00390969 0)
(0.999675 -0.00389457 0)
(1.00017 0.000478341 0)
(0.996027 -0.00929225 0)
(0.995513 -0.00505539 0)
(0.990502 -0.0118245 0)
(0.98967 -0.00753287 0)
(0.984445 -0.0112237 0)
(0.983029 -0.0056676 0)
(0.980139 -0.00708764 0)
(0.996765 -2.7083e-05 0)
(1.0069 0.00943851 0)
(1.01389 -0.0159962 0)
(0.992016 -0.023904 0)
(0.978362 -0.0132748 0)
(0.97732 0.00348637 0)
(0.985148 0.00819076 0)
(0.99742 0.00854349 0)
(0.997786 0.00695198 0)
(1.00055 0.00425071 0)
(1.00563 0.00399248 0)
(0.99943 -0.00363268 0)
(1.00024 0.000339366 0)
(0.995927 -0.00873679 0)
(0.995965 -0.00513309 0)
(0.990817 -0.0111225 0)
(0.990231 -0.00750987 0)
(0.985049 -0.0104975 0)
(0.983655 -0.00548665 0)
(0.980858 -0.0065407 0)
(0.996923 -4.09535e-05 0)
(1.00643 0.00918058 0)
(1.01375 -0.0156872 0)
(0.992147 -0.0235531 0)
(0.978739 -0.0129831 0)
(0.978317 0.00324663 0)
(0.985395 0.00798198 0)
(0.997219 0.00813058 0)
(0.997699 0.00695304 0)
(0.999867 0.0040453 0)
(1.00519 0.00401455 0)
(0.999229 -0.00334534 0)
(1.00027 0.000172912 0)
(0.995984 -0.00820394 0)
(0.996385 -0.00523552 0)
(0.991236 -0.0103931 0)
(0.990794 -0.00741728 0)
(0.985724 -0.00981169 0)
(0.984318 -0.00530948 0)
(0.981613 -0.00601385 0)
(0.997068 -5.10458e-05 0)
(1.00598 0.00891311 0)
(1.01353 -0.0153726 0)
(0.992352 -0.0231966 0)
(0.978992 -0.0126908 0)
(0.979264 0.0029991 0)
(0.985685 0.00777568 0)
(0.996745 0.00774267 0)
(0.997531 0.00692397 0)
(0.999146 0.0038836 0)
(1.00471 0.0039834 0)
(0.999107 -0.00303002 0)
(1.00025 -4.14755e-05 0)
(0.996183 -0.00764812 0)
(0.99674 -0.00532348 0)
(0.991744 -0.00973607 0)
(0.991323 -0.00728676 0)
(0.986433 -0.00911672 0)
(0.984973 -0.00509756 0)
(0.982379 -0.00550602 0)
(0.997193 -5.76768e-05 0)
(1.00558 0.00863728 0)
(1.0132 -0.0150511 0)
(0.99262 -0.0228332 0)
(0.97916 -0.0124041 0)
(0.980151 0.00276213 0)
(0.986037 0.0075616 0)
(0.996082 0.00737156 0)
(0.997304 0.00687352 0)
(0.99846 0.00377482 0)
(1.0042 0.00387179 0)
(0.999086 -0.00270066 0)
(1.00018 -0.000256281 0)
(0.996506 -0.00718131 0)
(0.997009 -0.00531751 0)
(0.992303 -0.0090844 0)
(0.991796 -0.00713963 0)
(0.987159 -0.00849403 0)
(0.985593 -0.00488287 0)
(0.983129 -0.00500159 0)
(0.997296 -5.97415e-05 0)
(1.00524 0.00835081 0)
(1.01277 -0.0147218 0)
(0.992925 -0.0224649 0)
(0.979289 -0.0121158 0)
(0.980948 0.00250695 0)
(0.98645 0.00739071 0)
(0.995326 0.00700534 0)
(0.997043 0.0067772 0)
(0.997868 0.00369849 0)
(1.00369 0.00375904 0)
(0.999171 -0.0024609 0)
(1.00004 -0.000380396 0)
(0.996921 -0.00679277 0)
(0.997205 -0.00531459 0)
(0.992882 -0.0084795 0)
(0.992182 -0.0068552 0)
(0.987879 -0.00789026 0)
(0.986182 -0.00466562 0)
(0.983865 -0.00452527 0)
(0.997378 -5.86542e-05 0)
(1.00498 0.00805873 0)
(1.01226 -0.0143906 0)
(0.993237 -0.0220917 0)
(0.979423 -0.011819 0)
(0.981623 0.00223755 0)
(0.98691 0.0072017 0)
(0.994572 0.00671103 0)
(0.996767 0.00663395 0)
(0.99742 0.00363173 0)
(1.00321 0.00359535 0)
(0.999354 -0.00214162 0)
(0.999858 -0.000612282 0)
(0.997379 -0.00630142 0)
(0.997319 -0.00528191 0)
(0.993472 -0.0079257 0)
(0.992504 -0.00667806 0)
(0.988539 -0.00720567 0)
(0.986685 -0.00434905 0)
(0.984534 -0.00404201 0)
(0.99744 -5.7063e-05 0)
(1.00482 0.00776412 0)
(1.0117 -0.0140545 0)
(0.993525 -0.0217032 0)
(0.979592 -0.0115514 0)
(0.982152 0.00201805 0)
(0.987383 0.006972 0)
(0.993909 0.00645965 0)
(0.996497 0.00642529 0)
(0.997125 0.00367016 0)
(1.00277 0.00328372 0)
(0.999601 -0.00175499 0)
(0.999637 -0.000821319 0)
(0.997859 -0.00592969 0)
(0.997365 -0.00526907 0)
(0.994004 -0.00717757 0)
(0.992768 -0.00654726 0)
(0.989189 -0.00660827 0)
(0.987139 -0.00415649 0)
(0.985157 -0.00359578 0)
(0.997485 -4.59439e-05 0)
(1.00475 0.00745049 0)
(1.01112 -0.0136989 0)
(0.993767 -0.0213369 0)
(0.979812 -0.0112309 0)
(0.982543 0.00171911 0)
(0.987827 0.00681223 0)
(0.993395 0.00621521 0)
(0.996254 0.00618832 0)
(0.996983 0.00364114 0)
(1.00237 0.00314589 0)
(0.999901 -0.00175703 0)
(0.999384 -0.000716577 0)
(0.998288 -0.00564481 0)
(0.997402 -0.00526965 0)
(0.994492 -0.00663635 0)
(0.992954 -0.00609267 0)
(0.989789 -0.00614901 0)
(0.98759 -0.00387888 0)
(0.98578 -0.00312236 0)
(0.99752 -4.64076e-05 0)
(1.00475 0.00716055 0)
(1.01055 -0.0133671 0)
(0.993948 -0.0209141 0)
(0.980084 -0.0109791 0)
(0.98282 0.00151801 0)
(0.988216 0.0065343 0)
(0.993057 0.00606745 0)
(0.996042 0.00588426 0)
(0.996982 0.00366626 0)
(1.00201 0.00286289 0)
(1.00021 -0.00149891 0)
(0.999145 -0.00092347 0)
(0.998641 -0.00529536 0)
(0.997385 -0.00504453 0)
(0.994929 -0.00625234 0)
(0.993102 -0.00579409 0)
(0.990276 -0.00560711 0)
(0.987958 -0.00349374 0)
(0.98627 -0.00263667 0)
(0.997554 -3.99352e-05 0)
(1.0048 0.00684502 0)
(1.01002 -0.0129914 0)
(0.994064 -0.0205195 0)
(0.980405 -0.0106964 0)
(0.983026 0.0012863 0)
(0.988537 0.00629019 0)
(0.992879 0.00587927 0)
(0.99589 0.00564332 0)
(0.997058 0.00360521 0)
(1.00172 0.0027007 0)
(1.00049 -0.00146791 0)
(0.998878 -0.000784135 0)
(0.99895 -0.00523157 0)
(0.997367 -0.00476526 0)
(0.995256 -0.00590899 0)
(0.993253 -0.00541532 0)
(0.990789 -0.00528105 0)
(0.988382 -0.00301551 0)
(0.986805 -0.00206331 0)
(0.997596 -1.83404e-05 0)
(1.00486 0.00650178 0)
(1.00954 -0.0126013 0)
(0.994129 -0.0201544 0)
(0.980756 -0.0103558 0)
(0.98321 0.000987397 0)
(0.988799 0.00607792 0)
(0.992834 0.00570717 0)
(0.995779 0.00533833 0)
(0.9972 0.00358789 0)
(1.00144 0.00260331 0)
(1.00075 -0.00159898 0)
(0.998644 -0.000608375 0)
(0.999112 -0.00488268 0)
(0.997344 -0.00479767 0)
(0.995536 -0.00536017 0)
(0.993349 -0.00485531 0)
(0.9912 -0.0048398 0)
(0.988779 -0.00271863 0)
(0.987175 -0.00159677 0)
(0.997651 -3.5499e-05 0)
(1.00491 0.00623183 0)
(1.00911 -0.01228 0)
(0.994162 -0.0196558 0)
(0.981134 -0.0101952 0)
(0.983414 0.00095478 0)
(0.989009 0.00558636 0)
(0.992868 0.00573092 0)
(0.995735 0.00484753 0)
(0.997341 0.00375299 0)
(1.0012 0.00213887 0)
(1.00092 -0.00104064 0)
(0.998441 -0.00121114 0)
(0.999182 -0.0040888 0)
(0.997335 -0.00487887 0)
(0.995764 -0.00462517 0)
(0.993417 -0.00467959 0)
(0.991514 -0.00388258 0)
(0.989141 -0.00281792 0)
(0.987604 -0.00157903 0)
(0.997717 -2.03424e-05 0)
(1.00494 0.00588043 0)
(1.00871 -0.0118481 0)
(0.994195 -0.0192638 0)
(0.981514 -0.00987741 0)
(0.983665 0.000689704 0)
(0.989187 0.00531935 0)
(0.992958 0.00555235 0)
(0.995712 0.00465551 0)
(0.997468 0.00346722 0)
(1.00101 0.00223576 0)
(1.00103 -0.00134954 0)
(0.998259 -0.000808201 0)
(0.999192 -0.00419639 0)
(0.997314 -0.00441517 0)
(0.995942 -0.00451476 0)
(0.993591 -0.00414311 0)
(0.991863 -0.0036742 0)
(0.989459 -0.00217571 0)
(0.988075 -0.00097189 0)
(0.997801 7.18427e-07 0)
(1.00492 0.00552272 0)
(1.00834 -0.0114303 0)
(0.994235 -0.0188616 0)
(0.9819 -0.00959462 0)
(0.983979 0.000472397 0)
(0.989349 0.0050567 0)
(0.993056 0.00532784 0)
(0.995715 0.00442696 0)
(0.997574 0.00335026 0)
(1.0008 0.00223859 0)
(1.0011 -0.00154833 0)
(0.998086 -0.000487124 0)
(0.999111 -0.00406667 0)
(0.997319 -0.00412591 0)
(0.996078 -0.00412911 0)
(0.99363 -0.00350564 0)
(0.992118 -0.00345463 0)
(0.989856 -0.00174178 0)
(0.988345 -0.000429287 0)
(0.997901 -2.76331e-05 0)
(1.00485 0.00526653 0)
(1.00799 -0.0111306 0)
(0.994293 -0.0182638 0)
(0.982307 -0.00950758 0)
(0.984329 0.000542483 0)
(0.989529 0.0043911 0)
(0.993138 0.00546993 0)
(0.995744 0.00390549 0)
(0.997622 0.00347538 0)
(1.00064 0.00177221 0)
(1.0011 -0.000882951 0)
(0.997958 -0.00119291 0)
(0.998985 -0.00294977 0)
(0.997327 -0.00426881 0)
(0.996217 -0.00334832 0)
(0.993726 -0.00342033 0)
(0.992339 -0.00235254 0)
(0.990195 -0.00214842 0)
(0.988731 -0.000785621 0)
(0.998005 -9.8575e-06 0)
(1.00474 0.00489284 0)
(1.00765 -0.0106664 0)
(0.994384 -0.0178337 0)
(0.982718 -0.00925342 0)
(0.984727 0.000325035 0)
(0.989717 0.0041579 0)
(0.993209 0.00512886 0)
(0.99576 0.0038247 0)
(0.997645 0.00306673 0)
(1.00049 0.00201793 0)
(1.00104 -0.00131447 0)
(0.997866 -0.000693228 0)
(0.998851 -0.00313833 0)
(0.997321 -0.00368958 0)
(0.996353 -0.00333902 0)
(0.993934 -0.00293611 0)
(0.992544 -0.00225977 0)
(0.990413 -0.00129706 0)
(0.989206 -0.000131675 0)
(0.998115 1.72664e-05 0)
(1.0046 0.00452278 0)
(1.0073 -0.0102485 0)
(0.994499 -0.0173822 0)
(0.983155 -0.00900604 0)
(0.985155 0.000140413 0)
(0.989908 0.00387491 0)
(0.99327 0.00484243 0)
(0.995775 0.00375195 0)
(0.997654 0.00274339 0)
(1.0003 0.00209817 0)
(1.001 -0.00149789 0)
(0.997767 -0.000303709 0)
(0.998686 -0.0031404 0)
(0.997353 -0.00327213 0)
(0.99645 -0.00318472 0)
(0.994003 -0.00240662 0)
(0.992815 -0.00212988 0)
(0.990834 -0.000591514 0)
(0.989399 0.000565296 0)
(0.998232 -2.49817e-05 0)
(1.00442 0.00429839 0)
(1.00695 -0.0100096 0)
(0.994619 -0.016658 0)
(0.983633 -0.00903316 0)
(0.985577 0.000295283 0)
(0.990135 0.00316064 0)
(0.99331 0.00497919 0)
(0.995783 0.00321771 0)
(0.997614 0.00299066 0)
(1.00018 0.00144963 0)
(1.0009 -0.000788577 0)
(0.997698 -0.00100363 0)
(0.998511 -0.00181105 0)
(0.997359 -0.00349056 0)
(0.99658 -0.00232639 0)
(0.994161 -0.00236507 0)
(0.993013 -0.00100336 0)
(0.991134 -0.00154409 0)
(0.989751 -0.00020881 0)
(0.998336 3.92301e-06 0)
(1.00424 0.00390325 0)
(1.00659 -0.00952293 0)
(0.994767 -0.016211 0)
(0.984125 -0.00877785 0)
(0.986016 8.50482e-05 0)
(0.990362 0.00297886 0)
(0.993351 0.00450122 0)
(0.99578 0.00323352 0)
(0.99757 0.00258168 0)
(1.00003 0.00168391 0)
(1.00081 -0.00115651 0)
(0.997716 -0.00057741 0)
(0.998358 -0.00203927 0)
(0.99736 -0.00287978 0)
(0.996738 -0.00230835 0)
(0.994429 -0.00186357 0)
(0.993121 -0.000865349 0)
(0.991242 -0.000307121 0)
(0.990272 0.000738225 0)
(0.998439 3.62267e-05 0)
(1.00406 0.00354079 0)
(1.00623 -0.00915317 0)
(0.994913 -0.0156615 0)
(0.984644 -0.00857565 0)
(0.98647 -0.0001122 0)
(0.990578 0.00274806 0)
(0.993406 0.00413331 0)
(0.995756 0.00321344 0)
(0.997534 0.00224131 0)
(0.999868 0.00177834 0)
(1.00074 -0.00127816 0)
(0.997648 -0.000318859 0)
(0.998207 -0.00214329 0)
(0.997401 -0.00244123 0)
(0.996864 -0.00235093 0)
(0.994583 -0.00137888 0)
(0.993509 -0.000688664 0)
(0.991717 0.000782901 0)
(0.990364 0.00169074 0)
(0.998545 -2.92291e-05 0)
(1.00386 0.00336527 0)
(1.00588 -0.00899548 0)
(0.995042 -0.014844 0)
(0.985197 -0.00867812 0)
(0.986903 9.11796e-05 0)
(0.990823 0.00203397 0)
(0.993457 0.00427465 0)
(0.995747 0.00260612 0)
(0.997462 0.00269731 0)
(0.99974 0.00106208 0)
(1.00063 -0.00043649 0)
(0.997665 -0.000911801 0)
(0.99808 -0.000808332 0)
(0.997391 -0.00265248 0)
(0.997031 -0.00141565 0)
(0.994858 -0.00136446 0)
(0.993736 -6.16714e-05 0)
(0.991964 -0.000751555 0)
(0.990681 0.000352984 0)
(0.998629 3.8907e-05 0)
(1.00369 0.00293339 0)
(1.00551 -0.00849425 0)
(0.99519 -0.0144141 0)
(0.985743 -0.00835069 0)
(0.987345 -0.000244386 0)
(0.991079 0.00202501 0)
(0.993519 0.00371439 0)
(0.995725 0.00269489 0)
(0.997408 0.00220792 0)
(0.999608 0.00140872 0)
(1.00055 -0.00093065 0)
(0.997707 -0.000360307 0)
(0.99796 -0.00122315 0)
(0.997422 -0.002211 0)
(0.997239 -0.00154169 0)
(0.995093 -0.000906149 0)
(0.99381 0.000211909 0)
(0.99208 0.000550338 0)
(0.991201 0.00175591 0)
(0.998709 3.5616e-05 0)
(1.00353 0.00265557 0)
(1.00515 -0.00823349 0)
(0.995337 -0.0137812 0)
(0.986297 -0.00817824 0)
(0.987813 -0.000433693 0)
(0.991297 0.00191981 0)
(0.993615 0.00319119 0)
(0.995699 0.00279146 0)
(0.997381 0.00187832 0)
(0.999425 0.00146914 0)
(1.00049 -0.00103383 0)
(0.997704 -0.0004483 0)
(0.997816 -0.00135693 0)
(0.997441 -0.00165227 0)
(0.99743 -0.00175852 0)
(0.995437 -0.000501942 0)
(0.994269 0.000578909 0)
(0.992627 0.00207408 0)
(0.991319 0.00290617 0)
(0.998801 -1.07089e-05 0)
(1.00336 0.0024561 0)
(1.00481 -0.0080597 0)
(0.995454 -0.0130121 0)
(0.986868 -0.00818472 0)
(0.988262 -0.000385811 0)
(0.991539 0.00142199 0)
(0.993709 0.00321035 0)
(0.995702 0.00240721 0)
(0.997303 0.00206752 0)
(0.999318 0.00118745 0)
(1.00036 -0.000548149 0)
(0.997743 -0.000707295 0)
(0.997819 -0.000453558 0)
(0.997415 -0.00170227 0)
(0.997605 -0.00111603 0)
(0.995777 -0.000335891 0)
(0.99464 0.000804839 0)
(0.992889 0.00135481 0)
(0.991426 0.001983 0)
(0.998879 7.66223e-05 0)
(1.0032 0.00205487 0)
(1.00449 -0.00764298 0)
(0.995582 -0.0125546 0)
(0.987422 -0.00785039 0)
(0.988708 -0.000684781 0)
(0.991796 0.00129472 0)
(0.993814 0.00288977 0)
(0.995685 0.00230385 0)
(0.997288 0.00192245 0)
(0.999156 0.00134278 0)
(1.00029 -0.000694894 0)
(0.997841 -0.000271398 0)
(0.997687 -0.000511852 0)
(0.997428 -0.00131073 0)
(0.997884 -0.000764902 0)
(0.996115 -0.000195469 0)
(0.994917 0.0009348 0)
(0.993186 0.00139581 0)
(0.9917 0.00225133 0)
(0.998954 1.00249e-05 0)
(1.00304 0.00189158 0)
(1.00417 -0.00746563 0)
(0.995709 -0.011884 0)
(0.987969 -0.00769462 0)
(0.989161 -0.000782689 0)
(0.992044 0.00102396 0)
(0.993934 0.00264735 0)
(0.995697 0.0022172 0)
(0.997254 0.00193498 0)
(0.999018 0.00116109 0)
(1.00022 -0.000352703 0)
(0.997874 -0.000417549 0)
(0.997699 -0.000247573 0)
(0.997493 -0.000665672 0)
(0.998002 -0.000651904 0)
(0.996414 -0.00020072 0)
(0.995279 0.00116352 0)
(0.993529 0.00154934 0)
(0.991938 0.00226494 0)
(0.999024 5.21807e-05 0)
(1.00289 0.00159071 0)
(1.00387 -0.00718075 0)
(0.995837 -0.0113363 0)
(0.988505 -0.00740321 0)
(0.989606 -0.000970616 0)
(0.992298 0.000808798 0)
(0.994073 0.00244311 0)
(0.995706 0.00213663 0)
(0.997226 0.00175919 0)
(0.998894 0.00128387 0)
(1.00013 -0.00040258 0)
(0.997971 -0.000235664 0)
(0.99773 8.76216e-05 0)
(0.997448 -0.000528714 0)
(0.998126 -0.000558647 0)
(0.996821 8.531e-05 0)
(0.995627 0.00122439 0)
(0.993761 0.00153295 0)
(0.992151 0.00230057 0)
(0.999091 4.08929e-05 0)
(1.00274 0.00136513 0)
(1.00358 -0.00691839 0)
(0.995965 -0.0108337 0)
(0.98903 -0.0071123 0)
(0.990048 -0.00113429 0)
(0.992557 0.000646515 0)
(0.994218 0.00216325 0)
(0.995719 0.00202458 0)
(0.997228 0.00174083 0)
(0.998757 0.00126652 0)
(1.00007 -0.000296211 0)
(0.998081 -8.95576e-05 0)
(0.997721 9.35504e-05 0)
(0.997456 -0.000204066 0)
(0.9983 -0.000148396 0)
(0.997122 0.000180163 0)
(0.995905 0.00121122 0)
(0.994119 0.00164027 0)
(0.992428 0.00241056 0)
(0.999159 4.85954e-05 0)
(1.0026 0.00112478 0)
(1.0033 -0.00667038 0)
(0.996095 -0.010331 0)
(0.989546 -0.00679024 0)
(0.990487 -0.00125321 0)
(0.992816 0.000466494 0)
(0.994377 0.00190003 0)
(0.995768 0.00196861 0)
(0.997216 0.00164734 0)
(0.998646 0.00128888 0)
(1 -0.000236734 0)
(0.998156 -1.19783e-05 0)
(0.997799 0.000246538 0)
(0.997509 0.000155477 0)
(0.998351 4.18159e-05 0)
(0.997415 0.000243913 0)
(0.996287 0.00134547 0)
(0.994414 0.00171716 0)
(0.992627 0.00246103 0)
(0.999223 4.67195e-05 0)
(1.00246 0.000902567 0)
(1.00304 -0.00639452 0)
(0.996229 -0.00986237 0)
(0.99005 -0.00648609 0)
(0.990916 -0.00135506 0)
(0.993076 0.000315171 0)
(0.994553 0.00166958 0)
(0.995807 0.00186162 0)
(0.997234 0.00153503 0)
(0.998525 0.00131674 0)
(0.999941 -0.000155299 0)
(0.998295 9.84472e-05 0)
(0.997859 0.000376193 0)
(0.997518 0.000332148 0)
(0.998446 0.000297986 0)
(0.997723 0.000387302 0)
(0.996587 0.00141115 0)
(0.99476 0.00174955 0)
(0.992904 0.00253646 0)
(0.999286 4.54452e-05 0)
(1.00232 0.000697046 0)
(1.00279 -0.00615632 0)
(0.996361 -0.00940649 0)
(0.990547 -0.00618494 0)
(0.991342 -0.00141783 0)
(0.993339 0.000181377 0)
(0.994732 0.00144116 0)
(0.995879 0.00174955 0)
(0.997247 0.00148993 0)
(0.998443 0.00135358 0)
(0.999885 -4.82084e-05 0)
(0.998386 0.000115783 0)
(0.997961 0.000471197 0)
(0.997611 0.000501715 0)
(0.998485 0.000604746 0)
(0.997965 0.000472288 0)
(0.996951 0.00147911 0)
(0.995081 0.00178481 0)
(0.993128 0.00256599 0)
(0.999347 5.02535e-05 0)
(1.00218 0.000487733 0)
(1.00256 -0.00591407 0)
(0.996504 -0.00895738 0)
(0.991036 -0.00587191 0)
(0.991759 -0.00146605 0)
(0.993597 5.31724e-05 0)
(0.994923 0.00121598 0)
(0.995949 0.00162549 0)
(0.997293 0.00140928 0)
(0.998342 0.00138808 0)
(0.999814 1.95193e-05 0)
(0.998535 0.000182403 0)
(0.998066 0.000631981 0)
(0.997683 0.000657694 0)
(0.998552 0.000852522 0)
(0.99821 0.000622138 0)
(0.997253 0.00153475 0)
(0.995436 0.00181648 0)
(0.993428 0.00260497 0)
(0.999407 4.32496e-05 0)
(1.00205 0.000297633 0)
(1.00233 -0.00566288 0)
(0.996645 -0.00852386 0)
(0.991516 -0.00565247 0)
(0.992169 -0.00146836 0)
(0.993853 -4.37418e-05 0)
(0.995115 0.00103433 0)
(0.996051 0.00150731 0)
(0.997336 0.0013315 0)
(0.998284 0.00136846 0)
(0.999762 0.00016776 0)
(0.998657 0.000206186 0)
(0.998199 0.0007605 0)
(0.997811 0.00075599 0)
(0.998588 0.00109253 0)
(0.998391 0.000754824 0)
(0.997592 0.00159714 0)
(0.99577 0.00184833 0)
(0.993681 0.00258593 0)
(0.999464 5.43231e-05 0)
(1.00192 0.000121483 0)
(1.00212 -0.00550175 0)
(0.996789 -0.00802492 0)
(0.991992 -0.00544241 0)
(0.992579 -0.00148285 0)
(0.994105 -5.98151e-05 0)
(0.995316 0.000901984 0)
(0.996144 0.00142364 0)
(0.997405 0.00125161 0)
(0.998224 0.00138467 0)
(0.999691 0.000294003 0)
(0.998815 0.000206679 0)
(0.998329 0.000866916 0)
(0.997924 0.000848984 0)
(0.998665 0.0012689 0)
(0.99858 0.000937631 0)
(0.997869 0.00164267 0)
(0.996104 0.00187885 0)
(0.993989 0.00257283 0)
(0.999518 1.74895e-05 0)
(1.00179 6.33615e-06 0)
(1.00193 -0.00528542 0)
(0.996934 -0.00761856 0)
(0.992445 -0.0052658 0)
(0.992997 -0.00133414 0)
(0.994369 -0.000234385 0)
(0.995518 0.000678005 0)
(0.996267 0.00127371 0)
(0.997474 0.00117618 0)
(0.998204 0.00134415 0)
(0.999624 0.000460889 0)
(0.998937 0.00020689 0)
(0.998491 0.000958151 0)
(0.998078 0.00095495 0)
(0.998726 0.00144022 0)
(0.998704 0.0011068 0)
(0.998153 0.00169297 0)
(0.99642 0.00192035 0)
(0.994253 0.00252656 0)
(0.999568 4.04729e-05 0)
(1.00168 -0.000186932 0)
(1.00174 -0.00504516 0)
(0.997075 -0.00730096 0)
(0.992926 -0.00491266 0)
(0.99339 -0.00152051 0)
(0.994581 -0.000178174 0)
(0.995725 0.000680231 0)
(0.996383 0.00122491 0)
(0.997562 0.00111306 0)
(0.99819 0.00131966 0)
(0.999554 0.000596219 0)
(0.999095 0.000236766 0)
(0.998671 0.00102572 0)
(0.998237 0.00105117 0)
(0.998843 0.00153232 0)
(0.998863 0.00128425 0)
(0.998404 0.00172916 0)
(0.996737 0.00194431 0)
(0.994573 0.00248087 0)
(0.99962 3.50637e-05 0)
(1.00156 -0.000317613 0)
(1.00157 -0.00483838 0)
(0.997239 -0.00689774 0)
(0.993352 -0.00472279 0)
(0.993801 -0.00165035 0)
(0.99488 -8.22679e-05 0)
(0.995921 0.000699188 0)
(0.996505 0.00116024 0)
(0.997646 0.00108684 0)
(0.99822 0.00123293 0)
(0.999497 0.000786786 0)
(0.999212 0.000282328 0)
(0.998866 0.00106534 0)
(0.998409 0.0011614 0)
(0.998939 0.00163857 0)
(0.998958 0.00145581 0)
(0.998626 0.00179205 0)
(0.997017 0.00200384 0)
(0.994835 0.00243925 0)
(0.999664 -4.1432e-07 0)
(1.00146 -0.000371235 0)
(1.00141 -0.0046605 0)
(0.997378 -0.00649457 0)
(0.993796 -0.00461703 0)
(0.994214 -0.00145166 0)
(0.995136 -0.000211839 0)
(0.996129 0.000542383 0)
(0.996632 0.00104125 0)
(0.997743 0.0010242 0)
(0.998261 0.00117465 0)
(0.999445 0.000893959 0)
(0.99933 0.000365165 0)