/*--------------------------------*- C++ -*----------------------------------*\
| =========                 |                                                 |
| \\      /  F ield         | OpenFOAM: The Open Source CFD Toolbox           |
|  \\    /   O peration     | Version:  v2012                                 |
|   \\  /    A nd           | Website:  www.openfoam.com                      |
|    \\/     M anipulation  |                                                 |
\*---------------------------------------------------------------------------*/
FoamFile
{
    version     2.0;
    format      ascii;
    class       volScalarField;
    location    "9.2";
    object      p;
}
// * * * * * * * * * * * * * * * * * * * * * * * * * * * * * * * * * * * * * //

dimensions      [0 2 -2 0 0 0 0];


internalField   nonuniform List<scalar> 
7000
(
3.54156e-10
0.0024757
0.000480974
0.000845381
0.000979057
-0.0002051
-0.000190873
-0.000534467
-0.00146976
-0.00050372
-0.0051922
-0.00376444
-0.00768443
-0.00661006
-0.00807069
-0.00735039
-0.00780828
-0.00760163
-0.00765424
-0.00728997
4.38252e-06
0.00244208
0.000477361
0.000856678
0.00097264
-0.000208316
-0.000186449
-0.000548515
-0.00142947
-0.000525748
-0.00515258
-0.00377782
-0.00767024
-0.00661282
-0.00806804
-0.00734649
-0.00780804
-0.00760104
-0.00765428
-0.00732997
9.42742e-06
0.00241987
0.00047412
0.000873073
0.000962352
-0.000210885
-0.000184005
-0.000565563
-0.00139537
-0.000558278
-0.00510492
-0.00380567
-0.00763556
-0.00662693
-0.00804627
-0.00735353
-0.00779286
-0.00761153
-0.00765472
-0.0073814
1.38373e-05
0.00239857
0.000471793
0.000885917
0.000951047
-0.000212895
-0.000184333
-0.000588312
-0.00137129
-0.000603407
-0.00506303
-0.0038459
-0.00758925
-0.00664912
-0.00801152
-0.00736895
-0.00776949
-0.00763233
-0.00765959
-0.00744273
1.79644e-05
0.00237799
0.000470142
0.000894364
0.000938374
-0.000214929
-0.000186833
-0.000616921
-0.00135386
-0.000662017
-0.00502033
-0.00389938
-0.00753538
-0.00667813
-0.00797256
-0.00738885
-0.00774635
-0.00765739
-0.0076688
-0.00750433
2.21152e-05
0.00235815
0.000469071
0.000899248
0.000924189
-0.000217112
-0.000190651
-0.000650252
-0.00134159
-0.000732112
-0.00497388
-0.00396648
-0.00747428
-0.00671343
-0.00793163
-0.00741098
-0.00772472
-0.0076812
-0.00768279
-0.00755725
2.63933e-05
0.00233896
0.000468381
0.00090117
0.00090874
-0.000219577
-0.000194821
-0.000686746
-0.00133342
-0.000810458
-0.00492353
-0.00404413
-0.00740541
-0.00675292
-0.0078878
-0.0074338
-0.00770336
-0.00770302
-0.00770205
-0.00760148
3.0846e-05
0.00232014
0.000467746
0.000900738
0.000892294
-0.000222424
-0.000198469
-0.00072508
-0.00132826
-0.000894258
-0.00486948
-0.00412774
-0.00732905
-0.00679398
-0.00784091
-0.00745639
-0.00768323
-0.00772407
-0.00772658
-0.007641
3.54975e-05
0.00230138
0.000466883
0.00089864
0.00087504
-0.000225659
-0.000201058
-0.000764519
-0.00132515
-0.000981554
-0.004812
-0.0042138
-0.00724604
-0.00683484
-0.00779183
-0.00747825
-0.00766643
-0.00774428
-0.00775606
-0.00767805
4.03522e-05
0.00228237
0.00046564
0.000895467
0.000857109
-0.00022924
-0.00020244
-0.000804919
-0.00132335
-0.00107116
-0.00475131
-0.00430019
-0.0071572
-0.00687462
-0.00774112
-0.00749862
-0.00765393
-0.00776241
-0.00778958
-0.00771282
4.54059e-05
0.00226289
0.000463999
0.000891644
0.000838598
-0.000233156
-0.000202753
-0.000846525
-0.00132231
-0.00116244
-0.00468767
-0.00438563
-0.00706335
-0.00691253
-0.00768887
-0.0075162
-0.00764562
-0.00777745
-0.0078257
-0.00774533
5.06548e-05
0.00224279
0.00046205
0.000887456
0.000819566
-0.000237441
-0.000202289
-0.000889705
-0.00132156
-0.00125512
-0.0046214
-0.00446936
-0.00696539
-0.00694743
-0.00763535
-0.00752953
-0.00764134
-0.00778909
-0.00786311
-0.00777621
5.60975e-05
0.00222197
0.000459938
0.000883096
0.000800043
-0.00024217
-0.000201367
-0.00093476
-0.00132066
-0.0013493
-0.00455292
-0.00455076
-0.00686441
-0.00697795
-0.00758137
-0.00753738
-0.0076412
-0.00779772
-0.0079007
-0.00780617
6.1736e-05
0.00220036
0.000457825
0.000878704
0.000780049
-0.000247436
-0.000200242
-0.000981843
-0.00131919
-0.00144525
-0.00448274
-0.00462931
-0.00676185
-0.00700273
-0.00752804
-0.00753882
-0.00764548
-0.00780419
-0.00793722
-0.00783539
6.75756e-05
0.00217787
0.000455853
0.000874393
0.000759617
-0.000253328
-0.00019908
-0.00103095
-0.00131678
-0.00154317
-0.00441135
-0.00470456
-0.00665965
-0.00702053
-0.0074766
-0.00753306
-0.00765416
-0.00780966
-0.00797146
-0.0078636
7.36245e-05
0.00215443
0.000454119
0.000870256
0.000738799
-0.000259931
-0.000197963
-0.00108195
-0.00131311
-0.00164308
-0.00433929
-0.00477596
-0.00656002
-0.00703032
-0.00742841
-0.00751979
-0.00766655
-0.00781524
-0.00800259
-0.00789049
7.98937e-05
0.00212995
0.00045267
0.000866352
0.000717666
-0.000267326
-0.000196912
-0.00113468
-0.001308
-0.00174477
-0.00426722
-0.00484292
-0.0064651
-0.00703117
-0.00738483
-0.00749942
-0.00768158
-0.00782186
-0.00803005
-0.00791572
8.63954e-05
0.00210436
0.000451509
0.000862691
0.000696296
-0.000275598
-0.000195909
-0.00118902
-0.00130146
-0.0018478
-0.00419588
-0.0049048
-0.00637686
-0.00702248
-0.00734693
-0.007473
-0.00769821
-0.00783053
-0.00805339
-0.00793859
9.31424e-05
0.00207761
0.000450613
0.000859225
0.000674769
-0.000284848
-0.000194907
-0.00124484
-0.00129361
-0.00195164
-0.00412593
-0.00496049
-0.00629696
-0.00700416
-0.0073153
-0.00744202
-0.0077155
-0.00784224
-0.00807246
-0.00795819
0.000100147
0.00204966
0.00044995
0.000855858
0.000653172
-0.00029519
-0.000193846
-0.00130206
-0.00128474
-0.00205555
-0.0040577
-0.00500867
-0.00622658
-0.00697658
-0.00728994
-0.0074082
-0.00773249
-0.00785785
-0.00808737
-0.00797349
0.000107423
0.00202047
0.000449497
0.000852459
0.000631589
-0.000306726
-0.000192672
-0.00136059
-0.00127528
-0.0021584
-0.00398719
-0.00504817
-0.00616632
-0.00694036
-0.00727052
-0.00737339
-0.00774743
-0.00787822
-0.00809947
-0.00798332
0.00011498
0.00199001
0.000449252
0.000848882
0.000610106
-0.000319541
-0.000191319
-0.00142038
-0.00126587
-0.00225898
-0.00392378
-0.00507804
-0.00611658
-0.0068962
-0.00725634
-0.00734019
-0.00775776
-0.00790218
-0.00811111
-0.00798807
0.000122832
0.00195826
0.000449237
0.000844976
0.00058883
-0.000333747
-0.00018974
-0.00148126
-0.00125734
-0.00235599
-0.00387055
-0.00509734
-0.00607779
-0.00684503
-0.00724552
-0.0073121
-0.0077637
-0.00792647
-0.00812125
-0.00798909
0.000130991
0.00192517
0.000449501
0.000840588
0.000567874
-0.000349486
-0.000187963
-0.00154298
-0.0012505
-0.00244773
-0.00382794
-0.00510544
-0.00605002
-0.00678888
-0.00723512
-0.00729028
-0.00776809
-0.00795132
-0.00812763
-0.00798463
0.000139472
0.00189074
0.000450106
0.000835576
0.000547332
-0.000366863
-0.00018606
-0.00160514
-0.00124663
-0.00253221
-0.00379672
-0.00510243
-0.00603247
-0.00673076
-0.00722342
-0.00727392
-0.00777063
-0.00797792
-0.00813198
-0.00797346
0.000148286
0.00185494
0.000451111
0.000829803
0.0005273
-0.000386029
-0.00018427
-0.00166701
-0.00124704
-0.00260839
-0.00377589
-0.0050884
-0.00602401
-0.00667327
-0.00720982
-0.00726389
-0.00777055
-0.00800378
-0.00813457
-0.00795665
0.000157442
0.00181775
0.000452583
0.000823133
0.000507811
-0.000406628
-0.000183022
-0.00172811
-0.00125252
-0.00267522
-0.00376638
-0.00506367
-0.00602212
-0.00661886
-0.00719394
-0.00726117
-0.00776773
-0.00802625
-0.00813574
-0.0079352
0.000166963
0.00177918
0.000454578
0.000815458
0.000488837
-0.000429072
-0.000182448
-0.0017876
-0.00126454
-0.00273123
-0.00376861
-0.00503186
-0.00602401
-0.00656805
-0.00717512
-0.00726748
-0.00776323
-0.00803913
-0.00813411
-0.00791359
0.000176869
0.00173919
0.000457084
0.000806662
0.000470426
-0.000463214
-0.000183071
-0.00184409
-0.0012839
-0.00277712
-0.00377991
-0.00499355
-0.0060299
-0.00652328
-0.00715169
-0.00728093
-0.00776099
-0.00804217
-0.00812598
-0.00789044
0.000187165
0.00169781
0.000460059
0.000796738
0.000452412
-0.000495749
-0.000186651
-0.00189725
-0.00131117
-0.00281227
-0.00380294
-0.00494855
-0.00603534
-0.00648789
-0.00712606
-0.00729782
-0.00776365
-0.00804266
-0.00810451
-0.00786133
0.000197907
0.001655
0.000463451
0.000785698
0.000434722
-0.000522581
-0.000192964
-0.0019465
-0.00134776
-0.00283651
-0.00383561
-0.00490168
-0.00603871
-0.00645909
-0.00709961
-0.00731851
-0.00776896
-0.00804155
-0.0080732
-0.00782804
0.00020906
0.0016108
0.000467049
0.000773659
0.000417114
-0.000547065
-0.000202736
-0.00199091
-0.00139358
-0.0028526
-0.00387219
-0.00485769
-0.00604006
-0.00643854
-0.00707069
-0.00733475
-0.00777704
-0.0080413
-0.00805323
-0.00778781
0.000220604
0.00156521
0.000470856
0.000760702
0.000399141
-0.000570327
-0.00021687
-0.00203078
-0.00144749
-0.00286113
-0.00391428
-0.00482056
-0.00602941
-0.00643076
-0.0070453
-0.0073457
-0.00778483
-0.00804486
-0.00802937
-0.00773737
0.000232752
0.00151802
0.000474859
0.000746726
0.000380869
-0.000599206
-0.00023375
-0.00206602
-0.00150806
-0.00286332
-0.00395797
-0.00479318
-0.00600977
-0.00642938
-0.00702085
-0.00735373
-0.00779441
-0.00805074
-0.00803601
-0.00767644
0.000245245
0.00146951
0.000478281
0.000732741
0.000361106
-0.000618493
-0.000257213
-0.00209588
-0.00157873
-0.00285901
-0.00399949
-0.0047706
-0.0059944
-0.00643198
-0.00699615
-0.00737108
-0.00780974
-0.00805782
-0.00800618
-0.00760816
0.00025807
0.00141983
0.000481115
0.000718897
0.000339721
-0.000629929
-0.000289058
-0.00212091
-0.00165713
-0.00285193
-0.00404243
-0.00473661
-0.00597804
-0.00645008
-0.00698265
-0.00738307
-0.00782195
-0.0080649
-0.00794036
-0.00753607
0.000271784
0.00136825
0.000483756
0.000704501
0.000317445
-0.000661281
-0.000317938
-0.00214419
-0.00173494
-0.00284797
-0.00408034
-0.00474404
-0.00595552
-0.00646822
-0.00697624
-0.00738902
-0.00783013
-0.00806647
-0.00794858
-0.00745773
0.000285666
0.00131576
0.000484611
0.00069165
0.000292334
-0.000672744
-0.000355305
-0.0021639
-0.00181854
-0.00284033
-0.00411543
-0.00475363
-0.00593099
-0.00649327
-0.00698059
-0.0073974
-0.00783623
-0.00805543
-0.0079033
-0.00737989
0.000299694
0.00126265
0.00048364
0.000680715
0.000264301
-0.000658433
-0.000402539
-0.00218083
-0.00190618
-0.00283291
-0.00415189
-0.00472234
-0.00590429
-0.00654127
-0.00699453
-0.00740032
-0.00782907
-0.00804411
-0.00781619
-0.00730819
0.000314791
0.00120781
0.000481787
0.00066941
0.000235432
-0.000714477
-0.000437046
-0.00220156
-0.00198724
-0.00283455
-0.0041813
-0.00474967
-0.00587893
-0.00655858
-0.00700821
-0.00739594
-0.00781249
-0.00803917
-0.00787918
-0.00723791
0.000329722
0.00115301
0.000476352
0.000661125
0.000204197
-0.000723021
-0.000481362
-0.00221972
-0.00207152
-0.00283286
-0.00420789
-0.00477297
-0.00585035
-0.00660187
-0.00703911
-0.00739868
-0.00779745
-0.00801582
-0.00784483
-0.00716504
0.000344535
0.00109848
0.000467306
0.000656587
0.000169946
-0.000638541
-0.000535041
-0.00223683
-0.00216136
-0.00282467
-0.00423561
-0.00481459
-0.00584171
-0.00663649
-0.00707343
-0.00740898
-0.00778985
-0.00798718
-0.00771258
-0.00709282
0.000360662
0.00104263
0.000456503
0.000650876
0.000136352
-0.000747659
-0.000564699
-0.00225785
-0.00224771
-0.00282628
-0.00425264
-0.00483141
-0.00581548
-0.00665822
-0.00710946
-0.00743243
-0.00777862
-0.00796809
-0.0077973
-0.00702043
0.000375817
0.000988389
0.000440276
0.000649172
0.000101114
-0.000750685
-0.000609425
-0.00227334
-0.00233947
-0.00282948
-0.00426325
-0.00491658
-0.00579276
-0.00666597
-0.00716242
-0.00746771
-0.00777863
-0.0079308
-0.00773859
-0.00694014
0.000390734
0.000935326
0.000419147
0.000651312
6.55903e-05
-0.000740353
-0.000663957
-0.0022835
-0.0024404
-0.0028333
-0.00427574
-0.00499043
-0.0057942
-0.00666571
-0.00721553
-0.00750794
-0.00780867
-0.007905
-0.00753522
-0.00684689
0.000406809
0.00088195
0.000395998
0.000650249
3.48546e-05
-0.000886076
-0.000687547
-0.00229718
-0.0025384
-0.00284737
-0.00427023
-0.00502607
-0.0057907
-0.0066531
-0.00725633
-0.0075708
-0.00785856
-0.00795005
-0.00764829
-0.00673816
0.0004208
0.000831712
0.000366855
0.000651638
6.13223e-06
-0.000891713
-0.000723883
-0.00230743
-0.00263614
-0.00287313
-0.00425189
-0.00509453
-0.00578411
-0.00663593
-0.00729582
-0.00764666
-0.00791887
-0.00800825
-0.00767784
-0.00660427
0.000435204
0.000783257
0.000332413
0.000653871
-1.81185e-05
-0.00092252
-0.00076807
-0.00230736
-0.00274036
-0.00291241
-0.00423259
-0.00513911
-0.00579384
-0.00662423
-0.00732914
-0.00771687
-0.00798675
-0.00805552
-0.00764686
-0.0064645
0.000449141
0.000736093
0.000295603
0.000653364
-3.78005e-05
-0.000966578
-0.000814547
-0.00230482
-0.00284569
-0.00296095
-0.00420618
-0.00517734
-0.00582749
-0.006613
-0.00734416
-0.00778532
-0.00806316
-0.00808271
-0.00758001
-0.00631031
0.000461434
0.000692262
0.000254752
0.000649218
-5.18369e-05
-0.00100809
-0.000868909
-0.00230129
-0.00294557
-0.00302245
-0.00417605
-0.00521514
-0.00586985
-0.00659814
-0.00735224
-0.0078512
-0.00812102
-0.00808101
-0.00749173
-0.00615864
0.000473636
0.000650725
0.000211118
0.000639781
-6.00287e-05
-0.00105558
-0.000928442
-0.00229342
-0.00304276
-0.00309711
-0.0041423
-0.00524503
-0.00591685
-0.0065935
-0.00735541
-0.00789026
-0.00815127
-0.00807203
-0.0074132
-0.00602083
0.000484526
0.000611376
0.000167037
0.000623817
-6.62741e-05
-0.00109887
-0.000992458
-0.00228671
-0.00313309
-0.00317908
-0.0041286
-0.00526658
-0.00596616
-0.00659588
-0.00734172
-0.00790863
-0.00818263
-0.00806471
-0.00733737
-0.00589013
0.000494568
0.000574882
0.000121994
0.000599122
-6.89847e-05
-0.00113932
-0.00106449
-0.00228105
-0.00321283
-0.00327346
-0.00410583
-0.00526865
-0.00600845
-0.00660816
-0.00732896
-0.00792036
-0.00819471
-0.0080333
-0.00727143
-0.00577957
0.000503616
0.000540697
7.6854e-05
0.000566456
-7.09443e-05
-0.00117765
-0.00113998
-0.00227455
-0.00328272
-0.00337721
-0.00408888
-0.00525657
-0.00605565
-0.0066364
-0.00731127
-0.00789856
-0.00817587
-0.00801563
-0.00723883
-0.00567553
0.000511575
0.000509099
3.24618e-05
0.000525035
-7.4537e-05
-0.00121196
-0.00121809
-0.00226985
-0.00334193
-0.00348486
-0.00408662
-0.00523958
-0.00609635
-0.00666016
-0.00728514
-0.0078642
-0.00816874
-0.00802096
-0.00719777
-0.0055483
0.000518616
0.000480114
-1.15883e-05
0.000475419
-8.04127e-05
-0.00124129
-0.00129901
-0.00226916
-0.00338964
-0.00359352
-0.00409821
-0.00521372
-0.00612111
-0.00668456
-0.00727337
-0.0078393
-0.0081567
-0.0079934
-0.00712409
-0.00543078
0.000524478
0.000454278
-5.51977e-05
0.000420054
-9.00808e-05
-0.00127289
-0.00138265
-0.00227207
-0.00342418
-0.00369939
-0.00412308
-0.00518352
-0.00613844
-0.00671529
-0.00726999
-0.00780541
-0.00811004
-0.00793534
-0.00706237
-0.00533856
0.000528533
0.000431843
-9.8716e-05
0.00035999
-0.0001064
-0.00131374
-0.00147029
-0.00228123
-0.00344864
-0.00380148
-0.00416079
-0.00515259
-0.00614647
-0.00674053
-0.0072644
-0.00776456
-0.00805161
-0.00788761
-0.00701357
-0.00523976
0.000531615
0.000411579
-0.000138578
0.000290405
-0.000133292
-0.00132654
-0.0015054
-0.00229348
-0.00346086
-0.00390581
-0.00421047
-0.00512274
-0.00614195
-0.0067588
-0.00726076
-0.00773306
-0.00800445
-0.00783547
-0.00693791
-0.00512532
0.000534311
0.000392819
-0.000173639
0.000212925
-0.000159236
-0.00134065
-0.00167827
-0.00230871
-0.00345326
-0.00398353
-0.00426906
-0.00509678
-0.00612898
-0.0067764
-0.00726028
-0.00770571
-0.00795049
-0.00775717
-0.00684411
-0.00501412
0.000534744
0.000377357
-0.000206719
0.000132627
-0.000196269
-0.0013797
-0.00175252
-0.00232759
-0.00343767
-0.00404924
-0.00433567
-0.00507798
-0.0061086
-0.00678821
-0.00725306
-0.00767157
-0.0078898
-0.00767627
-0.00675422
-0.00490472
0.000533179
0.000364565
-0.000236544
4.72329e-05
-0.000246602
-0.00140862
-0.00183672
-0.00235792
-0.00341902
-0.00410103
-0.00440532
-0.00506704
-0.00607865
-0.00679229
-0.00724344
-0.00763736
-0.00783669
-0.0076049
-0.00666393
-0.00478611
0.00053024
0.000352864
-0.000263975
-4.46551e-05
-0.000302681
-0.00143411
-0.00191893
-0.00239687
-0.00339596
-0.0041375
-0.00447562
-0.00506517
-0.00604257
-0.0067923
-0.0072379
-0.00760358
-0.00778326
-0.00753
-0.00656538
-0.00466142
0.000525379
0.00034118
-0.000290403
-0.000136504
-0.000363098
-0.00145647
-0.00199641
-0.00244479
-0.00338006
-0.00416339
-0.00454306
-0.00507238
-0.00600291
-0.00678446
-0.00723303
-0.00756497
-0.00772082
-0.00744914
-0.0064662
-0.00454189
0.000518281
0.00032833
-0.000313669
-0.000227016
-0.000429952
-0.00147844
-0.00206915
-0.00249979
-0.0033686
-0.00417703
-0.00460367
-0.00508837
-0.00596214
-0.00676661
-0.00722799
-0.00752579
-0.00765427
-0.00736795
-0.0063714
-0.0044266
0.000509198
0.00031478
-0.000334212
-0.000317037
-0.000503305
-0.00150006
-0.00213552
-0.00255902
-0.00336259
-0.00418276
-0.00465942
-0.00511278
-0.00592252
-0.00673779
-0.00722071
-0.00749202
-0.00758768
-0.00728305
-0.00627307
-0.00430905
0.000497902
0.000299619
-0.000352356
-0.000404387
-0.000581858
-0.00152335
-0.00219581
-0.00262169
-0.00336406
-0.00418343
-0.00470767
-0.0051407
-0.00588427
-0.00669737
-0.00720907
-0.00746447
-0.00752091
-0.00719211
-0.00616924
-0.00419219
0.000484562
0.000282901
-0.000368116
-0.000488782
-0.000665787
-0.00154991
-0.00224966
-0.0026858
-0.0033724
-0.00417833
-0.00474592
-0.00517134
-0.00585091
-0.00665
-0.00719173
-0.0074415
-0.00745893
-0.00710032
-0.00606154
-0.00407481
0.000469319
0.000264448
-0.000382503
-0.000569369
-0.000753682
-0.00158054
-0.00229773
-0.00274936
-0.00338702
-0.00416923
-0.00477516
-0.0052056
-0.00582632
-0.00659922
-0.00716446
-0.00742012
-0.0074046
-0.00700942
-0.00595025
-0.00395523
0.00045239
0.000244074
-0.000395913
-0.00064541
-0.000844431
-0.00161651
-0.00234109
-0.00281058
-0.00340774
-0.00415903
-0.00479603
-0.00524202
-0.00581002
-0.00654461
-0.00712514
-0.00739699
-0.0073572
-0.00692376
-0.0058407
-0.00383511
0.00043389
0.000221636
-0.000409147
-0.000716641
-0.000936782
-0.00165794
-0.00238098
-0.00286887
-0.00343419
-0.0041495
-0.00480785
-0.00527702
-0.00580054
-0.00648957
-0.00707658
-0.00736941
-0.00731776
-0.00684947
-0.00573642
-0.00371561
0.000413894
0.000197041
-0.000422773
-0.000782827
-0.00102938
-0.00170483
-0.00241873
-0.00292342
-0.00346516
-0.00414225
-0.00481052
-0.00530784
-0.0057994
-0.00644026
-0.00702255
-0.00733522
-0.00728321
-0.0067851
-0.00564
-0.0036007
0.00039256
0.00017039
-0.000437523
-0.000844099
-0.00112086
-0.00175688
-0.00245561
-0.00297376
-0.00349959
-0.00413905
-0.0048057
-0.00533293
-0.00580667
-0.00639912
-0.00696522
-0.00729244
-0.00724784
-0.00673005
-0.00555635
-0.00349341
0.000369947
0.000141786
-0.000453801
-0.000900827
-0.00121021
-0.00181335
-0.00249276
-0.00302027
-0.0035361
-0.00414086
-0.00479602
-0.00535063
-0.00581931
-0.0063667
-0.00690796
-0.00724243
-0.00721017
-0.00668363
-0.00548462
-0.00339437
0.00034617
0.000111411
-0.000472081
-0.000953468
-0.00129648
-0.00187351
-0.00253106
-0.0030632
-0.00357326
-0.00414805
-0.00478439
-0.0053601
-0.0058343
-0.00634434
-0.00685554
-0.0071891
-0.00716896
-0.00664055
-0.0054216
-0.00330503
0.000321273
7.94829e-05
-0.000492592
-0.00100273
-0.00137902
-0.00193619
-0.00257134
-0.00310306
-0.00360996
-0.00416077
-0.00477352
-0.00536214
-0.00584868
-0.00633191
-0.00681111
-0.0071359
-0.00712385
-0.00659785
-0.00536577
-0.00322523
0.000295299
4.61851e-05
-0.000515545
-0.00104912
-0.00145731
-0.00200041
-0.00261399
-0.00314088
-0.00364562
-0.00417853
-0.0047654
-0.00535821
-0.00586007
-0.00632784
-0.0067765
-0.00708642
-0.00707693
-0.00655448
-0.00531412
-0.0031531
0.000268288
1.17827e-05
-0.000540925
-0.00109349
-0.00153111
-0.00206483
-0.00265914
-0.00317765
-0.00367978
-0.00420099
-0.00476171
-0.005351
-0.00586744
-0.00632955
-0.00675231
-0.00704341
-0.0070307
-0.00651018
-0.00526459
-0.00308751
0.000240231
-2.35889e-05
-0.000568584
-0.00113636
-0.00160071
-0.00212839
-0.00270637
-0.0032145
-0.00371171
-0.00422726
-0.00476406
-0.00534363
-0.00587126
-0.00633418
-0.00673783
-0.00700879
-0.00698832
-0.00646721
-0.00521806
-0.00302851
0.00021111
-5.9643e-05
-0.000598336
-0.00117828
-0.00166619
-0.00219045
-0.00275549
-0.00325277
-0.00374127
-0.00425575
-0.00477316
-0.00533834
-0.00587283
-0.00633993
-0.00673187
-0.00698393
-0.00695249
-0.0064279
-0.00517547
-0.00297648
0.000180909
-9.6239e-05
-0.000629811
-0.00121943
-0.00172792
-0.00225035
-0.0028057
-0.0032938
-0.00376936
-0.00428535
-0.00479012
-0.00533749
-0.00587385
-0.00634595
-0.00673264
-0.00696871
-0.00692476
-0.00639401
-0.00513774
-0.00293185
0.000149676
-0.00013332
-0.000662866
-0.00125997
-0.00178636
-0.00230806
-0.00285509
-0.00333775
-0.00379801
-0.00431454
-0.00481501
-0.00534323
-0.00587704
-0.0063531
-0.00673896
-0.00696346
-0.0069072
-0.00636849
-0.00510718
-0.00289517
0.000117382
-0.000170728
-0.000697073
-0.00129996
-0.00184192
-0.00236391
-0.00290301
-0.00338439
-0.00382942
-0.00434199
-0.00484564
-0.00535736
-0.00588504
-0.00636261
-0.00674985
-0.00696766
-0.00690077
-0.00635373
-0.00508641
-0.00286862
8.41625e-05
-0.000208424
-0.000732492
-0.00133905
-0.00189402
-0.00241849
-0.00294956
-0.00343246
-0.00386598
-0.00436849
-0.00488024
-0.00538137
-0.0059003
-0.00637684
-0.00676577
-0.00698078
-0.00690557
-0.00635074
-0.00507679
-0.00285317
4.97724e-05
-0.000246172
-0.000768473
-0.00137789
-0.00194277
-0.00247106
-0.00299485
-0.00348012
-0.00390904
-0.00439674
-0.00491588
-0.00541292
-0.00592256
-0.00639773
-0.00678822
-0.00700395
-0.00692323
-0.00636196
-0.00508186
-0.00285323
1.41767e-05
-0.000283881
-0.000804301
-0.00141579
-0.00198888
-0.002522
-0.00304022
-0.0035273
-0.00395877
-0.00443187
-0.00495421
-0.00545156
-0.00595269
-0.00642603
-0.00681776
-0.00703682
-0.0069537
-0.0063877
-0.00510157
-0.00286702
-2.25041e-05
-0.000322192
-0.000840621
-0.00145206
-0.00203046
-0.00256922
-0.00308515
-0.0035722
-0.00401108
-0.00447395
-0.00499534
-0.00549765
-0.00599281
-0.00646437
-0.00685784
-0.00708181
-0.00700134
-0.00643406
-0.00514352
-0.00290275
-6.03708e-05
-0.000359205
-0.000875737
-0.00148793
-0.00207139
-0.00261523
-0.00313233
-0.00361878
-0.00406569
-0.00452175
-0.00503713
-0.00554541
-0.00603849
-0.00650914
-0.00690441
-0.00713535
-0.00706203
-0.00649865
-0.00520847
-0.00296495
-0.000100184
-0.00039695
-0.000908173
-0.00151753
-0.00210589
-0.00265748
-0.00318222
-0.00367415
-0.0041302
-0.00458345
-0.00508933
-0.00560215
-0.00609694
-0.00656846
-0.00696589
-0.00720287
-0.00713815
-0.00658145
-0.00529379
-0.00304755
-0.000143459
-0.000434892
-0.000941556
-0.00154134
-0.00212727
-0.00268217
-0.00322298
-0.00372722
-0.00419453
-0.00464936
-0.00514458
-0.00565978
-0.00616003
-0.00663653
-0.00704026
-0.00728558
-0.00723044
-0.00668362
-0.00540764
-0.00317302
-0.000186864
-0.00048967
-0.000984056
-0.00158
-0.00216506
-0.00272259
-0.00326587
-0.00378037
-0.00425479
-0.00471017
-0.00519448
-0.00570682
-0.00621493
-0.00670068
-0.00711801
-0.00737815
-0.00733833
-0.00680384
-0.00553662
-0.00330978
-0.000218864
-0.000468326
-0.000972295
-0.00156251
-0.00217919
-0.00279139
-0.00337843
-0.0039037
-0.00436424
-0.00479892
-0.00526584
-0.00577135
-0.00628571
-0.00678225
-0.00721774
-0.00749893
-0.00748151
-0.00696694
-0.00571021
-0.00347885
-0.000350692
-0.000616775
-0.0010038
-0.00153543
-0.00208568
-0.00269765
-0.00339245
-0.00398344
-0.00444835
-0.00487373
-0.00532757
-0.00583358
-0.00635986
-0.00687698
-0.00733947
-0.0076565
-0.0076832
-0.0072149
-0.00600288
-0.00381105
-0.000244951
-0.000543437
-0.00104538
-0.00165012
-0.00229133
-0.00292996
-0.00352084
-0.00402888
-0.00445395
-0.00485081
-0.00529932
-0.00580614
-0.00633318
-0.00684685
-0.00730631
-0.00764304
-0.00771813
-0.00733034
-0.00622964
-0.00417745
-0.000379204
-0.000600286
-0.00110167
-0.00164641
-0.00224119
-0.00291124
-0.00355758
-0.00409008
-0.00457225
-0.00499377
-0.00547343
-0.0059911
-0.00653299
-0.00702185
-0.00740639
-0.00760595
-0.00754103
-0.00704776
-0.00589458
-0.00382577
-0.000227595
-0.000611658
-0.00117369
-0.00179863
-0.00241902
-0.00297922
-0.00346864
-0.00390297
-0.00433827
-0.00478323
-0.00527317
-0.00581681
-0.00643143
-0.00711163
-0.00782612
-0.00847291
-0.00887932
-0.00880163
-0.00795768
-0.00610612
-6.74413e-05
-0.000749292
-0.00133561
-0.00197091
-0.00254632
-0.00322413
-0.00384344
-0.00425714
-0.00464837
-0.00514331
-0.00565953
-0.00612952
-0.00636228
-0.00623567
-0.00569663
-0.00484711
-0.00388373
-0.00311456
-0.00290668
-0.00358746
-9.45502e-05
-0.00072856
-0.00135917
-0.00193177
-0.00237714
-0.00276893
-0.00316011
-0.00364229
-0.00416851
-0.0047561
-0.00543371
-0.00623708
-0.00715193
-0.00811794
-0.00908873
-0.00997326
-0.0106101
-0.0107715
-0.0101771
-0.00857679
4.02119e-05
-0.000790297
-0.00143444
-0.00202083
-0.0024953
-0.0030723
-0.00366747
-0.00433266
-0.00493047
-0.00532458
-0.00569978
-0.00618835
-0.00663645
-0.00688819
-0.00678878
-0.00633629
-0.00565771
-0.00505578
-0.00492754
-0.00563674
2.28014e-05
-0.000817283
-0.00146988
-0.00197518
-0.00224933
-0.00249333
-0.00274674
-0.00317035
-0.00375983
-0.00457237
-0.00561398
-0.00695137
-0.00855546
-0.0102559
-0.0118155
-0.0130496
-0.0138122
-0.0139299
-0.0131799
-0.011362
-0.00771977
-0.0127443
-0.0142441
-0.0119447
-0.00921329
-0.00685455
-0.0049389
-0.00347571
-0.00223462
-0.000911276
0.000533398
0.00189488
0.00309529
0.00432045
0.0056271
0.0069352
0.00825415
0.00960305
0.0110123
0.0124728
0.0139358
0.0154259
0.0169757
0.0185725
0.0202298
0.0219427
0.0237322
0.0255917
0.0275359
0.0295431
0.0315941
0.0337191
0.0359201
0.0382362
0.0406208
0.0430883
0.0456073
0.0482329
0.0509153
0.0536999
0.0565905
0.059574
0.0626633
0.0658205
0.0691297
0.0725131
0.0760802
0.0796665
0.0832872
0.0872514
-0.00768402
-0.0126767
-0.0142032
-0.0119291
-0.00920464
-0.00684854
-0.00493419
-0.00347186
-0.00223154
-0.000908831
0.00053543
0.00189666
0.00309683
0.00432177
0.00562825
0.00693624
0.00825508
0.00960387
0.011013
0.0124735
0.0139364
0.0154264
0.0169762
0.018573
0.0202302
0.0219431
0.0237325
0.0255919
0.0275362
0.0295433
0.0315944
0.0337193
0.0359203
0.0382364
0.0406209
0.0430884
0.0456074
0.0482331
0.0509155
0.0537
0.0565906
0.0595741
0.0626634
0.0658206
0.0691298
0.0725132
0.0760803
0.0796666
0.0832873
0.0872515
-0.00772487
-0.0125806
-0.0141351
-0.0119079
-0.00919489
-0.00684218
-0.00492952
-0.00346818
-0.00222863
-0.000906522
0.00053735
0.00189832
0.00309824
0.00432296
0.0056293
0.00693717
0.0082559
0.0096046
0.0110136
0.0124741
0.0139369
0.0154269
0.0169766
0.0185734
0.0202306
0.0219434
0.0237328
0.0255922
0.0275364
0.0295435
0.0315946
0.0337195
0.0359204
0.0382365
0.0406211
0.0430886
0.0456076
0.0482332
0.0509156
0.0537001
0.0565907
0.0595742
0.0626635
0.0658207
0.0691299
0.0725133
0.0760804
0.0796667
0.0832873
0.0872515
-0.00777134
-0.0124485
-0.0140306
-0.0118747
-0.00918131
-0.00683401
-0.00492408
-0.0034641
-0.00222532
-0.000903862
0.000539495
0.00190009
0.00309971
0.00432421
0.0056304
0.00693812
0.00825675
0.00960534
0.0110143
0.0124747
0.0139374
0.0154273
0.016977
0.0185737
0.0202309
0.0219437
0.0237331
0.0255924
0.0275366
0.0295437
0.0315948
0.0337196
0.0359206
0.0382367
0.0406212
0.0430887
0.0456077
0.0482333
0.0509157
0.0537002
0.0565908
0.0595743
0.0626636
0.0658208
0.06913
0.0725133
0.0760804
0.0796667
0.0832874
0.0872516
-0.00779779
-0.0122866
-0.0138958
-0.0118293
-0.00916279
-0.00682299
-0.00491722
-0.0034592
-0.0022212
-0.000900423
0.000542153
0.00190216
0.00310143
0.0043257
0.00563167
0.0069392
0.0082577
0.00960618
0.011015
0.0124753
0.013938
0.0154278
0.0169775
0.0185741
0.0202313
0.021944
0.0237334
0.0255927
0.0275369
0.029544
0.031595
0.0337198
0.0359208
0.0382369
0.0406214
0.0430889
0.0456079
0.0482334
0.0509158
0.0537004
0.0565909
0.0595744
0.0626637
0.0658209
0.0691301
0.0725134
0.0760805
0.0796668
0.0832876
0.0872518
-0.00781313
-0.0121096
-0.0137439
-0.0117761
-0.00914039
-0.00680913
-0.00490874
-0.00345338
-0.0022161
-0.000895996
0.000545479
0.0019046
0.00310347
0.00432753
0.00563323
0.00694047
0.00825879
0.00960714
0.0110159
0.0124761
0.0139387
0.0154284
0.016978
0.0185746
0.0202317
0.0219444
0.0237337
0.025593
0.0275371
0.0295442
0.0315952
0.03372
0.035921
0.038237
0.0406216
0.043089
0.045608
0.0482336
0.0509159
0.0537005
0.056591
0.0595745
0.0626638
0.065821
0.0691301
0.0725135
0.0760806
0.0796669
0.0832877
0.087252
-0.00782792
-0.0119257
-0.0135822
-0.0117184
-0.0091157
-0.00679301
-0.0048987
-0.00344665
-0.00221011
-0.000890577
0.000549523
0.00190744
0.00310587
0.0043298
0.00563518
0.00694202
0.00826008
0.00960826
0.0110169
0.012477
0.0139395
0.0154291
0.0169786
0.0185751
0.0202322
0.0219449
0.0237341
0.0255934
0.0275374
0.0295445
0.0315954
0.0337202
0.0359212
0.0382372
0.0406218
0.0430892
0.0456082
0.0482337
0.0509161
0.0537006
0.0565911
0.0595746
0.0626639
0.0658211
0.0691302
0.0725136
0.0760807
0.079667
0.0832879
0.0872523
-0.00784435
-0.011737
-0.013413
-0.0116578
-0.00908978
-0.00677528
-0.0048873
-0.00343912
-0.00220343
-0.000884349
0.000554221
0.00191064
0.0031086
0.00433252
0.00563762
0.00694397
0.00826166
0.00960957
0.011018
0.012478
0.0139404
0.0154299
0.0169793
0.0185758
0.0202328
0.0219454
0.0237346
0.0255938
0.0275378
0.0295448
0.0315957
0.0337205
0.0359214
0.0382374
0.040622
0.0430894
0.0456083
0.0482339
0.0509162
0.0537007
0.0565913
0.0595747
0.062664
0.0658212
0.0691303
0.0725137
0.0760808
0.0796671
0.0832881
0.0872527
-0.00786052
-0.0115435
-0.0132369
-0.0115946
-0.00906312
-0.00675642
-0.00487477
-0.00343091
-0.00219627
-0.000877572
0.000559425
0.00191414
0.00311157
0.00433561
0.00564053
0.00694641
0.00826363
0.00961114
0.0110193
0.0124792
0.0139414
0.0154308
0.0169801
0.0185765
0.0202335
0.021946
0.0237351
0.0255942
0.0275382
0.0295452
0.031596
0.0337207
0.0359216
0.0382376
0.0406222
0.0430896
0.0456085
0.0482341
0.0509164
0.0537009
0.0565914
0.0595748
0.0626641
0.0658213
0.0691305
0.0725138
0.0760809
0.0796673
0.0832884
0.0872531
-0.00787489
-0.0113461
-0.0130542
-0.0115289
-0.00903593
-0.00673669
-0.00486128
-0.00342214
-0.0021888
-0.000870454
0.000564993
0.00191789
0.0031147
0.00433894
0.00564383
0.00694936
0.00826609
0.00961302
0.0110208
0.0124805
0.0139425
0.0154318
0.016981
0.0185774
0.0202343
0.0219467
0.0237357
0.0255948
0.0275387
0.0295456
0.0315963
0.033721
0.0359219
0.0382379
0.0406224
0.0430898
0.0456087
0.0482342
0.0509166
0.053701
0.0565915
0.059575
0.0626643
0.0658214
0.0691306
0.0725139
0.076081
0.0796674