/*--------------------------------*- C++ -*----------------------------------*\
| =========                 |                                                 |
| \\      /  F ield         | OpenFOAM: The Open Source CFD Toolbox           |
|  \\    /   O peration     | Version:  v2012                                 |
|   \\  /    A nd           | Website:  www.openfoam.com                      |
|    \\/     M anipulation  |                                                 |
\*---------------------------------------------------------------------------*/
FoamFile
{
    version     2.0;
    format      ascii;
    class       volVectorField;
    location    "9.2";
    object      U;
}
// * * * * * * * * * * * * * * * * * * * * * * * * * * * * * * * * * * * * * //

dimensions      [0 1 -1 0 0 0 0];


internalField   nonuniform List<vector> 
7000
(
(0.946605 0.0022166 0)
(1.11102 -0.000353581 0)
(0.840442 -0.00824183 0)
(1.07529 0.0119675 0)
(0.997271 0.00359797 0)
(0.98897 0.000776034 0)
(0.988932 -0.00137515 0)
(1.01876 -0.0253744 0)
(0.926243 0.00283742 0)
(1.14259 -0.0208647 0)
(0.839035 0.00351895 0)
(1.22918 -0.00921999 0)
(0.798995 0.00921276 0)
(1.23466 0.00738179 0)
(0.801898 0.0129488 0)
(1.20624 0.016342 0)
(0.824393 0.0151079 0)
(1.16602 0.021565 0)
(0.851107 0.0164855 0)
(1.13018 0.0227231 0)
(0.949775 0.00194793 0)
(1.1038 0.000293133 0)
(0.852516 -0.00817594 0)
(1.07167 0.0112784 0)
(1.00304 0.00418523 0)
(0.990241 0.000877857 0)
(0.993492 -0.00165726 0)
(1.01041 -0.0245628 0)
(0.933361 0.00122544 0)
(1.12558 -0.019366 0)
(0.850067 0.00202357 0)
(1.20959 -0.0080776 0)
(0.81214 0.00896502 0)
(1.20977 0.00780928 0)
(0.825875 0.0132139 0)
(1.16888 0.0160478 0)
(0.869833 0.0160052 0)
(1.10707 0.0205533 0)
(0.924711 0.0180823 0)
(1.04335 0.0211086 0)
(0.95604 0.00168705 0)
(1.09067 0.000810424 0)
(0.873826 -0.0081495 0)
(1.06252 0.010437 0)
(1.01085 0.00470076 0)
(0.992115 0.000945643 0)
(0.998688 -0.00180712 0)
(1.00044 -0.0239999 0)
(0.946075 -0.000159615 0)
(1.1007 -0.0181907 0)
(0.877301 0.000406548 0)
(1.17439 -0.00704968 0)
(0.851604 0.00845095 0)
(1.15968 0.00804188 0)
(0.881811 0.0137096 0)
(1.10351 0.0153434 0)
(0.934614 0.0174472 0)
(1.03881 0.019203 0)
(0.977022 0.0197817 0)
(0.995855 0.0199745 0)
(0.964601 0.00148521 0)
(1.07346 0.00122134 0)
(0.900971 -0.00811482 0)
(1.04855 0.00972851 0)
(1.01652 0.00509379 0)
(0.993809 0.00103975 0)
(1.00236 -0.00182897 0)
(0.991225 -0.023534 0)
(0.961093 -0.00122879 0)
(1.07141 -0.0173618 0)
(0.915753 -0.000764008 0)
(1.12947 -0.00650092 0)
(0.908242 0.0083746 0)
(1.10147 0.00772181 0)
(0.943655 0.0146279 0)
(1.04549 0.0144147 0)
(0.980132 0.018814 0)
(1.00094 0.0184013 0)
(0.995324 0.020783 0)
(0.983132 0.0198031 0)
(0.974233 0.00132677 0)
(1.05454 0.00153246 0)
(0.929399 -0.00805529 0)
(1.03253 0.00915074 0)
(1.01813 0.00539438 0)
(0.995185 0.00115241 0)
(1.0041 -0.00176291 0)
(0.985157 -0.0231772 0)
(0.974233 -0.00205389 0)
(1.04367 -0.0169216 0)
(0.953586 -0.0015296 0)
(1.08605 -0.00645725 0)
(0.96133 0.00883336 0)
(1.05735 0.00711178 0)
(0.988875 0.0157307 0)
(1.01677 0.0137615 0)
(1.00212 0.0198286 0)
(0.993418 0.0182631 0)
(0.999765 0.0212537 0)
(0.986535 0.0200951 0)
(0.983627 0.0012089 0)
(1.03641 0.00174604 0)
(0.954928 -0.00797906 0)
(1.01772 0.00870031 0)
(1.01601 0.00559587 0)
(0.996358 0.00125605 0)
(1.00477 -0.00164302 0)
(0.983056 -0.0229139 0)
(0.982911 -0.00263478 0)
(1.02219 -0.0168068 0)
(0.981111 -0.00200805 0)
(1.05256 -0.00675129 0)
(0.997291 0.00942932 0)
(1.03475 0.00655918 0)
(1.01348 0.0166389 0)
(1.01228 0.013543 0)
(1.01139 0.0205004 0)
(1.00019 0.0184327 0)
(1.003 0.0215448 0)
(0.995019 0.0204344 0)
(0.991748 0.00113122 0)
(1.02097 0.00187254 0)
(0.975034 -0.00789708 0)
(1.00645 0.0083898 0)
(1.0118 0.00570269 0)
(0.997343 0.00132946 0)
(1.0055 -0.0015033 0)
(0.984165 -0.0227015 0)
(0.987227 -0.00300708 0)
(1.00815 -0.0169169 0)
(0.995857 -0.00228728 0)
(1.03046 -0.00722024 0)
(1.01487 0.00983972 0)
(1.02672 0.00615613 0)
(1.02337 0.0172062 0)
(1.01699 0.0135721 0)
(1.01581 0.0209313 0)
(1.00895 0.0186738 0)
(1.00725 0.0218035 0)
(1.00305 0.0207315 0)
(0.998054 0.00108781 0)
(1.00915 0.00193211 0)
(0.989131 -0.00781965 0)
(0.999436 0.00820693 0)
(1.00739 0.00573716 0)
(0.998123 0.00135871 0)
(1.00686 -0.00137164 0)
(0.987049 -0.0224956 0)
(0.988919 -0.00322164 0)
(0.999951 -0.0171416 0)
(1.00073 -0.00244037 0)
(1.01663 -0.00776378 0)
(1.01943 0.0100094 0)
(1.02369 0.00582667 0)
(1.02502 0.017514 0)
(1.02091 0.0136496 0)
(1.01772 0.0212378 0)
(1.01448 0.0189278 0)
(1.0108 0.0220494 0)
(1.00828 0.0210218 0)
(1.0025 0.00107029 0)
(1.00088 0.00194725 0)
(0.998044 -0.00775524 0)
(0.996033 0.00811904 0)
(1.00408 0.00572813 0)
(0.998763 0.00133853 0)
(1.0087 -0.00126287 0)
(0.990405 -0.02227 0)
(0.989772 -0.00332396 0)
(0.995304 -0.0173899 0)
(1.00005 -0.00250612 0)
(1.00734 -0.00832144 0)
(1.01691 0.0100122 0)
(1.02042 0.00550009 0)
(1.02246 0.0176885 0)
(1.02118 0.0136971 0)
(1.01738 0.0214881 0)
(1.01611 0.0191836 0)
(1.01235 0.0222735 0)
(1.01046 0.0213166 0)
(1.00535 0.00107115 0)
(0.995513 0.00193562 0)
(1.0032 -0.00770832 0)
(0.994959 0.00809137 0)
(1.00225 0.00569797 0)
(0.999346 0.0012742 0)
(1.01052 -0.00117964 0)
(0.993394 -0.02202 0)
(0.990793 -0.00334389 0)
(0.992514 -0.017602 0)
(0.99713 -0.00249957 0)
(1.00019 -0.00885753 0)
(1.01131 0.0099182 0)
(1.01574 0.00515728 0)
(1.01787 0.017789 0)
(1.01854 0.0137084 0)
(1.01521 0.0216791 0)
(1.01505 0.0194259 0)
(1.01208 0.0224505 0)
(1.01055 0.0215869 0)
(1.00696 0.00108478 0)
(0.992296 0.00190844 0)
(1.00596 -0.0076783 0)
(0.994982 0.00809549 0)
(1.00165 0.00565988 0)
(0.999884 0.0011778 0)
(1.01186 -0.00111667 0)
(0.995642 -0.0217544 0)
(0.992203 -0.00330101 0)
(0.990718 -0.0177462 0)
(0.993907 -0.00242663 0)
(0.994136 -0.00934439 0)
(1.0048 0.00977234 0)
(1.01009 0.00480277 0)
(1.01247 0.0178146 0)
(1.01448 0.0136925 0)
(1.01207 0.0217767 0)
(1.01278 0.0196365 0)
(1.01084 0.0225504 0)
(1.00977 0.0218019 0)
(1.00765 0.00110714 0)
(0.990652 0.00187172 0)
(1.00728 -0.00766051 0)
(0.995284 0.00811171 0)
(1.00181 0.00561987 0)
(1.00031 0.00106286 0)
(1.01251 -0.00106636 0)
(0.997122 -0.0214851 0)
(0.99375 -0.00321188 0)
(0.989602 -0.0178125 0)
(0.991268 -0.00229213 0)
(0.988971 -0.00975841 0)
(0.998456 0.00960048 0)
(1.00411 0.00444441 0)
(1.00695 0.0177475 0)
(1.01 0.0136552 0)
(1.0087 0.0217542 0)
(1.01029 0.0198023 0)
(1.00938 0.0225584 0)
(1.00887 0.0219483 0)
(1.00762 0.00113497 0)
(0.990243 0.00182844 0)
(1.00765 -0.00764788 0)
(0.995497 0.00812765 0)
(1.00233 0.00558021 0)
(1.00058 0.000941586 0)
(1.01246 -0.001023 0)
(0.998004 -0.0212212 0)
(0.995037 -0.00309211 0)
(0.989104 -0.0178092 0)
(0.98946 -0.00208994 0)
(0.984882 -0.0100771 0)
(0.992854 0.00941682 0)
(0.998301 0.00409704 0)
(1.00168 0.0175759 0)
(1.0055 0.0135983 0)
(1.00541 0.0215997 0)
(1.00785 0.019918 0)
(1.00789 0.0224768 0)
(1.00797 0.0220238 0)
(1.007 0.00116524 0)
(0.990861 0.00178061 0)
(1.00728 -0.00763266 0)
(0.995577 0.00813498 0)
(1.003 0.00554234 0)
(1.00069 0.000822962 0)
(1.01188 -0.000983083 0)
(0.9985 -0.0209658 0)
(0.995748 -0.00295719 0)
(0.989207 -0.0177515 0)
(0.988353 -0.00183439 0)
(0.982125 -0.0102883 0)
(0.988282 0.00923517 0)
(0.993041 0.00378809 0)
(0.996807 0.0173005 0)
(1.00109 0.013525 0)
(1.00216 0.0213122 0)
(1.00531 0.0199818 0)
(1.00619 0.0223172 0)
(1.0068 0.0220323 0)
(1.00593 0.00119496 0)
(0.992295 0.00173048 0)
(1.00626 -0.00760796 0)
(0.995632 0.00812672 0)
(1.00373 0.00550786 0)
(1.00069 0.000712858 0)
(1.01101 -0.000944688 0)
(0.998768 -0.0207162 0)
(0.995782 -0.00282211 0)
(0.989832 -0.0176564 0)
(0.987671 -0.00154778 0)
(0.980799 -0.0103945 0)
(0.98484 0.00906335 0)
(0.98865 0.00354764 0)
(0.992449 0.0169347 0)
(0.996836 0.0134488 0)
(0.998865 0.0209042 0)
(1.00249 0.0199884 0)
(1.00408 0.022091 0)
(1.0051 0.0219825 0)
(1.00461 0.00122145 0)
(0.994263 0.0016809 0)
(1.00469 -0.00756897 0)
(0.995786 0.00809611 0)
(1.0045 0.00547887 0)
(1.00062 0.000614574 0)
(1.01009 -0.000906592 0)
(0.998888 -0.0204652 0)
(0.995252 -0.00270019 0)
(0.990813 -0.0175371 0)
(0.98718 -0.00124783 0)
(0.980737 -0.0103979 0)
(0.982504 0.00890693 0)
(0.985349 0.00340163 0)
(0.988772 0.0164979 0)
(0.992923 0.0133924 0)
(0.995602 0.0204066 0)
(0.999419 0.0199386 0)
(1.00156 0.0218064 0)
(1.00287 0.0218804 0)
(1.00324 0.00124274 0)
(0.99642 0.00163503 0)
(1.00278 -0.00751365 0)
(0.996097 0.00803694 0)
(1.00533 0.00545825 0)
(1.0005 0.000528563 0)
(1.00932 -0.00086725 0)
(0.998904 -0.0202049 0)
(0.994399 -0.00260104 0)
(0.99193 -0.0173982 0)
(0.986781 -0.000965145 0)
(0.981551 -0.0103075 0)
(0.981171 0.00876865 0)
(0.983197 0.00337049 0)
(0.985975 0.016013 0)
(0.989621 0.0133738 0)
(0.99264 0.0198577 0)
(0.996387 0.0198485 0)
(0.998912 0.0214808 0)
(1.00039 0.021731 0)
(1.00201 0.00125791 0)
(0.998427 0.00159561 0)
(1.00076 -0.0074426 0)
(0.996539 0.00794443 0)
(1.00621 0.00544921 0)
(1.0003 0.000453404 0)
(1.00875 -0.000825561 0)
(0.998861 -0.019929 0)
(0.993467 -0.00252975 0)
(0.992994 -0.0172422 0)
(0.986491 -0.000712428 0)
(0.982771 -0.0101401 0)
(0.980673 0.00863206 0)
(0.982078 0.00345644 0)
(0.984168 0.0155027 0)
(0.987143 0.013401 0)
(0.990278 0.0192902 0)
(0.993735 0.0197327 0)
(0.996508 0.0211374 0)
(0.998007 0.021547 0)
(1.00107 0.00126718 0)
(1.00003 0.00156456 0)
(0.99888 -0.00735839 0)
(0.997034 0.00781585 0)
(1.00714 0.00545443 0)
(1.00003 0.000387344 0)
(1.00837 -0.000781321 0)
(0.99883 -0.0196335 0)
(0.992616 -0.00248835 0)
(0.993885 -0.0170683 0)
(0.986369 -0.000500322 0)
(0.984012 -0.00990542 0)
(0.980791 0.00847451 0)
(0.981747 0.00364908 0)
(0.983288 0.0149842 0)
(0.985529 0.0134725 0)
(0.988663 0.0187324 0)
(0.991683 0.0196003 0)
(0.994594 0.0207895 0)
(0.995999 0.0213378 0)
(1.0005 0.00127153 0)
(1.00111 0.00154295 0)
(0.997266 -0.00726459 0)
(0.997495 0.00765043 0)
(1.00811 0.00547593 0)
(0.99973 0.000329274 0)
(1.00809 -0.000735727 0)
(0.998886 -0.0193165 0)
(0.991916 -0.00247398 0)
(0.994556 -0.0168768 0)
(0.986433 -0.000344397 0)
(0.985059 -0.00960001 0)
(0.981288 0.00827909 0)
(0.981922 0.00393022 0)
(0.98311 0.0144668 0)
(0.984649 0.0135814 0)
(0.987736 0.0182021 0)
(0.990252 0.0194555 0)
(0.993226 0.0204533 0)
(0.994451 0.0211105 0)
(1.00028 0.00127226 0)
(1.0017 0.00153126 0)
(0.995964 -0.00716459 0)
(0.997858 0.00744872 0)
(1.00907 0.005514 0)
(0.99948 0.000280632 0)
(1.00786 -0.000693657 0)
(0.999075 -0.0189756 0)
(0.991393 -0.0024835 0)
(0.995006 -0.0166633 0)
(0.986645 -0.000250947 0)
(0.985856 -0.00922003 0)
(0.981955 0.00803795 0)
(0.982367 0.0042792 0)
(0.983358 0.0139545 0)
(0.984291 0.0137224 0)
(0.987316 0.0177119 0)
(0.989336 0.0192777 0)
(0.992326 0.0201365 0)
(0.993322 0.0208853 0)
(1.00031 0.00127039 0)
(1.00195 0.00152968 0)
(0.994944 -0.00706073 0)
(0.998085 0.00721223 0)
(1.00998 0.00556658 0)
(0.999361 0.000242466 0)
(1.00766 -0.000656306 0)
(0.999392 -0.0186143 0)
(0.991071 -0.00251327 0)
(0.995247 -0.016417 0)
(0.986933 -0.000214767 0)
(0.98643 -0.00877645 0)
(0.982645 0.00774632 0)
(0.982925 0.00468297 0)
(0.98381 0.0134491 0)
(0.984273 0.0138801 0)
(0.987222 0.0172983 0)
(0.988817 0.0190702 0)
(0.991792 0.0198003 0)
(0.992551 0.0206544 0)
(1.00048 0.00126637 0)
(1.00203 0.00153811 0)
(0.994156 -0.00695362 0)
(0.998157 0.00694279 0)
(1.01077 0.00563063 0)
(0.999436 0.000213343 0)
(1.00748 -0.000622115 0)
(0.999796 -0.0182338 0)
(0.990983 -0.00255818 0)
(0.995302 -0.0161359 0)
(0.987225 -0.000239629 0)
(0.986826 -0.00827585 0)
(0.983275 0.00739963 0)
(0.983509 0.00512809 0)
(0.984337 0.0129597 0)
(0.984492 0.0140099 0)
(0.987344 0.0169645 0)
(0.988618 0.0189057 0)
(0.991552 0.0194636 0)
(0.992108 0.0203879 0)
(1.00067 0.00126018 0)
(1.0021 0.00155564 0)
(0.993568 -0.00684172 0)
(0.998062 0.00664263 0)
(1.01137 0.00570083 0)
(0.999728 0.000193904 0)
(1.00735 -0.000593373 0)
(1.00023 -0.0178324 0)
(0.991149 -0.00261526 0)
(0.995205 -0.0158104 0)
(0.987477 -0.000337369 0)
(0.987072 -0.00771424 0)
(0.983801 0.0069966 0)
(0.984075 0.00559026 0)
(0.984878 0.0125188 0)
(0.984896 0.0140994 0)
(0.987635 0.0166391 0)
(0.988709 0.0187554 0)
(0.991559 0.0191902 0)
(0.991974 0.0201337 0)
(1.0008 0.00125138 0)
(1.00225 0.00158091 0)
(0.993182 -0.00672226 0)
(0.997801 0.00631602 0)
(1.0117 0.00576913 0)
(1.00022 0.000182852 0)
(1.00729 -0.000566756 0)
(1.00064 -0.0174151 0)
(0.991553 -0.00268977 0)
(0.995006 -0.0154081 0)
(0.987671 -0.000511619 0)
(0.987191 -0.00710134 0)
(0.984204 0.0065559 0)
(0.984595 0.00603389 0)
(0.985394 0.0121258 0)
(0.98544 0.0141846 0)
(0.988054 0.0163471 0)
(0.989068 0.0185527 0)
(0.99178 0.0189018 0)
(0.992119 0.0198863 0)
(1.00081 0.00123928 0)
(1.00251 0.00161204 0)
(0.993021 -0.00659267 0)
(0.997393 0.00596947 0)
(1.0117 0.00582938 0)
(1.00086 0.000174144 0)
(1.00729 -0.000541911 0)
(1.001 -0.0169724 0)
(0.992138 -0.0027891 0)
(0.994755 -0.0149408 0)
(0.987809 -0.000720539 0)
(0.987205 -0.00645825 0)
(0.984475 0.00608549 0)
(0.985046 0.00645104 0)
(0.985852 0.0117592 0)
(0.986076 0.0142359 0)
(0.988539 0.0161111 0)
(0.989619 0.018361 0)
(0.992153 0.0186129 0)
(0.992488 0.0196086 0)
(1.0007 0.00122351 0)
(1.00288 0.00164555 0)
(0.99311 -0.00644898 0)
(0.996878 0.00560962 0)
(1.01135 0.00587452 0)
(1.00158 0.00016973 0)
(1.00733 -0.0005266 0)
(1.0013 -0.0165074 0)
(0.992822 -0.00289493 0)
(0.994497 -0.0144188 0)
(0.987908 -0.00098896 0)
(0.987143 -0.00574273 0)
(0.984631 0.00559499 0)
(0.985418 0.00680319 0)
(0.986216 0.0114229 0)
(0.986741 0.0142464 0)
(0.989035 0.0158991 0)
(0.990282 0.0181204 0)
(0.992591 0.0183086 0)
(0.992981 0.0193446 0)
(1.00046 0.00120502 0)
(1.00328 0.00167506 0)
(0.993458 -0.00628482 0)
(0.996313 0.00524225 0)
(1.01066 0.00590144 0)
(1.00229 0.000158104 0)
(1.00736 -0.000495344 0)
(1.00156 -0.0160358 0)
(0.993516 -0.00302934 0)
(0.994257 -0.0137914 0)
(0.987996 -0.00132019 0)
(0.987043 -0.00507357 0)
(0.984701 0.00518667 0)
(0.985715 0.00709683 0)
(0.986481 0.0111183 0)
(0.987376 0.0141775 0)
(0.989469 0.0157544 0)
(0.990946 0.0178938 0)
(0.993023 0.0179312 0)
(0.993509 0.019014 0)
(1.00012 0.00118346 0)
(1.00368 0.00169853 0)
(0.994046 -0.00610388 0)
(0.995763 0.00488243 0)
(1.00969 0.00590762 0)
(1.00295 0.000130306 0)
(1.00735 -0.000475591 0)
(1.00176 -0.0155133 0)
(0.994149 -0.00318734 0)
(0.994047 -0.0131481 0)
(0.988091 -0.00157862 0)
(0.986946 -0.00441845 0)
(0.984744 0.00472493 0)
(0.985944 0.00735846 0)
(0.986647 0.0108812 0)
(0.987944 0.0140729 0)
(0.989831 0.0155336 0)
(0.991537 0.0177566 0)
(0.993386 0.0176601 0)
(0.994003 0.0186886 0)
(0.999728 0.00115894 0)
(1.00402 0.00171376 0)
(0.994826 -0.00590956 0)
(0.995287 0.00454449 0)
(1.00854 0.00587426 0)
(1.00349 0.00011896 0)
(1.00725 -0.000509191 0)
(1.00193 -0.0149404 0)
(0.994668 -0.00339422 0)
(0.99387 -0.0123681 0)
(0.988232 -0.00200759 0)
(0.986858 -0.00358514 0)
(0.984805 0.00422555 0)
(0.986146 0.0075358 0)
(0.986756 0.0105762 0)
(0.9884 0.0140047 0)
(0.990105 0.0152558 0)
(0.992028 0.0175434 0)
(0.993644 0.0173712 0)
(0.994382 0.0184002 0)
(0.999311 0.00113976 0)
(1.00426 0.00170411 0)
(0.995724 -0.00568353 0)
(0.994929 0.00420928 0)
(1.00731 0.00584235 0)
(1.0039 5.05881e-05 0)
(1.00704 -0.000474107 0)
(1.00205 -0.0144183 0)
(0.995064 -0.00355429 0)
(0.993712 -0.0116266 0)
(0.988426 -0.00227546 0)
(0.986829 -0.00302197 0)
(0.984917 0.00395301 0)
(0.986324 0.00764695 0)
(0.986855 0.0103574 0)
(0.988775 0.0137974 0)
(0.990299 0.0150169 0)
(0.992355 0.0172542 0)
(0.993773 0.0170963 0)
(0.994617 0.0181028 0)
(0.998908 0.00111034 0)
(1.0044 0.00169816 0)
(0.996658 -0.00547218 0)
(0.994709 0.0039413 0)
(1.00611 0.00574324 0)
(1.00419 4.55741e-05 0)
(1.00673 -0.000547088 0)
(1.00214 -0.0137704 0)
(0.995333 -0.00380493 0)
(0.993583 -0.010794 0)
(0.98867 -0.00259075 0)
(0.986844 -0.00242488 0)
(0.985139 0.0036955 0)
(0.986517 0.00763905 0)
(0.986971 0.0102766 0)
(0.989066 0.0135425 0)
(0.990481 0.0147647 0)
(0.992633 0.0169386 0)
(0.993897 0.0168951 0)
(0.994781 0.0178181 0)
(0.998551 0.00109073 0)
(1.00442 0.00166222 0)
(0.997553 -0.00523139 0)
(0.994615 0.00367089 0)
(1.00504 0.00566458 0)
(1.00437 -1.06304e-05 0)
(1.00634 -0.000578894 0)
(1.00219 -0.013165 0)
(0.995509 -0.0040139 0)
(0.993459 -0.0100461 0)
(0.988963 -0.00290963 0)
(0.986938 -0.00181179 0)
(0.985431 0.00354584 0)
(0.986747 0.00742709 0)
(0.987157 0.0102392 0)
(0.989306 0.013243 0)
(0.990641 0.0145789 0)
(0.992781 0.016477 0)
(0.99393 0.0166743 0)
(0.99481 0.0175405 0)
(0.998262 0.00108435 0)
(1.00436 0.00159191 0)
(0.998346 -0.00496171 0)
(0.994632 0.00340819 0)
(1.00413 0.00558408 0)
(1.00447 -9.38036e-05 0)
(1.00589 -0.000572489 0)
(1.00221 -0.0126048 0)
(0.995606 -0.00412229 0)
(0.993364 -0.00937119 0)
(0.989296 -0.002983 0)
(0.98708 -0.00151059 0)
(0.98581 0.00353811 0)
(0.987023 0.00738637 0)
(0.987436 0.0100885 0)
(0.98954 0.0129398 0)
(0.990853 0.0143754 0)
(0.99296 0.0162444 0)
(0.994073 0.0164749 0)
(0.994848 0.0172679 0)
(0.998048 0.00104627 0)
(1.00424 0.00156574 0)
(0.998994 -0.00477214 0)
(0.994728 0.00329396 0)
(1.00341 0.00535495 0)
(1.00452 1.90353e-05 0)
(1.00543 -0.000827024 0)
(1.0022 -0.0117691 0)
(0.995683 -0.00451569 0)
(0.993268 -0.00829262 0)
(0.98964 -0.00343176 0)
(0.987285 -0.000818267 0)
(0.986283 0.00307475 0)
(0.987325 0.00759478 0)
(0.987785 0.00973885 0)
(0.989821 0.0129583 0)
(0.991165 0.0139928 0)
(0.993147 0.016095 0)
(0.994208 0.016098 0)
(0.994894 0.0168399 0)
(0.997906 0.00104712 0)
(1.00409 0.00146954 0)
(0.999472 -0.00450966 0)
(0.994881 0.00308547 0)
(1.00286 0.00526158 0)
(1.00454 -9.33507e-05 0)
(1.00499 -0.00081405 0)
(1.00216 -0.0111939 0)
(0.995753 -0.00465085 0)
(0.993203 -0.00776536 0)
(0.989999 -0.00343134 0)
(0.987514 -0.000474279 0)
(0.986783 0.00299572 0)
(0.987715 0.00734054 0)
(0.988225 0.00977376 0)
(0.990109 0.0126877 0)
(0.991466 0.0138072 0)
(0.993305 0.0156032 0)
(0.994303 0.0158728 0)
(0.994905 0.0165562 0)
(0.997832 0.00104928 0)
(1.00395 0.00136365 0)
(0.999795 -0.00424068 0)
(0.995055 0.00289177 0)
(1.00248 0.00511603 0)
(1.00454 -0.000124485 0)
(1.00457 -0.000829744 0)
(1.00212 -0.0107038 0)
(0.995818 -0.00460393 0)
(0.99318 -0.00728743 0)
(0.990343 -0.00332573 0)
(0.987795 -0.000455389 0)
(0.987303 0.00340829 0)
(0.988133 0.00700958 0)
(0.98872 0.00983088 0)
(0.990461 0.0123132 0)
(0.991883 0.0137316 0)
(0.993604 0.0153005 0)
(0.994611 0.015644 0)
(0.995028 0.0162899 0)
(0.997812 0.00100487 0)
(1.0038 0.0013354 0)
(0.999993 -0.004102 0)
(0.995227 0.00290963 0)
(1.00221 0.00479026 0)
(1.00452 6.30506e-05 0)
(1.00419 -0.00118658 0)
(1.00209 -0.00973469 0)
(0.995919 -0.00505831 0)
(0.993161 -0.00625176 0)
(0.990689 -0.00370289 0)
(0.988122 0.000266412 0)
(0.987831 0.00295256 0)
(0.988553 0.00721121 0)
(0.989242 0.00948061 0)
(0.990826 0.0124397 0)
(0.992305 0.0133594 0)
(0.993862 0.0151429 0)
(0.994853 0.0151513 0)
(0.995169 0.0157942 0)
(0.997824 0.00101794 0)
(1.00369 0.00121977 0)
(1.00009 -0.00384318 0)
(0.995405 0.00274136 0)
(1.00201 0.00465155 0)
(1.00449 -1.31557e-05 0)
(1.00386 -0.00112501 0)
(1.00203 -0.00930331 0)
(0.996049 -0.00498482 0)
(0.993192 -0.00589781 0)
(0.991038 -0.00350083 0)
(0.98844 0.00038333 0)
(0.988332 0.00312529 0)
(0.989045 0.00698086 0)
(0.989781 0.00950351 0)
(0.991199 0.0120103 0)
(0.992667 0.0131024 0)
(0.994081 0.0145093 0)
(0.995001 0.0149432 0)
(0.995252 0.0156163 0)
(0.997865 0.0010226 0)
(1.0036 0.00111708 0)
(1.00011 -0.00361404 0)
(0.995569 0.00261443 0)
(1.00188 0.00447339 0)
(1.00445 -4.91181e-05 0)
(1.00353 -0.00106977 0)
(1.002 -0.0089148 0)
(0.996184 -0.00479569 0)
(0.993258 -0.00566153 0)
(0.991367 -0.00313166 0)
(0.988828 0.000150834 0)
(0.988825 0.00364124 0)
(0.989495 0.00650035 0)
(0.990284 0.00957765 0)
(0.991573 0.0116416 0)
(0.993074 0.013044 0)
(0.994426 0.0141262 0)
(0.995391 0.0147235 0)
(0.995444 0.0153929 0)
(0.997927 0.000964546 0)
(1.00351 0.0011051 0)
(1.00012 -0.00353265 0)
(0.995713 0.00273332 0)
(1.00178 0.0040592 0)
(1.00437 0.000177425 0)
(1.00326 -0.00150212 0)
(1.00195 -0.00791379 0)
(0.996349 -0.00525175 0)
(0.993347 -0.00462027 0)
(0.991711 -0.00359998 0)
(0.989223 0.000901531 0)
(0.989306 0.00319955 0)
(0.989975 0.00687872 0)
(0.990839 0.00909463 0)
(0.991973 0.0118707 0)
(0.993443 0.0126495 0)
(0.994682 0.0142368 0)
(0.995633 0.0141998 0)
(0.995601 0.0148209 0)
(0.997985 0.000979628 0)
(1.00344 0.00099405 0)
(1.00011 -0.0032939 0)
(0.995866 0.00259963 0)
(1.00168 0.00389421 0)
(1.00427 0.000110665 0)
(1.003 -0.00131333 0)
(1.00189 -0.00766192 0)
(0.996552 -0.0049961 0)
(0.993441 -0.00433708 0)
(0.992068 -0.0033248 0)
(0.989654 0.000860399 0)
(0.989771 0.00341255 0)
(0.990437 0.00664675 0)
(0.991305 0.00898327 0)
(0.992319 0.0113319 0)
(0.993743 0.0124454 0)
(0.994859 0.0137118 0)
(0.995676 0.0140933 0)
(0.995671 0.0147109 0)
(0.998051 0.000984582 0)
(1.00337 0.000913741 0)
(1.0001 -0.00311702 0)
(0.996013 0.00251624 0)
(1.0016 0.00372623 0)
(1.00419 5.07004e-05 0)
(1.00273 -0.00115818 0)
(1.00183 -0.00732537 0)
(0.996732 -0.00480015 0)
(0.993588 -0.00414141 0)
(0.992393 -0.002814 0)
(0.990113 0.000525448 0)
(0.99024 0.00395105 0)
(0.990925 0.0060964 0)
(0.991816 0.00898573 0)
(0.992751 0.0109715 0)
(0.994121 0.0125172 0)
(0.995186 0.0133485 0)
(0.996042 0.0139511 0)
(0.995843 0.0145186 0)
(0.998125 0.000892011 0)
(1.00328 0.000942668 0)
(1.00012 -0.00308732 0)
(0.996145 0.00271681 0)
(1.00154 0.00325293 0)
(1.00406 0.000317535 0)
(1.0025 -0.00165178 0)
(1.00174 -0.00631546 0)
(0.996947 -0.00525759 0)
(0.993734 -0.00307179 0)
(0.992733 -0.00322818 0)
(0.990615 0.00132424 0)
(0.990692 0.00362394 0)
(0.991361 0.00660653 0)
(0.992347 0.00839358 0)
(0.993186 0.0112259 0)
(0.994461 0.0118869 0)
(0.995401 0.0135736 0)
(0.996213 0.0133685 0)
(0.995987 0.013885 0)
(0.998179 0.000938025 0)
(1.00321 0.00082454 0)
(1.00014 -0.00287017 0)
(0.996293 0.00255505 0)
(1.00145 0.0031813 0)
(1.00393 6.38526e-05 0)
(1.00228 -0.00120942 0)
(1.00164 -0.0062334 0)
(0.997184 -0.00493594 0)
(0.993898 -0.00291335 0)
(0.993082 -0.00270738 0)
(0.991126 0.00112367 0)
(0.991163 0.00366287 0)
(0.991805 0.00638204 0)
(0.992803 0.00815386 0)
(0.993532 0.0106499 0)
(0.994753 0.0116554 0)
(0.995579 0.0131525 0)
(0.996157 0.0134838 0)
(0.996017 0.0139704 0)
(0.998234 0.00089521 0)
(1.00313 0.000810395 0)
(1.00016 -0.00275358 0)
(0.99645 0.00252055 0)
(1.00136 0.00300257 0)
(1.00384 6.93955e-06 0)
(1.00202 -0.000986556 0)
(1.00154 -0.00600184 0)
(0.99739 -0.00451515 0)
(0.994107 -0.00284957 0)
(0.993379 -0.00207976 0)
(0.991628 0.000647902 0)
(0.991648 0.00409464 0)
(0.992265 0.00584692 0)
(0.993328 0.00813067 0)
(0.99406 0.00999353 0)
(0.995199 0.0116927 0)
(0.995981 0.0126434 0)
(0.996541 0.0136273 0)
(0.996162 0.0140916 0)
(0.998303 0.000817308 0)
(1.00303 0.000834117 0)
(1.00022 -0.00273651 0)
(0.996583 0.00268287 0)
(1.00129 0.00266911 0)
(1.0037 0.00011185 0)
(1.00182 -0.00121661 0)
(1.00143 -0.00518208 0)
(0.997607 -0.00474475 0)
(0.994302 -0.00215399 0)
(0.993677 -0.00197088 0)
(0.992173 0.0010834 0)
(0.992134 0.00390519 0)
(0.992689 0.00600009 0)
(0.993811 0.00781065 0)
(0.994524 0.00991351 0)
(0.995611 0.0112408 0)
(0.996331 0.0124578 0)
(0.996805 0.0131557 0)
(0.996256 0.0135766 0)
(0.998365 0.000875398 0)
(1.00292 0.000725757 0)
(1.00028 -0.00255368 0)
(0.996739 0.00252398 0)
(1.0012 0.00264225 0)
(1.00359 -0.000149812 0)
(1.00163 -0.000937536 0)
(1.0013 -0.00485395 0)
(0.997847 -0.00459461 0)
(0.994556 -0.00178015 0)
(0.993981 -0.00154027 0)
(0.992659 0.00119703 0)
(0.992614 0.00378107 0)
(0.993128 0.00612991 0)
(0.994301 0.0076504 0)
(0.995004 0.00969433 0)
(0.996011 0.0109287 0)
(0.99667 0.0122232 0)
(0.997024 0.012808 0)
(0.996346 0.0130952 0)
(0.998421 0.000751298 0)
(1.00282 0.000799587 0)
(1.00035 -0.00248767 0)
(0.996896 0.00252943 0)
(1.0011 0.00246049 0)
(1.00348 -0.000129348 0)
(1.00146 -0.000961392 0)
(1.00118 -0.00430949 0)
(0.998086 -0.00434807 0)
(0.994804 -0.00150184 0)
(0.99425 -0.0011792 0)
(0.993153 0.00120251 0)
(0.993148 0.00392464 0)
(0.993577 0.00619348 0)
(0.994742 0.00754963 0)
(0.995459 0.00939252 0)
(0.996448 0.0107223 0)
(0.997027 0.0118902 0)
(0.997207 0.0123978 0)
(0.996416 0.0125747 0)
(0.998474 0.000771163 0)
(1.00271 0.00074575 0)
(1.00042 -0.00242515 0)
(0.997061 0.00248398 0)
(1.00099 0.00246769 0)
(1.00337 -0.00031894 0)
(1.00131 -0.000824858 0)
(1.00106 -0.0038493 0)
(0.99831 -0.00420629 0)
(0.995092 -0.00126917 0)
(0.994531 -0.000694985 0)
(0.993647 0.00133104 0)
(0.993674 0.00397331 0)
(0.993994 0.00608636 0)
(0.995175 0.00745979 0)
(0.995949 0.00918967 0)
(0.996863 0.0104395 0)
(0.997318 0.0113521 0)
(0.997364 0.011884 0)
(0.996485 0.0120304 0)
(0.998526 0.000705159 0)
(1.0026 0.000751391 0)
(1.00049 -0.00229368 0)
(0.997234 0.00235996 0)
(1.00088 0.00241434 0)
(1.00327 -0.00036688 0)
(1.00118 -0.000702429 0)
(1.00093 -0.00343336 0)
(0.998539 -0.00391571 0)
(0.995404 -0.00103389 0)
(0.994798 -0.000334664 0)
(0.9941 0.00136542 0)
(0.994197 0.00397644 0)
(0.994446 0.00604795 0)
(0.995623 0.00746436 0)
(0.996383 0.00886112 0)
(0.997219 0.0100026 0)
(0.997622 0.0108964 0)
(0.997555 0.0114974 0)
(0.996585 0.0116576 0)
(0.998578 0.000670785 0)
(1.00249 0.000755576 0)
(1.00056 -0.00222059 0)
(0.997403 0.00221941 0)
(1.00078 0.00246467 0)
(1.00317 -0.000419987 0)
(1.00107 -0.000662894 0)
(1.00082 -0.00297648 0)
(0.998754 -0.00362775 0)
(0.995718 -0.000915751 0)
(0.995059 6.06869e-05 0)
(0.994564 0.00157903 0)
(0.994748 0.00399022 0)
(0.994898 0.00593701 0)
(0.996007 0.00731056 0)
(0.996782 0.00852665 0)
(0.997625 0.00975491 0)
(0.997957 0.0105723 0)
(0.997759 0.0110817 0)
(0.996692 0.0112813 0)
(0.998632 0.000631573 0)
(1.00238 0.000736673 0)
(1.00063 -0.00211135 0)
(0.997591 0.00210307 0)
(1.00068 0.00249898 0)
(1.00306 -0.000493293 0)
(1.00099 -0.000575634 0)
(1.00071 -0.00254174 0)
(0.998955 -0.00333983 0)
(0.996068 -0.000772165 0)
(0.995357 0.00048304 0)
(0.994974 0.00172187 0)
(0.99524 0.00387591 0)
(0.995343 0.0058283 0)
(0.996426 0.00726523 0)
(0.997227 0.00839089 0)
(0.99801 0.00944653 0)
(0.998219 0.0100746 0)
(0.997946 0.0106074 0)
(0.996819 0.0109263 0)
(0.998682 0.000578582 0)
(1.00227 0.000748504 0)
(1.00069 -0.00201079 0)
(0.997766 0.00192848 0)
(1.00058 0.00252198 0)
(1.00296 -0.000441472 0)
(1.00093 -0.000490157 0)
(1.00061 -0.0021308 0)
(0.999145 -0.00304532 0)
(0.996425 -0.000654664 0)
(0.995628 0.000757993 0)
(0.995362 0.00186821 0)
(0.995779 0.00389992 0)
(0.995848 0.00583547 0)
(0.996831 0.00718932 0)
(0.997571 0.00812987 0)
(0.998314 0.00901818 0)
(0.998518 0.00970588 0)
(0.998236 0.0103694 0)
(0.997002 0.010688 0)
(0.998735 0.000543452 0)
(1.00216 0.000734145 0)
(1.00075 -0.00190728 0)
(0.997964 0.00177818 0)
(1.00049 0.00256111 0)
(1.00286 -0.000431163 0)
(1.00089 -0.000439296 0)
(1.00051 -0.00174861 0)
(0.99932 -0.00268776 0)
(0.996799 -0.000538465 0)
(0.99595 0.00103993 0)
(0.995749 0.00210382 0)
(0.996275 0.00388276 0)
(0.996298 0.0056494 0)
(0.997198 0.00694221 0)
(0.997931 0.00788263 0)
(0.998695 0.00877101 0)
(0.998886 0.00951384 0)
(0.998499 0.0100641 0)
(0.997114 0.0102772 0)
(0.998784 0.000490524 0)
(1.00206 0.000734049 0)
(1.00081 -0.00180886 0)
(0.998146 0.00162455 0)
(1.00041 0.00255587 0)
(1.00276 -0.000329586 0)
(1.00087 -0.000374384 0)
(1.00044 -0.00136024 0)
(0.999485 -0.00233636 0)
(0.997173 -0.000422219 0)
(0.996261 0.0012554 0)
(0.996097 0.0022948 0)
(0.996752 0.00383722 0)
(0.996781 0.00554173 0)
(0.997617 0.00685517 0)
(0.998302 0.00779943 0)
(0.999044 0.00859773 0)
(0.999177 0.00918915 0)
(0.998701 0.00958717 0)
(0.997267 0.00987171 0)
(0.998836 0.00045462 0)
(1.00194 0.000738499 0)
(1.00087 -0.00172696 0)
(0.998348 0.00149766 0)
(1.00034 0.00247727 0)
(1.00265 -0.000248076 0)
(1.00087 -0.000288844 0)
(1.00037 -0.000984748 0)
(0.999629 -0.00194285 0)
(0.997554 -0.000300454 0)
(0.996619 0.00144015 0)
(0.996451 0.00250633 0)
(0.997211 0.00385288 0)
(0.997253 0.00547976 0)
(0.998019 0.0067227 0)
(0.998656 0.00760661 0)
(0.999354 0.00830737 0)
(0.999433 0.00878547 0)
(0.998948 0.00924876 0)
(0.997464 0.0095921 0)
(0.998885 0.000378295 0)
(1.00184 0.000754837 0)
(1.00091 -0.00164935 0)
(0.998523 0.00137887 0)
(1.00028 0.00244477 0)
(1.00257 3.70248e-06 0)
(1.00088 -0.000278959 0)
(1.00032 -0.000722577 0)
(0.99975 -0.00161269 0)
(0.997909 -0.000177105 0)
(0.996962 0.00157434 0)
(0.99678 0.0026772 0)
(0.997655 0.00383887 0)
(0.997734 0.00534194 0)
(0.998435 0.00650686 0)
(0.999006 0.00735881 0)
(0.999651 0.00803415 0)
(0.99974 0.00852404 0)
(0.999246 0.00901303 0)
(0.997674 0.00927009 0)
(0.998934 0.000363765 0)
(1.00173 0.000721565 0)
(1.00096 -0.00149427 0)
(0.998738 0.00109047 0)
(1.00023 0.00252375 0)
(1.00245 -2.6661e-05 0)
(1.00088 -8.06715e-05 0)
(1.0003 -0.000304713 0)
(0.999887 -0.001186 0)
(0.99829 -2.93093e-05 0)
(0.997361 0.00168013 0)
(0.997123 0.00285515 0)
(0.998061 0.00385108 0)
(0.998174 0.00522817 0)
(0.998821 0.00636627 0)
(0.999356 0.00718106 0)
(0.999972 0.0078881 0)
(1.00003 0.00833679 0)
(0.999467 0.00872087 0)
(0.99783 0.0089226 0)
(0.99898 0.000304156 0)
(1.00164 0.000725985 0)
(1.00099 -0.00137472 0)
(0.99892 0.000936396 0)
(1.00019 0.00244829 0)
(1.00237 8.49202e-06 0)
(1.00096 8.83052e-05 0)
(1.00028 8.11009e-05 0)
(0.999965 -0.000764856 0)
(0.99861 0.00016376 0)
(0.997737 0.00179211 0)
(0.997448 0.00302362 0)
(0.998457 0.00390104 0)
(0.998645 0.00516922 0)
(0.999245 0.00628578 0)
(0.999732 0.00701484 0)
(1.00028 0.00769319 0)
(1.00028 0.00804881 0)
(0.999694 0.00840549 0)
(0.998036 0.00861674 0)
(0.999027 0.000254755 0)
(1.00153 0.000746908 0)
(1.00102 -0.00132508 0)
(0.999125 0.000826817 0)
(1.00018 0.00238249 0)
(1.00228 0.000320999 0)
(1.001 9.76434e-05 0)
(1.00027 0.000242087 0)
(1.00005 -0.000448087 0)
(0.998938 0.000326861 0)
(0.99815 0.00185575 0)
(0.997799 0.00315534 0)
(0.998834 0.00395109 0)
(0.999092 0.0050577 0)
(0.999637 0.00612592 0)
(1.00008 0.00676612 0)
(1.00059 0.00743083 0)
(1.00055 0.00778143 0)
(0.999946 0.00816673 0)
(0.998245 0.00835776 0)
(0.999071 0.000211627 0)
(1.00144 0.000745315 0)
(1.00104 -0.0011593 0)
(0.999314 0.000660869 0)
(1.00018 0.00234889 0)
(1.0022 0.000415637 0)
(1.00107 0.000153885 0)
(1.0003 0.000484332 0)
(1.00013 -5.30271e-05 0)
(0.999227 0.000536796 0)
(0.998543 0.00189584 0)
(0.998138 0.00321873 0)
(0.999179 0.00396353 0)