/*--------------------------------*- C++ -*----------------------------------*\
| =========                 |                                                 |
| \\      /  F ield         | OpenFOAM: The Open Source CFD Toolbox           |
|  \\    /   O peration     | Version:  v2012                                 |
|   \\  /    A nd           | Website:  www.openfoam.com                      |
|    \\/     M anipulation  |                                                 |
\*---------------------------------------------------------------------------*/
FoamFile
{
    version     2.0;
    format      ascii;
    class       volScalarField;
    location    "8";
    object      p;
}
// * * * * * * * * * * * * * * * * * * * * * * * * * * * * * * * * * * * * * //

dimensions      [0 2 -2 0 0 0 0];


internalField   nonuniform List<scalar> 
7000
(
-8.92833e-11
-0.0047413
-0.018616
-0.000297739
0.000786389
0.00360508
0.00829724
0.0112014
0.0118713
0.0159133
0.0170972
0.0191243
0.0208139
0.0230081
0.0241604
0.0278916
0.0308605
0.0347843
0.0383696
0.0446676
-1.83379e-05
-0.00473778
-0.0184718
-0.000348055
0.000827563
0.00360679
0.00829581
0.0112252
0.0118619
0.0159086
0.0170884
0.019122
0.0208115
0.0230101
0.0242341
0.0278761
0.03088
0.0347437
0.0383986
0.0444062
-3.22481e-05
-0.00473284
-0.0183309
-0.000426156
0.000867742
0.00361902
0.00829977
0.0112393
0.0118451
0.0158943
0.0170749
0.0191233
0.0208074
0.0230191
0.0242853
0.0278573
0.0308896
0.0346875
0.0384135
0.0439677
-4.69935e-05
-0.00472791
-0.0181921
-0.00049405
0.000913347
0.00364609
0.00830773
0.0112389
0.0118301
0.015869
0.0170608
0.0191291
0.0207999
0.0230308
0.0243278
0.0278367
0.0308918
0.0346259
0.0383913
0.0435154
-6.34368e-05
-0.00472233
-0.0180477
-0.000543905
0.000963374
0.00368616
0.00831788
0.0112265
0.011821
0.0158328
0.0170458
0.0191344
0.0207909
0.0230409
0.0243711
0.0278106
0.0308949
0.0345528
0.0383384
0.0430874
-8.16916e-05
-0.00471534
-0.0178935
-0.000577233
0.00101515
0.00373479
0.00832777
0.0112061
0.0118188
0.0157884
0.0170297
0.0191378
0.0207841
0.023048
0.0244171
0.0277789
0.0308997
0.0344666
0.0382627
0.0426835
-0.000101376
-0.00470623
-0.0177266
-0.000596347
0.00106575
0.00378762
0.00833535
0.011182
0.0118228
0.0157406
0.0170138
0.01914
0.0207817
0.0230519
0.0244662
0.0277417
0.0309042
0.0343695
0.0381655
0.0422948
-0.000121807
-0.00469443
-0.0175452
-0.000603905
0.00111267
0.00384151
0.00833988
0.0111574
0.011832
0.0156939
0.016999
0.0191416
0.0207845
0.0230526
0.0245184
0.0276992
0.0309069
0.034264
0.0380451
0.0419142
-0.000142191
-0.00467957
-0.0173484
-0.000603272
0.0011537
0.00389463
0.00834189
0.0111341
0.0118454
0.0156503
0.0169851
0.0191423
0.0207923
0.0230499
0.0245725
0.0276515
0.0309114
0.0341512
0.0379002
0.0415375
-0.000161829
-0.00466151
-0.0171359
-0.000597444
0.00118862
0.00394617
0.00834246
0.0111125
0.0118624
0.01561
0.0169722
0.0191412
0.0208042
0.0230428
0.0246271
0.0275989
0.0309035
0.0340322
0.0377303
0.0411618
-0.000180274
-0.0046404
-0.0169081
-0.000588284
0.00121802
0.00399591
0.00834262
0.0110924
0.0118825
0.0155723
0.0169603
0.0191371
0.0208185
0.0230302
0.0246805
0.0275416
0.0308867
0.0339076
0.0375358
0.0407845
-0.000197377
-0.0046165
-0.0166655
-0.000576797
0.00124268
0.00404386
0.00834312
0.0110732
0.0119056
0.0155367
0.0169501
0.019129
0.0208336
0.0230113
0.0247311
0.02748
0.0308588
0.0337776
0.0373177
0.040403
-0.00021323
-0.00459012
-0.0164091
-0.0005636
0.00126359
0.00409005
0.00834441
0.0110545
0.0119314
0.0155032
0.0169421
0.019116
0.0208483
0.0229856
0.0247771
0.0274154
0.0308178
0.0336422
0.0370776
0.0400153
-0.000228064
-0.00456146
-0.0161401
-0.00054911
0.00128195
0.00413445
0.0083468
0.011036
0.0119597
0.0154714
0.0169369
0.0190978
0.0208617
0.0229533
0.0248172
0.0273488
0.030762
0.0335006
0.0368166
0.0396201
-0.000242144
-0.00453068
-0.0158599
-0.000533608
0.00129902
0.00417697
0.00835056
0.0110176
0.0119901
0.015441
0.0169348
0.0190747
0.0208736
0.0229153
0.02485
0.0272813
0.0306902
0.0333521
0.0365227
0.0392165
-0.000255712
-0.00449786
-0.0155697
-0.000517247
0.00131602
0.00421746
0.00835593
0.0109992
0.0120222
0.0154112
0.0169356
0.0190469
0.0208839
0.022873
0.0248742
0.0272136
0.0306021
0.0331963
0.0362285
0.0388033
-0.000268958
-0.00446304
-0.0152708
-0.00050009
0.00133404
0.00425579
0.00836317
0.0109808
0.0120554
0.0153814
0.0169392
0.019015
0.0208927
0.0228283
0.0248882
0.0271461
0.0304978
0.033032
0.0359211
0.0383804
-0.000282012
-0.00442622
-0.0149641
-0.000482167
0.00135401
0.00429191
0.00837246
0.0109625
0.0120896
0.0153508
0.016945
0.0189798
0.0208993
0.0227828
0.0248912
0.0270789
0.0303776
0.0328579
0.0356009
0.0379479
-0.000294953
-0.00438743
-0.0146505
-0.000463501
0.00137671
0.00432575
0.0083839
0.0109444
0.0121243
0.0153189
0.0169526
0.0189422
0.0209031
0.0227376
0.0248826
0.0270116
0.0302422
0.0326725
0.0352693
0.0375064
-0.000307801
-0.00434666
-0.0143306
-0.000444136
0.00140287
0.00435728
0.00839756
0.0109263
0.0121594
0.0152854
0.0169611
0.0189033
0.0209033
0.0226939
0.024862
0.0269429
0.0300928
0.0324746
0.0349274
0.0370569
-0.000320526
-0.00430384
-0.014005
-0.000424137
0.0014331
0.00438649
0.00841342
0.0109084
0.0121945
0.0152504
0.0169694
0.0188639
0.0208992
0.0226522
0.0248296
0.0268711
0.0299299
0.0322632
0.0345768
0.0366004
-0.000333051
-0.0042589
-0.0136741
-0.000403566
0.0014679
0.00441335
0.0084314
0.0108908
0.0122292
0.0152139
0.0169764
0.0188252
0.0208901
0.0226124
0.0247856
0.0267945
0.0297543
0.0320371
0.0342183
0.0361386
-0.000345257
-0.00421173
-0.0133382
-0.000382442
0.00150766
0.00443785
0.00845136
0.0108737
0.0122628
0.0151764
0.0169812
0.0187877
0.0208754
0.022574
0.0247308
0.0267116
0.0295674
0.031796
0.0338523
0.0356728
-0.000356996
-0.00416219
-0.0129975
-0.000360721
0.0015526
0.00446002
0.0084731
0.0108576
0.0122948
0.0151385
0.0169828
0.018752
0.0208544
0.0225355
0.0246662
0.0266201
0.029369
0.0315407
0.0334802
0.035204
-0.000368098
-0.00411017
-0.0126518
-0.000338297
0.00160287
0.00447995
0.00849631
0.010843
0.0123245
0.0151011
0.0169803
0.0187184
0.020827
0.0224945
0.0245933
0.0265186
0.0291573
0.0312712
0.0331051
0.0347341
-0.000378384
-0.00405554
-0.0123009
-0.000315008
0.00165852
0.00449785
0.00852049
0.0108307
0.0123507
0.0150647
0.0169731
0.0186864
0.0207944
0.0224489
0.0245098
0.0264105
0.0289346
0.0309869
0.0327268
0.0342637
-0.000387668
-0.00399819
-0.0119449
-0.000290627
0.00171961
0.00451412
0.00854505
0.0108218
0.012372
0.0150299
0.0169611
0.0186554
0.0207562
0.0223998
0.0244153
0.0262917
0.0287007
0.0307093
0.0323505
0.0337928
-0.000395747
-0.003938
-0.0115835
-0.000264905
0.00178622
0.00452923
0.00856926
0.0108169
0.0123877
0.0149967
0.0169447
0.0186249
0.0207123
0.0223455
0.0243125
0.0261593
0.0284553
0.0304004
0.0319731
0.0333252
-0.000402403
-0.00387489
-0.0112168
-0.000237635
0.00185835
0.00454386
0.00859219
0.010817
0.0123982
0.0149651
0.0169245
0.0185925
0.0206667
0.0222811
0.0241987
0.026021
0.0282139
0.0300753
0.0315592
0.0328588
-0.000407442
-0.00380874
-0.0108449
-0.000208527
0.0019359
0.00455873
0.00861277
0.0108228
0.0124031
0.0149353
0.0169002
0.0185588
0.0206149
0.0222148
0.0240687
0.0258654
0.0279653
0.0297421
0.0311606
0.0323965
-0.000410584
-0.00373949
-0.010468
-0.000177303
0.00201871
0.00457486
0.00862986
0.0108347
0.0124021
0.0149067
0.0168738
0.0185214
0.020558
0.0221439
0.0239264
0.0256877
0.0277025
0.0294136
0.0307835
0.0319287
-0.000411642
-0.00366694
-0.0100863
-0.000143798
0.00210633
0.00459344
0.00864248
0.0108529
0.0123961
0.0148771
0.0168486
0.018476
0.0204991
0.0220644
0.0237766
0.0255029
0.0274368
0.0290765
0.0303416
0.0314587
-0.000410489
-0.00359107
-0.00970024
-0.000107536
0.00219851
0.00461485
0.00865051
0.0108768
0.0123868
0.0148445
0.0168259
0.0184248
0.0204307
0.0219837
0.0236129
0.0253017
0.0271515
0.0287045
0.0299612
0.0310282
-0.000406563
-0.00351203
-0.00931007
-6.83041e-05
0.00229479
0.00464008
0.00865345
0.0109057
0.0123767
0.014807
0.0168076
0.0183647
0.0203572
0.0218954
0.0234487
0.0250905
0.0268597
0.0283262
0.0294739
0.0305889
-0.000399873
-0.0034293
-0.00891658
-2.59739e-05
0.00239397
0.00467089
0.00865
0.0109406
0.012362
0.0147663
0.0167912
0.0183025
0.0202709
0.0218046
0.0232683
0.0248354
0.0265504
0.0279846
0.0290735
0.030138
-0.00039041
-0.00334287
-0.00852064
2.05953e-05
0.00249509
0.004708
0.00864081
0.0109796
0.0123457
0.0147198
0.0167751
0.0182425
0.020167
0.0217056
0.0230605
0.024565
0.0262333
0.0276495
0.0287788
0.0297108
-0.000377206
-0.00325306
-0.00812225
7.14529e-05
0.00259865
0.0047506
0.00862773
0.0110185
0.0123399
0.014659
0.0167647
0.0181766
0.0200458
0.0216012
0.0228752
0.0242891
0.0259185
0.0272736
0.0282522
0.0292767
-0.000360752
-0.00315903
-0.0077227
0.000126971
0.00270308
0.004801
0.00860888
0.0110605
0.0123323
0.0145914
0.0167507
0.0181177
0.0199085
0.0214678
0.0226801
0.0240106
0.0255784
0.026913
0.0278676
0.0288538
-0.000341164
-0.00306071
-0.00732332
0.00018898
0.00280686
0.00486013
0.00858533
0.0111032
0.0123256
0.0145186
0.0167283
0.0180679
0.0197581
0.021297
0.0224642
0.0237355
0.0252146
0.0265668
0.0276537
0.0284574
-0.000316785
-0.0029585
-0.00692386
0.000256915
0.00291227
0.00492353
0.00856118
0.0111385
0.0123429
0.0144252
0.0167011
0.0180155
0.0195921
0.021148
0.0222725
0.0234406
0.0248651
0.0261557
0.0270908
0.0280471
-0.00028858
-0.00285108
-0.0065261
0.000331721
0.00301726
0.00499566
0.00853366
0.0111722
0.0123592
0.0143316
0.0166632
0.0179685
0.019416
0.0209479
0.0220571
0.0231499
0.0245078
0.025766
0.0267031
0.0276575
-0.000256994
-0.00273844
-0.00613119
0.000415328
0.00312027
0.00507737
0.00850502
0.0112032
0.0123695
0.0142452
0.0166097
0.0179203
0.0192214
0.0207171
0.0218245
0.0228794
0.0241277
0.025399
0.0265304
0.0272941
-0.000219337
-0.00262117
-0.00573859
0.000506087
0.00322644
0.00515904
0.00848006
0.0112225
0.0124117
0.0141438
0.0165381
0.0178784
0.0190366
0.0204687
0.0216128
0.0226016
0.0237609
0.0249241
0.0259027
0.0269024
-0.000177957
-0.00249723
-0.00535076
0.000605359
0.00333228
0.00524918
0.00845448
0.0112387
0.012442
0.0140518
0.0164518
0.0178298
0.018851
0.0201954
0.0213635
0.0223116
0.0233945
0.0244992
0.0254753
0.0265222
-0.000132535
-0.00236694
-0.00496796
0.000714301
0.00343711
0.00534759
0.00843185
0.01125
0.0124572
0.013973
0.0163419
0.017777
0.0186731
0.0199091
0.0210727
0.0220073
0.0229951
0.0241289
0.0253099
0.0261678
-7.9812e-05
-0.00223091
-0.00458905
0.000829337
0.00354951
0.00543792
0.00841764
0.0112455
0.0126031
0.0138824
0.0162078
0.0177179
0.0185372
0.0196645
0.0207894
0.0216734
0.0225709
0.0235845
0.024627
0.0258013
-2.45513e-05
-0.00208684
-0.00421626
0.000951606
0.00366567
0.00553258
0.00840496
0.0112345
0.0126465
0.0137899
0.016056
0.0176516
0.0184201
0.0194141
0.0204704
0.0212998
0.0221309
0.0230288
0.0240932
0.0254981
3.69274e-05
-0.0019357
-0.00384956
0.00108207
0.00378309
0.00563385
0.0083932
0.0112179
0.0126774
0.0137082
0.0158877
0.0175745
0.0183034
0.0191546
0.0201145
0.0209208
0.0217048
0.0225453
0.0236647
0.0251855
0.000104679
-0.00177731
-0.00348784
0.00121686
0.00390678
0.00573827
0.00838137
0.0111908
0.0127096
0.0136363
0.0157065
0.0174731
0.0181851
0.018899
0.0197573
0.0205422
0.0213003
0.022132
0.0232556
0.0248209
0.000176367
-0.00161074
-0.00313192
0.00135567
0.00403697
0.00584636
0.00836898
0.0111542
0.0127381
0.0135775
0.0155116
0.0173417
0.0180711
0.0186572
0.0194029
0.0201519
0.0209113
0.0217445
0.0228503
0.0244435
0.000254828
-0.00143656
-0.0027806
0.00149737
0.00417049
0.00596008
0.00835995
0.0111061
0.0127604
0.0135306
0.0153063
0.017185
0.0179571
0.018429
0.0190536
0.0197539
0.0205236
0.0213652
0.0224615
0.0240856
0.00033875
-0.00125462
-0.00243287
0.0016388
0.00430793
0.00608157
0.00835308
0.0110455
0.012775
0.0134963
0.0150996
0.0170024
0.0178336
0.018213
0.0187172
0.0193521
0.0201244
0.0209891
0.0221068
0.0237539
0.000428965
-0.00106521
-0.00208871
0.00178039
0.0044478
0.00620863
0.00835003
0.0109768
0.0127787
0.013474
0.0148955
0.016791
0.0176948
0.0180091
0.0184
0.0189518
0.0197151
0.0206186
0.0217741
0.0234432
0.000525311
-0.000868248
-0.00174687
0.00192087
0.00458656
0.006343
0.00835491
0.0108997
0.0127657
0.0134608
0.0147008
0.016554
0.0175398
0.0178154
0.0181015
0.0185601
0.0192981
0.0202392
0.0214537
0.0231495
0.00062838
-0.000664124
-0.00140765
0.00206022
0.00472388
0.00648423
0.00836741
0.0108145
0.0127365
0.0134579
0.0145202
0.0162938
0.0173614
0.0176241
0.0178221
0.018185
0.0188803
0.0198524
0.0211283
0.0228678
0.000738315
-0.000453338
-0.0010702
0.0021991
0.00485655
0.00663043
0.0083903
0.0107256
0.0126898
0.0134581
0.0143563
0.016016
0.0171585
0.0174359
0.0175612
0.0178293
0.0184681
0.0194527
0.0207902
0.022587
0.00085694
-0.000235587
-0.000735335
0.00234025
0.00498368
0.00677603
0.0084244
0.010636
0.0126249
0.0134549
0.0142137
0.0157308
0.016931
0.0172431
0.0173107
0.0174937
0.0180647
0.0190467
0.0204342
0.0223019
0.000979142
-1.10495e-05
-0.000402208
0.00248436
0.00510115
0.00691974
0.00847419
0.0105482
0.0125428
0.0134441
0.014094
0.0154441
0.0166725
0.0170371
0.0170716
0.0171821
0.0176778
0.0186429
0.0200657
0.0220073
0.00111011
0.000218765
-6.90136e-05
0.00262892
0.00520555
0.00706224
0.00854075
0.0104666
0.0124476
0.0134235
0.0139944
0.0151602
0.0163853
0.0168208
0.0168436
0.0168943
0.0173098
0.0182399
0.0196833
0.0216988
0.0012509
0.000453459
0.000263864
0.00277712
0.00531141
0.00719514
0.00858998
0.0103937
0.0123469
0.013392
0.0139116
0.0148915
0.0160791
0.0165904
0.0166183
0.0166222
0.0169574
0.0178392
0.0192972
0.0213893
0.0013962
0.00069363
0.000596607
0.00293334
0.00540234
0.00730456
0.00865705
0.0103337
0.0122389
0.0133448
0.0138412
0.0146465
0.0157592
0.0163376
0.0163876
0.016361
0.0166262
0.0174561
0.0189225
0.021081
0.0015498
0.000938108
0.00092826
0.00309432
0.00547849
0.00741362
0.00873865
0.0102843
0.0121228
0.0132773
0.0137749
0.0144265
0.015431
0.016059
0.0161505
0.0161139
0.0163233
0.0170994
0.0185568
0.0207619
0.00171148
0.00118544
0.00125725
0.00325989
0.00555179
0.0075131
0.00882361
0.0102463
0.0120024
0.0131893
0.0137047
0.0142313
0.0151049
0.0157598
0.0159077
0.0158775
0.0160426
0.0167604
0.018195
0.020441
0.0018806
0.001435
0.001582
0.00343302
0.00562371
0.00760139
0.00891038
0.0102061
0.0118788
0.0130826
0.013626
0.0140588
0.0147934
0.0154472
0.0156523
0.01564
0.015774
0.0164394
0.0178521
0.0201337
0.00205731
0.00168628
0.00190184
0.00361421
0.00569586
0.00767769
0.00899785
0.0101894
0.0117568
0.0129619
0.0135351
0.0139038
0.0145025
0.0151235
0.0153764
0.0153971
0.0155223
0.016149
0.0175373
0.0198371
0.00224134
0.00193866
0.00221621
0.00380373
0.00576986
0.00774153
0.00907984
0.0101835
0.011639
0.0128297
0.0134287
0.013758
0.0142327
0.0147966
0.015086
0.0151539
0.0152885
0.0158845
0.0172439
0.019549
0.00243248
0.00219206
0.00252457
0.00400049
0.0058481
0.00779374
0.00915365
0.010186
0.0115275
0.0126893
0.0133077
0.0136156
0.0139852
0.0144789
0.0147884
0.0149042
0.015059
0.0156359
0.0169712
0.0192732
0.00263059
0.00244626
0.00282619
0.00420352
0.00593217
0.00783095
0.00921671
0.0101949
0.0114243
0.0125445
0.0131737
0.0134723
0.0137574
0.0141747
0.0144849
0.0146419
0.014829
0.0154036
0.0167202
0.0190124
0.00283537
0.00270106
0.0031207
0.00441154
0.00602317
0.00786578
0.00926778
0.010208
0.0113301
0.0123981
0.0130285
0.0133249
0.0135438
0.0138846
0.0141815
0.0143717
0.0145998
0.0151838
0.016487
0.0187657
0.00304645
0.00295631
0.00340779
0.00462287
0.00612202
0.00789533
0.00930594
0.0102222
0.0112446
0.0122522
0.0128744
0.0131715
0.013341
0.01361
0.0138845
0.0140975
0.0143666
0.0149687
0.0162663
0.0185312
0.00326344
0.0032119
0.00368722
0.00483594
0.00622901
0.00792175
0.00933113
0.010234
0.0111667
0.0121091
0.0127143
0.0130119
0.0131467
0.0133504
0.0135958
0.0138205
0.014127
0.0147551
0.0160549
0.0183086
0.00348579
0.00346774
0.00395906
0.00504902
0.00634381
0.00794762
0.00934415
0.0102405
0.0110948
0.0119707
0.0125511
0.0128458
0.012958
0.0131032
0.0133159
0.0135447
0.0138833
0.0145411
0.0158495
0.0180947
0.00371296
0.00372364
0.00422339
0.00526068
0.00646565
0.00797496
0.00934607
0.0102396
0.0110276
0.0118375
0.0123874
0.0126735
0.0127724
0.012868
0.0130467
0.0132734
0.0136355
0.0143226
0.0156444
0.0178857
0.00394428
0.00397947
0.00448045
0.00546938
0.00659348
0.00800551
0.00933855
0.0102302
0.0109632
0.0117089
0.0122255
0.0124966
0.012588
0.0126445
0.0127882
0.0130062
0.0133834
0.0140985
0.0154377
0.0176806
0.00417908
0.0042349
0.00473064
0.00567403
0.00672564
0.00804029
0.00932417
0.0102119
0.0108996
0.0115838
0.012067
0.012318
0.0124029
0.0124301
0.0125385
0.0127437
0.0131305
0.0138701
0.0152282
0.0174768
0.00441662
0.0044896
0.00497427
0.00587372
0.00686062
0.00807984
0.00930552
0.0101845
0.0108353
0.0114612
0.0119116
0.0121405
0.0122167
0.0122221
0.0122974
0.0124882
0.0128789
0.013637
0.0150134
0.0172718
0.0046561
0.00474317
0.00521189
0.00606769
0.0069966
0.00812436
0.00928498
0.0101487
0.0107688
0.0113408
0.011758
0.0119652
0.0120295
0.0120191
0.0120654
0.0122396
0.0126285
0.0133998
0.0147942
0.0170653
0.00489676
0.00499511
0.00544374
0.00625561
0.0071321
0.00817326
0.00926427
0.0101057
0.010699
0.0112222
0.0116056
0.0117918
0.0118421
0.0118197
0.0118411
0.0119966
0.0123806
0.0131612
0.0145717
0.016857
0.00513763
0.00524484
0.00567033
0.00643714
0.00726558
0.00822618
0.00924442
0.0100568
0.0106248
0.0111053
0.0114541
0.0116194
0.0116555
0.011623
0.0116235
0.0117598
0.0121361
0.0129213
0.014345
0.0166458
0.00537791
0.00549165
0.00589182
0.00661244
0.00739563
0.008282
0.00922663
0.0100039
0.0105454
0.0109889
0.0113044
0.0114477
0.0114692
0.0114274
0.0114121
0.0115299
0.011896
0.0126812
0.014115
0.016431
0.00561682
0.00573493
0.00610819
0.00678146
0.00752145
0.00833963
0.00921103
0.00994932
0.0104616
0.0108711
0.011157
0.0112773
0.0112827
0.0112311
0.0112039
0.0113053
0.0116602
0.0124431
0.0138841
0.0162136
0.0058535
0.00597379
0.00631953
0.00694464
0.00764191
0.00840085
0.00919778
0.00989434
0.0103746
0.0107497
0.0110113
0.0111088
0.011097
0.0110336
0.0109962
0.0110841
0.0114284
0.0122073
0.0136524
0.0159933
0.00608713
0.00620751
0.00652541
0.00710225
0.00775675
0.00845972
0.00918616
0.00983943
0.0102867
0.0106231
0.0108645
0.0109424
0.0109121
0.0108355
0.0107888
0.0108661
0.0112001
0.0119734
0.0134196
0.0157693
0.00631675
0.00643533
0.00672551
0.00725454
0.00786569
0.00851752
0.00917594
0.00978385
0.0102004
0.0104932
0.0107135
0.010777
0.0107279
0.010636
0.010579
0.0106479
0.0109728
0.0117402
0.013186
0.0155423
0.00654124
0.0066565
0.00691939
0.00740202
0.00796877
0.00857298
0.00916677
0.00972549
0.0101163
0.0103646
0.0105576
0.0106112
0.0105459
0.0104368
0.0103653
0.0104254
0.0107426
0.011505
0.0129493
0.0153099
0.0067597
0.00687061
0.00710652
0.0075438
0.00806751
0.00862719
0.00915975
0.00966329
0.0100312
0.0102401
0.0103984
0.0104435
0.010366
0.0102405
0.0101508
0.0101991
0.0105083
0.0112658
0.0127077
0.0150697
0.00697059
0.00707657
0.0072874
0.00768121
0.00815763
0.0086757
0.00915391
0.00959773
0.00993999
0.0101186
0.0102379
0.0102713
0.0101849
0.0100457
0.00993745
0.00997105
0.0102706
0.0110227
0.0124622
0.0148243
0.00717349
0.00727301
0.00745847
0.00781539
0.00825183
0.00872264
0.0091494
0.00953084
0.00984097
0.00999862
0.010078
0.0100934
0.00999916
0.00984845
0.00972274
0.00973893
0.0100261
0.0107708
0.0122081
0.0145721
0.00736712
0.00746155
0.00762126
0.00793661
0.00834036
0.00876709
0.0091443
0.00946453
0.00973526
0.00987952
0.00992397
0.00991607
0.00981275
0.00965159
0.00950987
0.00950648
0.00977732
0.010509
0.0119377
0.0142948
0.00754556
0.0076422
0.00778534
0.00806943
0.00838022
0.00877175
0.00912492
0.00939232
0.00962039
0.00975625
0.00977802
0.00974304
0.00962595
0.00945306
0.00929644
0.00927241
0.0095244
0.010241
0.0116568
0.0140028
0.00771538
0.00778436
0.00791205
0.00818755
0.00853249
0.00889972
0.00912337
0.00932857
0.00950976
0.00963445
0.00964133
0.00957785
0.0094395
0.00924984
0.00907617
0.00903085
0.00926253
0.0099617
0.0113665
0.0137073
0.00787486
0.00799267
0.00808983
0.00828632
0.00852253
0.00877165
0.00903439
0.00922072
0.00938299
0.00950677
0.00951
0.00942303
0.00925838
0.00904509
0.00884614
0.00877105
0.00897373
0.00965183
0.0110445
0.0133803
0.00794554
0.00803357
0.00823472
0.00852142
0.0088136
0.00892477
0.00897886
0.00909022
0.00924573
0.00937305
0.0093793
0.00927239
0.00907953
0.00883325
0.00859859
0.00848183
0.00864087
0.00927883
0.0106361
0.0129412
0.00817952
0.008286
0.00833351
0.00842909
0.00852426
0.00873673
0.00892888
0.00910492
0.00923884
0.00933213
0.00932913
0.00922056
0.00902386
0.00877164
0.0085217
0.00836212
0.00844191
0.00896928
0.0102013
0.0123768
0.0082461
0.00836529
0.00838602
0.00860938
0.00881723
0.00883315
0.00885153
0.00897328
0.00906352
0.00912334
0.00907852
0.0089518
0.0087485
0.00854117
0.00838682
0.00837417
0.00859251
0.00921333
0.0104913
0.0126503
0.00848784
0.00846936
0.00845612
0.00851577
0.00863275
0.00882009
0.00897913
0.00917083
0.00927402
0.00931051
0.00923957
0.00904741
0.00872639
0.00829147
0.00778603
0.00732914
0.0070984
0.0072981
0.00843638
0.0103251
0.00879826
0.00844191
0.00836744
0.00840941
0.00854281
0.00858386
0.00865087
0.0088205
0.00893132
0.00888634
0.00879173
0.00871022
0.00880385
0.00918453
0.009915
0.0109212
0.0120303
0.0129729
0.0131492
0.0126406
0.00883636
0.00855124
0.00844671
0.00856252
0.00878615
0.00899704
0.00922536
0.00937479
0.00941077
0.00929439
0.00899508
0.00851395
0.00788602
0.00715923
0.00640751
0.0057284
0.00527373
0.00526338
0.00596366
0.00766333
0.00905978
0.00855011
0.0083984
0.00848585
0.00872164
0.00880835
0.00880142
0.00868064
0.00857381
0.00864063
0.0086822
0.00853694
0.00836841
0.00837356
0.00869317
0.00932015
0.0101323
0.0108439
0.0110785
0.0104798
0.00906295
0.00854785
0.00843318
0.00862053
0.00897108
0.00931594
0.00963117
0.0097931
0.00975727
0.0094408
0.00878877
0.00773986
0.00638989
0.00493296
0.00359002
0.00253205
0.00192274
0.00194555
0.002825
0.00475916
0.054266
0.0303103
0.0210892
0.0203616
0.0207221
0.0206843
0.0206492
0.0209543
0.0215592
0.0222494
0.0228172
0.0232709
0.0238902
0.0247041
0.0254731
0.0261975
0.0270429
0.0279568
0.0286857
0.0292912
0.0302034
0.0313306
0.0324395
0.0335656
0.0347282
0.0359042
0.037116
0.0383828
0.0396768
0.0410619
0.0425113
0.0440285
0.0455575
0.0471582
0.0488063
0.0505447
0.0523571
0.0542065
0.0561435
0.0580816
0.0601335
0.0622021
0.0643842
0.066613
0.0688616
0.0712767
0.0736069
0.0761619
0.0785319
0.0806828
0.0533523
0.0303574
0.0211334
0.0203807
0.0207322
0.0206904
0.0206532
0.0209573
0.0215616
0.0222515
0.022819
0.0232725
0.0238915
0.0247053
0.0254743
0.0261986
0.0270438
0.0279576
0.0286865
0.0292919
0.030204
0.0313312
0.03244
0.033566
0.0347286
0.0359045
0.0371163
0.0383831
0.0396771
0.0410621
0.0425115
0.0440287
0.0455577
0.0471584
0.0488064
0.0505449
0.0523573
0.0542067
0.0561436
0.0580817
0.0601336
0.0622022
0.0643843
0.0666131
0.0688617
0.0712768
0.073607
0.076162
0.0785319
0.0806829
0.052581
0.0304557
0.0212018
0.0204034
0.0207439
0.0206973
0.0206574
0.0209602
0.0215639
0.0222534
0.0228208
0.0232739
0.0238927
0.0247064
0.0254753
0.0261995
0.0270446
0.0279584
0.0286872
0.0292925
0.0302045
0.0313316
0.0324405
0.0335664
0.034729
0.0359049
0.0371166
0.0383833
0.0396773
0.0410623
0.0425117
0.0440289
0.0455579
0.0471585
0.0488066
0.050545
0.0523574
0.0542068
0.0561437
0.0580818
0.0601337
0.0622023
0.0643844
0.0666131
0.0688618
0.0712769
0.0736071
0.0761621
0.078532
0.080683
0.0518904
0.0305803
0.021298
0.0204354
0.0207602
0.0207072
0.0206633
0.0209639
0.0215665
0.0222555
0.0228225
0.0232754
0.023894
0.0247075
0.0254763
0.0262004
0.0270455
0.0279592
0.028688
0.029293
0.030205
0.0313321
0.0324409
0.0335668
0.0347294
0.0359052
0.0371169
0.0383836
0.0396776
0.0410625
0.0425119
0.0440291
0.045558
0.0471587
0.0488067
0.0505452
0.0523575
0.0542069
0.0561438
0.0580819
0.0601338
0.0622024
0.0643845
0.0666132
0.0688619
0.0712769
0.0736071
0.0761621
0.0785321
0.0806831
0.0512026
0.030711
0.0214154
0.0204769
0.0207829
0.020722
0.0206724
0.0209695
0.02157
0.022258
0.0228246
0.0232772
0.0238954
0.0247087
0.0254774
0.0262014
0.0270464
0.0279601
0.0286888
0.0292936
0.0302055
0.0313327
0.0324414
0.0335673
0.0347298
0.0359056
0.0371172
0.0383839
0.0396778
0.0410628
0.0425121
0.0440293
0.0455582
0.0471589
0.0488069
0.0505453
0.0523577
0.054207
0.056144
0.058082
0.0601339
0.0622025
0.0643846
0.0666133
0.068862
0.071277
0.0736072
0.0761622
0.0785321
0.0806834
0.0505009
0.0308417
0.0215441
0.0205241
0.0208105
0.0207414
0.0206851
0.0209775
0.0215749
0.022261
0.0228271
0.0232795
0.0238973
0.02471
0.0254784
0.0262024
0.0270474
0.0279611
0.0286897
0.0292943
0.030206
0.0313333
0.0324419
0.0335677
0.0347302
0.035906
0.0371176
0.0383842
0.0396781
0.041063
0.0425123
0.0440295
0.0455584
0.047159
0.0488071
0.0505455
0.0523578
0.0542072
0.0561441
0.0580822
0.060134
0.0622026
0.0643847
0.0666134
0.0688621
0.0712771
0.0736073
0.0761623
0.0785322
0.0806836
0.0497871
0.0309701
0.0216788
0.0205733
0.0208407
0.0207644
0.0207011
0.0209881
0.0215812
0.0222647
0.02283
0.0232824
0.0238996
0.0247115
0.0254795
0.0262033
0.0270484
0.0279622
0.0286908
0.0292952
0.0302067
0.0313339
0.0324425
0.0335682
0.0347307
0.0359064
0.037118
0.0383846
0.0396784
0.0410633
0.0425126
0.0440297
0.0455586
0.0471592
0.0488072
0.0505456
0.052358
0.0542073
0.0561442
0.0580823
0.0601342
0.0622027
0.0643848
0.0666135
0.0688622
0.0712772
0.0736074
0.0761624
0.0785323
0.080684
0.0490649
0.0310943
0.0218175
0.0206232
0.0208719
0.0207894
0.0207194
0.0210007
0.0215888
0.0222689
0.0228334
0.023286
0.0239027
0.0247134
0.0254806
0.0262043
0.0270495
0.0279633
0.028692
0.0292962
0.0302076
0.0313347
0.0324432
0.0335688
0.0347313
0.035907
0.0371185
0.038385
0.0396788
0.0410636
0.0425129
0.04403
0.0455588
0.0471594
0.0488074
0.0505458
0.0523582
0.0542075
0.0561444
0.0580824
0.0601343
0.0622028
0.0643849
0.0666136
0.0688623
0.0712773
0.0736075
0.0761625
0.0785325
0.0806844
0.0483366
0.031213
0.0219603
0.0206736
0.0209035
0.0208155
0.020739
0.0210148
0.0215976
0.0222737
0.022837
0.0232901
0.0239064
0.0247157
0.0254818
0.0262053
0.0270505
0.0279643
0.0286933
0.0292975
0.0302088
0.0313357
0.0324439
0.0335694
0.0347319
0.0359076
0.037119
0.0383856
0.0396793
0.041064
0.0425132
0.0440303
0.0455591
0.0471596
0.0488076
0.050546
0.0523583
0.0542077
0.0561446
0.0580826
0.0601344
0.0622029
0.064385
0.0666138
0.0688624
0.0712774
0.0736076
0.0761627
0.0785327
0.0806848
0.0476041
0.0313254
0.0221077
0.0207248
0.0209351
0.0208424
0.0207596
0.0210298
0.0216073
0.022279
0.0228409
0.0232946
0.0239108
0.0247185
0.0254832
0.0262064
0.0270514
0.0279652
0.0286945
0.029299
0.0302103
0.0313369
0.0324447
0.03357
0.0347326
0.0359083
0.0371197
0.0383862
0.0396798
0.0410645
0.0425137
0.0440306
0.0455594
0.0471599
0.0488078
0.0505462
0.0523585
0.0542078
0.0561447
0.0580827
0.0601346
0.0622031
0.0643851
0.0666139
0.0688625
0.0712776
0.0736078
0.0761628
0.0785329
0.0806854
0.0468692
0.0314309
0.0222602
0.0207769
0.0209666
0.0208698
0.0207808
0.0210454
0.0216176
0.0222846
0.0228449
0.0232994
0.0239156
0.0247217
0.0254849
0.0262075
0.0270523
0.0279658
0.0286955
0.0293005
0.0302121
0.0313385
0.0324457
0.0335707
0.0347332
0.035909
0.0371204
0.0383869
0.0396805
0.0410651
0.0425141
0.0440311
0.0455597
0.0471601
0.048808
0.0505464
0.0523587
0.054208
0.0561449
0.0580829
0.0601347
0.0622032
0.0643853
0.066614
0.0688626
0.0712777
0.0736079
0.0761631
0.0785333
0.0806861
0.0461338
0.0315286
0.022418
0.0208301
0.0209978
0.0208977
0.0208025
0.0210615
0.0216283
0.0222906
0.0228491
0.0233043
0.0239206
0.0247253
0.0254868
0.0262088
0.0270531
0.0279662
0.0286963
0.029302
0.0302141
0.0313405
0.032447
0.0335715
0.0347339
0.0359097
0.0371212
0.0383877
0.0396813
0.0410657
0.0425147
0.0440315
0.0455601
0.0471605
0.0488083
0.0505466
0.0523589
0.0542082
0.0561451
0.0580831
0.0601349
0.0622034
0.0643854
0.0666142
0.0688627
0.0712779
0.0736081
0.0761633
0.0785337
0.0806868
0.0453998
0.0316179
0.0225809
0.0208847
0.0210285
0.0209257
0.0208248
0.0210779
0.0216393
0.0222968
0.0228534
0.0233093
0.0239259
0.0247291
0.0254889
0.0262101
0.0270539
0.0279664
0.0286968
0.0293033
0.0302163
0.0313428
0.0324486
0.0335724
0.0347346
0.0359104
0.037122
0.0383886
0.0396821
0.0410666
0.0425154
0.0440321
0.0455606
0.0471609
0.0488086
0.0505468
0.0523591
0.0542084
0.0561453
0.0580833
0.0601351
0.0622036
0.0643856
0.0666144
0.0688629
0.071278
0.0736083
0.0761636
0.0785342
0.0806877
0.0446689
0.0316977
0.022749
0.0209409
0.0210586
0.0209539
0.0208474
0.0210945
0.0216504
0.0223033
0.0228579
0.0233144
0.0239313
0.0247331
0.0254912
0.0262115
0.0270548
0.0279664
0.0286969
0.0293043
0.0302185
0.0313454
0.0324505
0.0335734
0.0347353
0.0359111
0.0371228
0.0383895
0.0396831
0.0410675
0.0425161
0.0440327
0.0455612
0.0471614
0.048809
0.0505471
0.0523593
0.0542086
0.0561455
0.0580835
0.0601353
0.0622038
0.0643858
0.0666146
0.0688631
0.0712783
0.0736085
0.076164
0.0785348
0.0806887
0.0439423
0.0317671
0.0229221
0.020999
0.021088
0.0209822
0.0208706
0.0211114
0.0216617
0.0223099
0.0228625
0.0233197
0.0239369
0.0247373
0.0254935
0.0262128
0.0270555
0.0279662
0.0286967
0.029305
0.0302204
0.0313482
0.0324527
0.0335746
0.0347359
0.0359117
0.0371236
0.0383905
0.0396842
0.0410685
0.042517
0.0440334
0.0455618
0.047162
0.0488095
0.0505474
0.0523595
0.0542087
0.0561457
0.0580837
0.0601355
0.062204
0.064386
0.0666148
0.0688633
0.0712785
0.0736088
0.0761644
0.0785356
0.0806899
0.0432214
0.0318254
0.0231001
0.0210596
0.0211166
0.0210104
0.0208943
0.0211285
0.0216731
0.0223166
0.0228673
0.0233251
0.0239426
0.0247416
0.025496
0.0262142
0.0270562
0.0279659
0.0286961
0.0293053
0.0302222
0.0313509
0.0324551
0.0335759
0.0347366
0.0359122
0.0371243
0.0383914
0.0396853
0.0410697
0.042518
0.0440341
0.0455625
0.0471627
0.0488101
0.0505478
0.0523598
0.0542089
0.0561458
0.0580839
0.0601357
0.0622042
0.0643862
0.066615
0.0688636
0.0712788
0.0736091
0.0761649
0.0785364
0.0806912
0.0425071
0.0318716
0.0232828
0.0211233
0.0211445
0.0210384
0.0209185
0.0211459
0.0216845
0.0223236
0.0228723
0.0233307
0.0239485
0.024746
0.0254986
0.0262156
0.0270569
0.0279653
0.0286951
0.0293055
0.0302238
0.0313536
0.0324575
0.0335773
0.0347373
0.0359128
0.037125
0.0383922
0.0396863
0.0410709
0.042519
0.0440349
0.0455631