/*--------------------------------*- C++ -*----------------------------------*\
| =========                 |                                                 |
| \\      /  F ield         | OpenFOAM: The Open Source CFD Toolbox           |
|  \\    /   O peration     | Version:  v2012                                 |
|   \\  /    A nd           | Website:  www.openfoam.com                      |
|    \\/     M anipulation  |                                                 |
\*---------------------------------------------------------------------------*/
FoamFile
{
    version     2.0;
    format      ascii;
    class       surfaceScalarField;
    location    "8";
    object      phi;
}
// * * * * * * * * * * * * * * * * * * * * * * * * * * * * * * * * * * * * * //

dimensions      [0 3 -1 0 0 0 0];
oriented        oriented;


internalField   nonuniform List<scalar> 
13830
(
8.9538e-07
8.16254e-09
9.62871e-07
-1.57243e-06
1.09373e-06
-1.94477e-07
8.91627e-07
1.37678e-06
9.33059e-07
-3.35061e-08
9.21155e-07
-4.16496e-08
9.20702e-07
-1.04251e-06
9.86794e-07
-2.50222e-07
9.62095e-07
-2.10005e-07
9.57378e-07
5.41438e-07
9.36353e-07
5.00473e-07
9.40684e-07
6.18931e-07
9.3804e-07
2.65466e-07
9.41645e-07
1.71785e-07
9.47799e-07
9.0427e-09
9.38272e-07
-1.39125e-07
9.4748e-07
-6.34621e-08
9.30372e-07
-2.29827e-07
9.36651e-07
-1.05494e-07
-2.09555e-07
9.08967e-07
9.28476e-07
5.22188e-08
9.94791e-07
-1.63875e-06
1.13434e-06
-3.34027e-07
9.40178e-07
1.57095e-06
9.77268e-07
-7.05961e-08
9.75234e-07
-3.96161e-08
9.74678e-07
-1.04196e-06
1.03126e-06
-3.068e-07
1.0052e-06
-1.83944e-07
1.00339e-06
5.43242e-07
9.73644e-07
5.3022e-07
9.86023e-07
6.06552e-07
9.75077e-07
2.76413e-07
9.87934e-07
1.58928e-07
9.82554e-07
1.44223e-08
9.84029e-07
-1.406e-07
9.78191e-07
-5.76243e-08
9.74247e-07
-2.25883e-07
9.6431e-07
-9.5558e-08
-2.00619e-07
9.55375e-07
9.63817e-07
9.78551e-08
1.02569e-06
-1.70062e-06
1.16955e-06
-4.77891e-07
1.00513e-06
1.73537e-06
1.02774e-06
-9.32006e-08
1.03782e-06
-4.97021e-08
1.03003e-06
-1.03417e-06
1.08073e-06
-3.57502e-07
1.0519e-06
-1.55113e-07
1.05509e-06
5.40051e-07
1.01613e-06
5.69185e-07
1.03098e-06
5.91703e-07
1.01679e-06
2.90602e-07
1.03044e-06
1.45276e-07
1.02074e-06
2.41249e-08
1.02391e-06
-1.43772e-07
1.0139e-06
-4.76113e-08
1.01226e-06
-2.24242e-07
1.00011e-06
-8.34069e-08
-1.93729e-07
9.93216e-07
1.00139e-06
1.4424e-07
1.05698e-06
-1.75621e-06
1.20164e-06
-6.22544e-07
1.07714e-06
1.85987e-06
1.08059e-06
-9.66544e-08
1.09971e-06
-6.88217e-08
1.08081e-06
-1.01527e-06
1.12679e-06
-4.03479e-07
1.09784e-06
-1.26165e-07
1.10204e-06
5.3585e-07
1.0641e-06
6.07125e-07
1.07203e-06
5.83779e-07
1.06135e-06
3.0128e-07
1.07028e-06
1.36339e-07
1.06045e-06
3.39623e-08
1.06148e-06
-1.44808e-07
1.05067e-06
-3.67999e-08
1.04808e-06
-2.21647e-07
1.03623e-06
-7.15655e-08
-1.86036e-07
1.02854e-06
1.04179e-06
1.90004e-07
1.0902e-06
-1.80462e-06
1.23077e-06
-7.63117e-07
1.14907e-06
1.94157e-06
1.13212e-06
-7.97041e-08
1.15345e-06
-9.0146e-08
1.12422e-06
-9.86046e-07
1.16428e-06
-4.43539e-07
1.14127e-06
-1.03149e-07
1.14219e-06
5.34932e-07
1.11385e-06
6.35458e-07
1.11378e-06
5.83849e-07
1.10659e-06
3.08471e-07
1.11167e-06
1.31267e-07
1.10155e-06
4.40801e-08
1.10043e-06
-1.43686e-07
1.0894e-06
-2.57774e-08
1.08516e-06
-2.17402e-07
1.07408e-06
-6.0489e-08
-1.76888e-07
1.06493e-06
1.08577e-06
2.33082e-07
1.12664e-06
-1.84549e-06
1.25762e-06
-8.94091e-07
1.21495e-06
1.98424e-06
1.18081e-06
-4.55701e-08
1.1967e-06
-1.06037e-07
1.1619e-06
-9.51246e-07
1.1942e-06
-4.75837e-07
1.18201e-06
-9.09591e-08
1.17986e-06
5.37087e-07
1.16285e-06
6.52459e-07
1.15921e-06
5.87489e-07
1.15291e-06
3.14775e-07
1.15596e-06
1.28221e-07
1.14478e-06
5.5255e-08
1.14201e-06
-1.40911e-07
1.13081e-06
-1.45774e-08
1.12489e-06
-2.11483e-07
1.11446e-06
-5.00605e-08
-1.66407e-07
1.10398e-06
1.13376e-06
2.71022e-07
1.16684e-06
-1.87858e-06
1.28315e-06
-1.0104e-06
1.27159e-06
1.99579e-06
1.2268e-06
-7.80626e-10
1.2324e-06
-1.11637e-07
1.19757e-06
-9.16414e-07
1.22129e-06
-4.99559e-07
1.22047e-06
-9.01401e-08
1.21924e-06
5.38313e-07
1.2113e-06
6.60406e-07
1.20846e-06
5.90331e-07
1.20113e-06
3.22105e-07
1.20288e-06
1.26468e-07
1.19024e-06
6.78976e-08
1.1861e-06
-1.36771e-07
1.17476e-06
-3.23762e-09
1.1673e-06
-2.04029e-07
1.15742e-06
-4.01806e-08
-1.54915e-07
1.14593e-06
1.18561e-06
3.01589e-07
1.2105e-06
-1.90346e-06
1.30844e-06
-1.10834e-06
1.31897e-06
1.98526e-06
1.27086e-06
4.73261e-08
1.2656e-06
-1.06378e-07
1.23432e-06
-8.85126e-07
1.25019e-06
-5.15437e-07
1.25763e-06
-9.75739e-08
1.2617e-06
5.34236e-07
1.26032e-06
6.61785e-07
1.26017e-06
5.90488e-07
1.25096e-06
3.31312e-07
1.25133e-06
1.261e-07
1.23726e-06
8.19635e-08
1.23189e-06
-1.31397e-07
1.22065e-06
7.99901e-09
1.21185e-06
-1.95226e-07
1.2026e-06
-3.09316e-08
-1.42746e-07
1.19043e-06
1.2406e-06
3.23345e-07
1.25689e-06
-1.91975e-06
1.33448e-06
-1.18592e-06
1.35909e-06
1.96065e-06
1.31366e-06
9.27484e-08
1.30063e-06
-9.33469e-08
1.27376e-06
-8.58249e-07
1.28348e-06
-5.25158e-07
1.29498e-06
-1.09081e-07
1.30644e-06
5.22785e-07
1.31007e-06
6.58152e-07
1.31246e-06
5.88093e-07
1.30118e-06
3.42596e-07
1.30001e-06
1.27271e-07
1.285e-06
9.69717e-08
1.27857e-06
-1.24966e-07
1.26787e-06
1.87011e-08
1.25795e-06
-1.85312e-07
1.24953e-06
-2.25061e-08
-1.30241e-07
1.23702e-06
1.29767e-06
3.35955e-07
1.30534e-06
-1.92742e-06
1.3621e-06
-1.24269e-06
1.39465e-06
1.9281e-06
1.35566e-06
1.31737e-07
1.33978e-06
-7.74664e-08
1.3165e-06
-8.34969e-07
1.32171e-06
-5.30361e-07
1.33386e-06
-1.21232e-07
1.35199e-06
5.04657e-07
1.35944e-06
6.50694e-07
1.36353e-06
5.84004e-07
1.35047e-06
3.5566e-07
1.348e-06
1.29739e-07
1.33287e-06
1.12102e-07
1.32571e-06
-1.17806e-07
1.31604e-06
2.83748e-08
1.30531e-06
-1.74588e-07
1.2979e-06
-1.50908e-08
-1.17737e-07
1.28539e-06
1.35586e-06
3.4012e-07
1.35543e-06
-1.927e-06
1.39211e-06
-1.27937e-06
1.42833e-06
1.89189e-06
1.39743e-06
1.62633e-07
1.38345e-06
-6.34873e-08
1.36269e-06
-8.14209e-07
1.36442e-06
-5.32095e-07
1.37485e-06
-1.31653e-07
1.3972e-06
4.82299e-07
1.40712e-06
6.40783e-07
1.41221e-06
5.78908e-07
1.39818e-06
3.69693e-07
1.39512e-06
1.32799e-07
1.38083e-06
1.26388e-07
1.37338e-06
-1.10347e-07
1.36516e-06
3.65871e-08
1.35394e-06
-1.63367e-07
1.34764e-06
-8.78648e-09
-1.05517e-07
1.33542e-06
1.41454e-06
3.37233e-07
1.40708e-06
-1.91954e-06
1.42537e-06
-1.29766e-06
1.4625e-06
1.85476e-06
1.43987e-06
1.8527e-07
1.43099e-06
-5.46145e-08
1.41214e-06
-7.95356e-07
1.41102e-06
-5.30977e-07
1.41806e-06
-1.38693e-07
1.44169e-06
4.58668e-07
1.45253e-06
6.29949e-07
1.45843e-06
5.73006e-07
1.44464e-06
3.83485e-07
1.44193e-06
1.35507e-07
1.42936e-06
1.38955e-07
1.422e-06
-1.02987e-07
1.41553e-06
4.30557e-08
1.40407e-06
-1.51905e-07
1.39887e-06
-3.58741e-09
-9.376e-08
1.38711e-06
1.47352e-06
3.28954e-07
1.46036e-06
-1.90638e-06
1.46274e-06
-1.30004e-06
1.49925e-06
1.81824e-06
1.48409e-06
2.00434e-07
1.4816e-06
-5.2128e-08
1.46443e-06
-7.78187e-07
1.46104e-06
-5.2759e-07
1.46365e-06
-1.41296e-07
1.48599e-06
4.36324e-07
1.49639e-06
6.19554e-07
1.50327e-06
5.66116e-07
1.491e-06
3.95759e-07
1.48947e-06
1.3704e-07
1.47922e-06
1.49208e-07
1.47217e-06
-9.59431e-08
1.46755e-06
4.76803e-08
1.45599e-06
-1.40344e-07
1.4518e-06
5.99773e-10
-8.25276e-08
1.44057e-06
1.53294e-06
3.16891e-07
1.51538e-06
-1.88882e-06
1.50489e-06
-1.28954e-06
1.54013e-06
1.783e-06
1.53108e-06
2.09482e-07
1.53475e-06
-5.58011e-08
1.51907e-06
-7.62506e-07
1.51412e-06
-5.22641e-07
1.51198e-06
-1.39156e-07
1.53141e-06
4.16892e-07
1.54046e-06
6.10502e-07
1.54863e-06
5.57949e-07
1.53883e-06
4.0556e-07
1.53888e-06
1.36995e-07
1.53119e-06
1.56892e-07
1.52444e-06
-8.91895e-08
1.52159e-06
5.05317e-08
1.50998e-06
-1.28736e-07
1.50664e-06
3.93732e-09
-7.18017e-08
1.49591e-06
1.59307e-06
3.02433e-07
1.57222e-06
-1.86797e-06
1.55209e-06
-1.26941e-06
1.58601e-06
1.74909e-06
1.58146e-06
2.14026e-07
1.59029e-06
-6.46281e-08
1.57569e-06
-7.4791e-07
1.56988e-06
-5.16827e-07
1.56349e-06
-1.32766e-07
1.57951e-06
4.00872e-07
1.58688e-06
6.03128e-07
1.5965e-06
5.48336e-07
1.58957e-06
4.12485e-07
1.59105e-06
1.35515e-07
1.58591e-06
1.62038e-07
1.5792e-06
-8.24877e-08
1.57792e-06
5.18147e-08
1.56627e-06
-1.17085e-07
1.56357e-06
6.64213e-09
-6.15398e-08
1.5533e-06
1.65425e-06
2.86725e-07
1.63098e-06
-1.8447e-06
1.60422e-06
-1.24266e-06
1.6371e-06
1.71621e-06
1.63548e-06
2.15654e-07
1.64829e-06
-7.74414e-08
1.6342e-06
-7.33823e-07
1.628e-06
-5.10622e-07
1.61842e-06
-1.23187e-07
1.63147e-06
3.87823e-07
1.63733e-06
5.97262e-07
1.64835e-06
5.37323e-07
1.6442e-06
4.16631e-07
1.64653e-06
1.33186e-07
1.6437e-06
1.64866e-07
1.63672e-06
-7.55067e-08
1.63671e-06
5.18245e-08
1.62501e-06
-1.05382e-07
1.62272e-06
8.93057e-09
-5.17001e-08
1.61288e-06
1.71677e-06
2.70708e-07
1.69177e-06
-1.8197e-06
1.66094e-06
-1.21183e-06
1.69322e-06
1.68394e-06
1.69311e-06
2.15756e-07
1.7089e-06
-9.32296e-08
1.69474e-06
-7.19658e-07
1.6883e-06
-5.04184e-07
1.67674e-06
-1.11624e-07
1.68777e-06
3.76791e-07
1.69267e-06
5.9236e-07
1.70487e-06
5.25118e-07
1.70314e-06
4.18366e-07
1.70553e-06
1.30801e-07
1.70469e-06
1.65705e-07
1.69714e-06
-6.79577e-08
1.69804e-06
5.09204e-08
1.6863e-06
-9.36416e-08
1.68421e-06
1.10215e-08
-4.2268e-08
1.67478e-06
1.78087e-06
2.55156e-07
1.75479e-06
-1.79362e-06
1.72193e-06
-1.17898e-06
1.75404e-06
1.65183e-06
1.75429e-06
2.15507e-07
1.77225e-06
-1.11187e-07
1.75759e-06
-7.04997e-07
1.75083e-06
-4.97427e-07
1.73829e-06
-9.90849e-08
1.74831e-06
3.66775e-07
1.75298e-06
5.87688e-07
1.76609e-06
5.12009e-07
1.7664e-06
4.18051e-07
1.76808e-06
1.29128e-07
1.76886e-06
1.64924e-07
1.76056e-06
-5.96581e-08
1.76198e-06
4.94998e-08
1.75024e-06
-8.19076e-08
1.74816e-06
1.31043e-08
-3.32354e-08
1.73913e-06
1.84681e-06
2.40684e-07
1.82028e-06
-1.76709e-06
1.78707e-06
-1.14576e-06
1.81937e-06
1.61953e-06
1.81892e-06
2.15952e-07
1.83837e-06
-1.30634e-07
1.82304e-06
-6.89671e-07
1.81581e-06
-4.90192e-07
1.80298e-06
-8.62551e-08
1.81272e-06
3.57031e-07
1.81793e-06
5.82479e-07
1.83163e-06
4.98314e-07
1.83377e-06
4.15907e-07
1.83418e-06
1.28723e-07
1.83618e-06
1.6292e-07
1.82707e-06
-5.05442e-08
1.82861e-06
4.79567e-08
1.81694e-06
-7.02348e-08
1.81469e-06
1.53467e-08
-2.45932e-08
1.80605e-06
1.91486e-06
2.27718e-07
1.88851e-06
-1.74074e-06
1.8563e-06
-1.11355e-06
1.88905e-06
1.58678e-06
1.88694e-06
2.18063e-07
1.90724e-06
-1.50942e-07
1.89132e-06
-6.73744e-07
1.88352e-06
-4.82395e-07
1.87084e-06
-7.35725e-08
1.88068e-06
3.47185e-07
1.8871e-06
5.76066e-07
1.90102e-06
4.84386e-07
1.90491e-06
4.12025e-07
1.90381e-06
1.29821e-07
1.9066e-06
1.6013e-07
1.89673e-06
-4.06754e-08
1.89803e-06
4.66522e-08
1.88647e-06
-5.86753e-08
1.88394e-06
1.78818e-08
-1.63206e-08
1.87567e-06
1.98535e-06
2.16473e-07
1.95967e-06
-1.71507e-06
1.92955e-06
-1.08343e-06
1.96288e-06
1.55345e-06
1.95825e-06
2.22697e-07
1.97882e-06
-1.71513e-07
1.9625e-06
-6.57423e-07
1.9542e-06
-4.74095e-07
1.94202e-06
-6.13944e-08
1.95201e-06
3.37192e-07
1.9601e-06
5.67979e-07
1.97386e-06
4.70631e-07
1.97942e-06
4.0646e-07
1.97688e-06
1.32362e-07
1.98004e-06
1.56972e-07
1.96958e-06
-3.02149e-08
1.97035e-06
4.58776e-08
1.95895e-06
-4.72683e-08
1.95604e-06
2.07909e-08
-8.38468e-09
1.9481e-06
2.05857e-06
2.06953e-07
2.03388e-06
-1.69038e-06
2.00653e-06
-1.05608e-06
2.04054e-06
1.51944e-06
2.03279e-06
2.3044e-07
2.05309e-06
-1.91806e-07
2.0366e-06
-6.40933e-07
2.02797e-06
-4.65468e-07
2.0167e-06
-5.0125e-08
2.02664e-06
3.27254e-07
2.03663e-06
5.57993e-07
2.04978e-06
4.57481e-07
2.05696e-06
3.99276e-07
2.05323e-06
1.36096e-07
2.0564e-06
1.538e-07
2.04557e-06
-1.93882e-08
2.04564e-06
4.58124e-08
2.03441e-06
-3.60435e-08
2.03111e-06
2.40962e-08
-7.57999e-10
2.02348e-06
2.13479e-06
1.98999e-07
2.11117e-06
-1.66676e-06
2.08681e-06
-1.03171e-06
2.12155e-06
1.4847e-06
2.11054e-06
2.41445e-07
2.1301e-06
-2.11364e-07
2.11359e-06
-6.24421e-07
2.10483e-06
-4.56706e-07
2.09496e-06
-4.02596e-08
2.1045e-06
3.17719e-07
2.1164e-06
5.46096e-07
2.12858e-06
4.45296e-07
2.13721e-06
3.90643e-07
2.13266e-06
1.40647e-07
2.13558e-06
1.50885e-07
2.12462e-06
-8.42716e-09
2.12392e-06
4.65106e-08
2.11292e-06
-2.50509e-08
2.10925e-06
2.77747e-08
6.56318e-09
2.10193e-06
2.21422e-06
1.92364e-07
2.19155e-06
-1.64408e-06
2.16991e-06
-1.01008e-06
2.2055e-06
1.44912e-06
2.19157e-06
2.55369e-07
2.21002e-06
-2.29813e-07
2.1935e-06
-6.07899e-07
2.1847e-06
-4.47904e-07
2.17678e-06
-3.23458e-08
2.18552e-06
3.08984e-07
2.19918e-06
5.32434e-07
2.2102e-06
4.34278e-07
2.21999e-06
3.80847e-07
2.21502e-06
1.45619e-07
2.21752e-06
1.48385e-07
2.20661e-06
2.48234e-09
2.20521e-06
4.79175e-08
2.19451e-06
-1.43532e-08
2.19053e-06
3.17518e-08
1.35554e-08
2.18354e-06
2.29698e-06
1.86779e-07
2.275e-06
-1.62211e-06
2.25551e-06
-9.90589e-07
2.29211e-06
1.41251e-06
2.27605e-06
2.71437e-07
2.29307e-06
-2.46836e-07
2.27643e-06
-5.91263e-07
2.2675e-06
-4.38975e-07
2.26205e-06
-2.68892e-08
2.26971e-06
3.01323e-07
2.28485e-06
5.17291e-07
2.29469e-06
4.2444e-07
2.30529e-06
3.70247e-07
2.30023e-06
1.5068e-07
2.30226e-06
1.46352e-07
2.29154e-06
1.32023e-08
2.28949e-06
4.99676e-08
2.27914e-06
-4.00821e-09
2.27503e-06
3.58697e-08
2.0189e-08
2.26839e-06
2.38317e-06
1.81993e-07
2.36156e-06
-1.60049e-06
2.34349e-06
-9.72517e-07
2.38135e-06
1.37465e-06
2.36418e-06
2.8861e-07
2.37949e-06
-2.62144e-07
2.36259e-06
-5.7436e-07
2.35323e-06
-4.29613e-07
2.35054e-06
-2.42089e-08
2.35708e-06
2.94786e-07
2.3734e-06
5.00971e-07
2.38221e-06
4.15627e-07
2.39322e-06
3.59239e-07
2.38831e-06
1.55597e-07
2.38985e-06
1.44807e-07
2.37947e-06
2.35816e-08
2.37666e-06
5.27789e-08
2.36666e-06
5.99411e-09
2.36281e-06
3.9723e-08
2.64697e-08
2.35652e-06
2.4729e-06
1.77776e-07
2.4513e-06
-1.5789e-06
2.43394e-06
-9.55152e-07
2.47334e-06
1.33524e-06
2.45618e-06
3.0577e-07
2.46951e-06
-2.75474e-07
2.45223e-06
-5.57079e-07
2.44202e-06
-4.19404e-07
2.44211e-06
-2.42972e-08
2.44767e-06
2.89222e-07
2.46488e-06
4.83761e-07
2.47298e-06
4.07534e-07
2.48398e-06
3.48235e-07
2.47939e-06
1.60182e-07
2.48038e-06
1.43823e-07
2.4706e-06
3.33555e-08
2.4662e-06
5.71791e-08
2.45676e-06
1.54351e-08
2.45401e-06
4.24779e-08
3.25044e-08
2.44797e-06
2.56626e-06
1.73914e-07
2.54433e-06
-1.55697e-06
2.52705e-06
-9.37877e-07
2.56826e-06
1.29403e-06
2.55216e-06
3.21875e-07
2.56328e-06
-2.86595e-07
2.54565e-06
-5.39447e-07
2.53414e-06
-4.07894e-07
2.53671e-06
-2.68645e-08
2.54153e-06
2.84398e-07
2.55935e-06
4.65937e-07
2.56713e-06
3.99759e-07
2.57778e-06
3.37588e-07
2.57357e-06
1.6439e-07
2.57403e-06
1.43363e-07
2.56505e-06
4.23357e-08
2.56448e-06
5.77448e-08
2.55758e-06
2.23368e-08
2.54874e-06
5.13124e-08
3.8472e-08
2.54278e-06
2.6634e-06
1.70193e-07
2.6408e-06
-1.53437e-06
2.6231e-06
-9.20182e-07
2.66631e-06
1.25083e-06
2.65214e-06
3.36043e-07
2.66087e-06
-2.95332e-07
2.64304e-06
-5.21613e-07
2.62982e-06
-3.94673e-07
2.63439e-06
-3.14409e-08
2.63874e-06
2.80056e-07
2.65688e-06
4.47795e-07
2.66476e-06
3.91879e-07
2.67482e-06
3.27529e-07
2.67093e-06
1.68279e-07
2.67154e-06
1.4275e-07
2.66082e-06
5.3059e-08
2.65579e-06
6.27745e-08
2.64758e-06
3.05484e-08
2.64627e-06
5.26191e-08
4.34816e-08
2.64126e-06
2.76444e-06
1.66403e-07
2.74088e-06
-1.5108e-06
2.72235e-06
-9.01649e-07
2.76762e-06
1.20555e-06
2.75605e-06
3.47613e-07
2.76231e-06
-3.01585e-07
2.7445e-06
-5.03803e-07
2.72933e-06
-3.79506e-07
2.73528e-06
-3.73907e-08
2.73947e-06
2.75866e-07
2.75743e-06
4.29831e-07
2.76611e-06
3.83204e-07
2.77502e-06
3.18622e-07
2.77204e-06
1.71256e-07
2.77225e-06
1.42539e-07
2.76116e-06
6.41479e-08
2.75497e-06
6.89622e-08
2.74715e-06
3.83721e-08
2.74781e-06
5.19551e-08
4.81308e-08
2.74316e-06
2.86951e-06
1.62351e-07
2.84476e-06
-1.48605e-06
2.82507e-06
-8.81961e-07
2.87235e-06
1.15828e-06
2.86382e-06
3.56141e-07
2.86757e-06
-3.05327e-07
2.85012e-06
-4.86356e-07
2.83293e-06
-3.62313e-07
2.83954e-06
-4.40042e-08
2.84393e-06
2.71473e-07
2.86112e-06
4.12643e-07
2.87128e-06
3.73048e-07
2.87857e-06
3.11324e-07
2.87676e-06
1.73064e-07
2.87788e-06
1.41426e-07
2.87456e-06
6.74663e-08
2.8735e-06
7.00222e-08
2.86658e-06
4.52937e-08
2.85415e-06
6.43842e-08
5.3884e-08
2.8484e-06
2.97872e-06
1.57876e-07
2.95264e-06
-1.45997e-06
2.93159e-06
-8.60909e-07
2.98063e-06
1.10923e-06
2.97538e-06
3.61395e-07
2.97663e-06
-3.06574e-07
2.95997e-06
-4.69701e-07
2.94082e-06
-3.4316e-07
2.94743e-06
-5.06131e-08
2.95227e-06
2.66634e-07
2.96829e-06
3.96617e-07
2.98006e-06
3.61283e-07
2.98617e-06
3.05212e-07
2.98512e-06
1.74115e-07
2.9818e-06
1.44743e-07
2.97274e-06
7.65262e-08
2.96495e-06
7.78193e-08
2.95844e-06
5.18029e-08
2.96183e-06
6.09939e-08
5.73814e-08
2.95833e-06
3.09216e-06
1.52877e-07
3.06469e-06
-1.43251e-06
3.0422e-06
-8.3842e-07
3.09266e-06
1.05877e-06
3.09073e-06
3.63326e-07
3.08954e-06
-3.05379e-07
3.07409e-06
-4.5425e-07
3.05318e-06
-3.2225e-07
3.05924e-06
-5.66792e-08
3.06468e-06
2.61199e-07
3.07941e-06
3.81888e-07
3.0923e-06
3.4839e-07
3.09838e-06
2.99135e-07
3.09792e-06
1.74573e-07
3.10005e-06
1.42609e-07
3.10056e-06
7.60131e-08
3.09887e-06
7.95123e-08
3.09186e-06
5.88119e-08
3.0766e-06
7.6257e-08
6.27703e-08
3.07121e-06
3.20993e-06
1.47307e-07
3.18111e-06
-1.40369e-06
3.15728e-06
-8.1459e-07
3.20864e-06
1.00741e-06
3.20999e-06
3.61978e-07
3.20634e-06
-3.01734e-07
3.19253e-06
-4.40445e-07
3.17009e-06
-2.99805e-07
3.17529e-06
-6.18794e-08
3.18132e-06
2.55172e-07
3.19515e-06
3.68057e-07
3.20735e-06
3.36189e-07
3.21667e-06
2.89812e-07
3.21392e-06
1.77321e-07
3.21602e-06
1.40514e-07
3.20105e-06
9.09856e-08
3.19368e-06
8.68774e-08
3.18756e-06
6.49295e-08
3.19184e-06
7.1983e-08
6.50798e-08
3.18953e-06
3.33213e-06
1.4119e-07
3.30207e-06
-1.37362e-06
3.27711e-06
-7.89638e-07
3.32882e-06
9.55702e-07
3.33327e-06
3.57532e-07
3.32737e-06
-2.95832e-07
3.31521e-06
-4.28289e-07
3.29189e-06
-2.7648e-07
3.29553e-06
-6.55257e-08
3.30303e-06
2.47677e-07
3.31489e-06
3.56192e-07
3.32787e-06
3.23213e-07
3.33767e-06
2.80014e-07
3.32884e-06
1.86153e-07
3.32641e-06
1.42944e-07
3.31973e-06
9.76644e-08
3.31422e-06
9.23859e-08
3.30788e-06
7.12725e-08
3.31334e-06
6.65167e-08
6.68568e-08
3.31156e-06
3.45888e-06
1.34597e-07
3.42774e-06
-1.34249e-06
3.40199e-06
-7.63887e-07
3.4535e-06
9.04192e-07
3.46076e-06
3.50277e-07
3.45295e-06
-2.88024e-07
3.44212e-06
-4.17466e-07
3.41878e-06
-2.53136e-07
3.42007e-06
-6.68122e-08
3.4302e-06
2.37543e-07
3.43868e-06
3.4771e-07
3.45356e-06
3.08338e-07
3.45925e-06
2.74319e-07
3.46661e-06
1.78799e-07
3.46818e-06
1.41369e-07
3.47023e-06
9.56138e-08
3.46914e-06
9.34819e-08
3.46328e-06
7.71286e-08
3.44216e-06
8.76419e-08
7.18021e-08
3.43721e-06
3.59032e-06
1.27623e-07
3.55825e-06
-1.31041e-06
3.53223e-06
-7.37871e-07
3.58283e-06
8.53586e-07
3.59286e-06
3.40255e-07
3.583e-06
-2.78164e-07
3.57377e-06
-4.0824e-07
3.55023e-06
-2.29597e-07
3.55014e-06
-6.67176e-08
3.56075e-06
2.26932e-07
3.57051e-06
3.37946e-07
3.58096e-06
2.97887e-07
3.59212e-06
2.63166e-07
3.58441e-06
1.865e-07
3.58068e-06
1.45107e-07
3.57308e-06
1.03211e-07
3.56875e-06
9.78086e-08
3.56445e-06
8.14294e-08
3.57046e-06
8.16349e-08
7.28006e-08
3.56946e-06
3.72662e-06
1.2039e-07
3.69377e-06
-1.27757e-06
3.66796e-06
-7.12058e-07
3.71717e-06
8.04371e-07
3.72963e-06
3.27798e-07
3.71809e-06
-2.66622e-07
3.70985e-06
-4.00002e-07
3.68717e-06
-2.06923e-07
3.6848e-06
-6.43397e-08
3.69717e-06
2.14559e-07
3.70644e-06
3.28678e-07
3.71638e-06
2.87942e-07
3.73032e-06
2.49228e-07
3.71946e-06
1.97358e-07
3.71495e-06
1.49613e-07
3.70751e-06
1.10655e-07
3.70331e-06
1.02007e-07
3.69893e-06
8.58166e-08
3.70662e-06
7.394e-08
7.36391e-08
3.70578e-06
3.86796e-06
1.1302e-07
3.8345e-06
-1.24411e-06
3.80931e-06
-6.86861e-07
3.85681e-06
7.56872e-07
3.87116e-06
3.13443e-07
3.85867e-06
-2.54129e-07
3.85029e-06
-3.91623e-07
3.83013e-06
-1.86759e-07
3.82375e-06
-5.79669e-08
3.84004e-06
1.98275e-07
3.84366e-06
3.25055e-07
3.85665e-06
2.74952e-07
3.86139e-06
2.44491e-07
3.87852e-06
1.80226e-07
3.88048e-06
1.47653e-07
3.88346e-06
1.07675e-07
3.88307e-06
1.02402e-07
3.87741e-06
9.14713e-08
3.85181e-06
9.95455e-08
7.96933e-08
3.84575e-06
4.01459e-06
1.05584e-07
3.9805e-06
-1.21002e-06
3.95658e-06
-6.62942e-07
4.0017e-06
7.1175e-07
4.01823e-06
2.96917e-07
4.00416e-06
-2.40054e-07
3.99671e-06
-3.84179e-07
3.97673e-06
-1.66776e-07
3.97111e-06
-5.23528e-08
3.98409e-06
1.85298e-07
3.99706e-06
3.12086e-07
4.00614e-06
2.65874e-07
4.0196e-06
2.31028e-07
4.00514e-06
1.94688e-07
3.99941e-06
1.53385e-07
3.992e-06
1.15086e-07
3.98857e-06
1.05827e-07
3.98672e-06
9.33195e-08
3.99453e-06
9.17416e-08
8.03067e-08
3.99391e-06
4.1667e-06
9.8167e-08
4.13206e-06
-1.17539e-06
4.10965e-06
-6.40532e-07
4.15246e-06
6.68938e-07
4.17046e-06
2.78924e-07
4.15564e-06
-2.25239e-07
4.14799e-06
-3.76523e-07
4.1297e-06
-1.48494e-07
4.12323e-06
-4.58775e-08
4.13507e-06
1.73457e-07
4.15045e-06
2.96703e-07
4.14468e-06
2.71651e-07
4.15387e-06
2.21839e-07
4.15413e-06
1.94419e-07
4.15046e-06
1.57059e-07
4.14295e-06
1.22598e-07
4.1393e-06
1.0948e-07
4.13719e-06
9.54264e-08
4.1468e-06
8.21298e-08
8.09814e-08
4.14613e-06
4.32452e-06
9.08312e-08
4.28944e-06
-1.14031e-06
4.26855e-06
-6.19639e-07
4.3094e-06
6.28086e-07
4.3278e-06
2.60527e-07
4.31381e-06
-2.11251e-07
4.30372e-06
-3.66429e-07
4.2902e-06
-1.34978e-07
4.27885e-06
-3.45297e-08
4.29439e-06
1.57926e-07
4.3002e-06
2.9089e-07
4.32025e-06
2.51596e-07
4.33111e-06
2.10983e-07
4.3407e-06
1.84832e-07
4.34129e-06
1.56466e-07
4.34644e-06
1.17445e-07
4.3466e-06
1.09325e-07
4.3391e-06
1.02921e-07
4.31066e-06
1.10573e-07
8.92611e-08
4.30238e-06
4.48836e-06
8.35595e-08
4.4526e-06
-1.10455e-06
4.43372e-06
-6.00758e-07
4.47214e-06
5.89668e-07
4.49172e-06
2.4095e-07
4.47687e-06
-1.96408e-07
4.46766e-06
-3.57214e-07
4.45276e-06
-1.20084e-07
4.44533e-06
-2.7092e-08
4.45406e-06
1.49189e-07
4.47458e-06
2.70377e-07
4.4658e-06
2.60367e-07
4.47286e-06
2.03928e-07
4.47134e-06
1.86353e-07
4.46974e-06
1.58064e-07
4.46244e-06
1.24744e-07
4.45928e-06
1.1249e-07
4.45898e-06
1.03214e-07
4.46882e-06
1.00738e-07
9.00859e-08
4.46799e-06
4.65837e-06
7.63998e-08
4.6221e-06
-1.06828e-06
4.60489e-06
-5.83551e-07
4.64163e-06
5.52923e-07
4.6609e-06
2.21682e-07
4.64749e-06
-1.82997e-07
4.63595e-06
-3.45667e-07
4.6242e-06
-1.08341e-07
4.61495e-06
-1.78351e-08
4.62088e-06
1.43258e-07
4.63473e-06
2.56529e-07
4.63499e-06
2.601e-07
4.64299e-06
1.95926e-07
4.63878e-06
1.90565e-07
4.63885e-06
1.57997e-07
4.63171e-06
1.31878e-07
4.62832e-06
1.15889e-07
4.62745e-06
1.04075e-07
4.63899e-06
8.92001e-08
9.0868e-08
4.63821e-06
4.83482e-06
6.93629e-08
4.79817e-06
-1.03163e-06
4.78228e-06
-5.67661e-07
4.81818e-06
5.17024e-07
4.83516e-06
2.04706e-07
4.82686e-06
-1.74701e-07
4.80794e-06
-3.26745e-07
4.80553e-06
-1.05936e-07
4.78663e-06
1.06721e-09
4.80595e-06
1.23944e-07
4.80726e-06
2.55216e-07
4.81926e-06
2.481e-07
4.82317e-06
1.92011e-07
4.85088e-06
1.6286e-07
4.85873e-06
1.50148e-07
4.86574e-06
1.24869e-07
4.86505e-06
1.16575e-07
4.85501e-06
1.14118e-07
4.82321e-06
1.20994e-07
1.01763e-07
4.81232e-06
5.01806e-06
6.23748e-08
4.98067e-06
-9.94247e-07
4.96666e-06
-5.53647e-07
5.00073e-06
4.8295e-07
5.01822e-06
1.87215e-07
5.00824e-06
-1.64715e-07
4.99291e-06
-3.11414e-07
4.98588e-06
-9.89127e-08
4.97198e-06
1.49754e-08
4.97992e-06
1.16e-07
4.99145e-06
2.43688e-07
4.9941e-06
2.45446e-07
4.99619e-06
1.89922e-07
4.99635e-06
1.62705e-07
4.99598e-06
1.50515e-07
4.99264e-06
1.28213e-07
4.9858e-06
1.23416e-07
4.98642e-06
1.13498e-07
4.99861e-06
1.08799e-07
1.02879e-07
4.99749e-06
5.20819e-06
5.54981e-08
5.17052e-06
-9.56579e-07
5.15759e-06
-5.40718e-07
5.19099e-06
4.49557e-07
5.20714e-06
1.71066e-07
5.19735e-06
-1.54932e-07
5.18433e-06
-2.98393e-07
5.17339e-06
-8.79701e-08
5.16569e-06
2.26726e-08
5.16594e-06
1.15748e-07
5.1831e-06
2.26528e-07
5.18174e-06
2.46809e-07
5.18524e-06
1.86419e-07
5.18446e-06
1.63487e-07
5.18636e-06
1.48617e-07
5.18169e-06
1.32886e-07
5.1826e-06
1.22505e-07
5.18346e-06
1.12633e-07
5.18628e-06
1.05984e-07
1.0088e-07
5.18828e-06
5.40557e-06
4.8702e-08
5.36774e-06
-9.18741e-07
5.35551e-06
-5.28493e-07
5.38907e-06
4.16001e-07
5.40211e-06
1.58018e-07
5.39524e-06
-1.48057e-07
5.37988e-06
-2.83039e-07
5.37163e-06
-7.97116e-08
5.36068e-06
3.36132e-08
5.36281e-06
1.13626e-07
5.37736e-06
2.11978e-07
5.37921e-06
2.44956e-07
5.38006e-06
1.85567e-07
5.38138e-06
1.6217e-07
5.38224e-06
1.47753e-07
5.38074e-06
1.34391e-07
5.38187e-06
1.21366e-07
5.38295e-06
1.1156e-07
5.38289e-06
1.06039e-07
9.84393e-08
5.38533e-06
5.61048e-06
4.19591e-08
5.57244e-06
-8.80704e-07
5.56093e-06
-5.16978e-07
5.59464e-06
3.82287e-07
5.60554e-06
1.47121e-07
5.59916e-06
-1.41676e-07
5.58365e-06
-2.67526e-07
5.57655e-06
-7.26183e-08
5.56504e-06
4.51319e-08
5.56663e-06
1.12036e-07
5.57982e-06
1.98784e-07
5.58394e-06
2.40832e-07
5.58345e-06
1.86058e-07
5.58525e-06
1.60371e-07
5.58609e-06
1.4692e-07
5.58669e-06
1.33792e-07
5.58564e-06
1.22415e-07
5.58482e-06
1.12375e-07
5.58746e-06
1.03403e-07
9.61388e-08
5.58976e-06
5.8231e-06
3.53346e-08
5.78536e-06
-8.42959e-07
5.77387e-06
-5.05484e-07
5.80885e-06
3.47306e-07
5.81682e-06
1.39143e-07
5.81086e-06
-1.35708e-07
5.79463e-06
-2.51304e-07
5.78902e-06
-6.70037e-08
5.77744e-06
5.67081e-08
5.77793e-06
1.11548e-07
5.79021e-06
1.86501e-07
5.79646e-06
2.34589e-07
5.79514e-06
1.8737e-07
5.79684e-06
1.58675e-07
5.79792e-06
1.45835e-07
5.7994e-06
1.32316e-07
5.79892e-06
1.22894e-07
5.8003e-06
1.10998e-07
5.79987e-06
1.03833e-07
9.4043e-08
5.80196e-06
6.0438e-06
2.88292e-08
6.00647e-06
-8.05629e-07
5.99479e-06
-4.93801e-07
6.03111e-06
3.10987e-07
6.03675e-06
1.33501e-07
6.03015e-06
-1.29106e-07
6.01356e-06
-2.34709e-07
6.00915e-06
-6.25968e-08
5.99833e-06
6.7531e-08
5.99742e-06
1.12457e-07
6.00897e-06
1.74953e-07
6.01675e-06
2.26802e-07
6.01522e-06
1.88905e-07
6.0167e-06
1.57197e-07
6.01783e-06
1.44704e-07
6.01959e-06
1.3055e-07
6.01866e-06
1.23827e-07
6.01728e-06
1.12378e-07
6.02029e-06
1.00828e-07
9.20645e-08
6.02227e-06
6.27284e-06
2.24873e-08
6.23614e-06
-7.68923e-07
6.22408e-06
-4.81746e-07
6.261e-06
2.74066e-07
6.26547e-06
1.29032e-07
6.25761e-06
-1.21246e-07
6.24097e-06
-2.18063e-07
6.23739e-06
-5.90166e-08
6.22794e-06
7.6975e-08
6.22562e-06
1.14776e-07
6.23608e-06
1.64491e-07
6.2452e-06
2.17684e-07
6.2439e-06
1.90207e-07
6.24515e-06
1.55951e-07
6.24598e-06
1.43874e-07
6.24815e-06
1.28371e-07
6.24911e-06
1.22876e-07
6.25141e-06
1.10071e-07
6.24941e-06
1.02834e-07
9.05763e-08
6.25089e-06
6.51056e-06
1.6332e-08
6.47464e-06
-7.33001e-07
6.46206e-06
-4.69167e-07
6.49889e-06
2.37235e-07
6.50337e-06
1.24551e-07
6.49391e-06
-1.11783e-07
6.47727e-06
-2.01428e-07
6.47409e-06
-5.58359e-08
6.46637e-06
8.46955e-08
6.46289e-06
1.18254e-07
6.47198e-06
1.55403e-07
6.48216e-06
2.07504e-07
6.48146e-06
1.90904e-07
6.48242e-06
1.54993e-07
6.48305e-06
1.43249e-07
6.48509e-06
1.2633e-07
6.48543e-06
1.22539e-07
6.48456e-06
1.10938e-07
6.48718e-06
1.0021e-07
8.95363e-08
6.48822e-06
6.75726e-06
1.04089e-08
6.72219e-06
-6.97926e-07
6.70913e-06
-4.56111e-07
6.74545e-06
2.00916e-07
6.75053e-06
1.19474e-07
6.73971e-06
-1.00963e-07
6.72278e-06
-1.84505e-07
6.71987e-06
-5.29207e-08
6.71397e-06
9.05968e-08
6.70962e-06
1.22606e-07
6.71685e-06
1.48172e-07
6.72788e-06
1.96472e-07
6.72807e-06
1.90708e-07
6.72876e-06
1.54308e-07
6.72931e-06
1.42697e-07
6.73113e-06
1.24507e-07
6.73341e-06
1.20261e-07
6.73568e-06
1.08671e-07
6.73427e-06
1.01617e-07
8.9085e-08
6.73472e-06
7.01331e-06
4.75087e-09
6.97914e-06
-6.63762e-07
6.9657e-06
-4.42669e-07
7.00096e-06
1.65657e-07
7.00737e-06
1.13064e-07
6.99545e-06
-8.90443e-08
6.97796e-06
-1.67008e-07
6.97495e-06
-4.99131e-08
6.97075e-06
9.47993e-08
6.96613e-06
1.27226e-07
6.97129e-06
1.43012e-07
6.98287e-06
1.84889e-07
6.98421e-06
1.89372e-07
6.98461e-06
1.53906e-07
6.98521e-06
1.42099e-07
6.98656e-06
1.23155e-07
6.98809e-06
1.1873e-07
6.98791e-06
1.08847e-07
6.99052e-06
9.90091e-08
8.89559e-08
6.99065e-06
7.27905e-06
-6.07019e-10
7.24568e-06
-6.30398e-07
7.23218e-06
-4.29168e-07
7.2661e-06
1.31737e-07
7.27644e-06
1.02724e-07
7.26146e-06
-7.40571e-08
7.24308e-06
-1.48632e-07
7.23982e-06
-4.66552e-08
7.23713e-06
9.74866e-08
7.23272e-06
1.31637e-07
7.23577e-06
1.39964e-07
7.24729e-06
1.7337e-07
7.24996e-06
1.867e-07
7.2501e-06
1.53768e-07
7.25091e-06
1.41292e-07
7.25189e-06
1.22176e-07
7.25479e-06
1.15831e-07
7.25694e-06
1.06695e-07
7.25661e-06
9.93353e-08
8.89862e-08
7.25658e-06
7.55484e-06
-5.61251e-09
7.52251e-06
-5.98076e-07
7.50866e-06
-4.15311e-07
7.54134e-06
9.90542e-08
7.55605e-06
8.80128e-08
7.5371e-06
-5.51066e-08
7.5187e-06
-1.30232e-07
7.51483e-06
-4.27804e-08
7.51335e-06
9.89601e-08
7.50963e-06
1.35355e-07
7.5108e-06
1.38795e-07
7.52164e-06
1.62528e-07
7.52576e-06
1.82584e-07
7.52583e-06
1.53699e-07
7.52694e-06
1.40182e-07
7.52742e-06
1.21691e-07
7.52946e-06
1.13798e-07
7.52961e-06
1.06537e-07
7.5325e-06
9.64505e-08
8.87607e-08
7.53273e-06
7.84099e-06
-1.01522e-08
7.81038e-06
-5.67464e-07
7.79512e-06
-4.00053e-07
7.82723e-06
6.69508e-08
7.83312e-06
8.2122e-08
7.82162e-06
-4.36123e-08
7.8056e-06
-1.14203e-07
7.80032e-06
-3.75017e-08
7.79988e-06
9.93975e-08
7.79717e-06
1.38063e-07
7.79684e-06
1.3913e-07
7.80641e-06
1.52955e-07
7.81201e-06
1.76979e-07
7.8121e-06
1.5361e-07
7.81346e-06
1.3882e-07
7.8136e-06
1.21553e-07
7.81646e-06
1.10941e-07
7.81887e-06
1.04131e-07
7.81888e-06
9.64383e-08
8.82161e-08
7.81942e-06
8.13804e-06
-1.42289e-08
8.10889e-06
-5.38312e-07
8.09221e-06
-3.83377e-07
8.12507e-06
3.40914e-08
8.14175e-06
6.54394e-08
8.13799e-06
-3.98468e-08
8.10641e-06
-8.26249e-08
8.09634e-06
-2.74333e-08
8.09704e-06
9.8701e-08
8.09554e-06
1.39563e-07
8.09424e-06
1.40422e-07
8.10204e-06
1.45157e-07
8.10889e-06
1.70134e-07
8.10931e-06
1.53191e-07
8.11085e-06
1.37277e-07
8.11079e-06
1.21618e-07
8.11258e-06
1.09142e-07
8.11296e-06
1.03757e-07
8.11615e-06
9.32419e-08
8.71906e-08
8.11718e-06
8.44638e-06
-1.78516e-08
8.41763e-06
-5.09554e-07
8.403e-06
-3.68746e-07
8.43143e-06
5.66002e-09
8.44661e-06
5.0256e-08
8.429e-06
-2.22408e-08
8.41069e-06
-6.43135e-08
8.40447e-06
-2.12133e-08
8.40555e-06
9.76242e-08
8.40521e-06
1.39905e-07
8.40346e-06
1.4217e-07
8.40915e-06
1.39462e-07
8.41688e-06
1.62406e-07
8.41784e-06
1.52229e-07
8.41943e-06
1.35687e-07
8.41952e-06
1.21532e-07
8.42151e-06
1.07153e-07
8.42409e-06
1.01179e-07
8.42475e-06
9.25786e-08
8.58075e-08
8.42613e-06
8.76635e-06
-2.09123e-08
8.7389e-06
-4.82106e-07
8.7236e-06
-3.53445e-07
8.74773e-06
-1.8472e-08
8.76111e-06
3.68704e-08