/*--------------------------------*- C++ -*----------------------------------*\
| =========                 |                                                 |
| \\      /  F ield         | OpenFOAM: The Open Source CFD Toolbox           |
|  \\    /   O peration     | Version:  v2012                                 |
|   \\  /    A nd           | Website:  www.openfoam.com                      |
|    \\/     M anipulation  |                                                 |
\*---------------------------------------------------------------------------*/
FoamFile
{
    version     2.0;
    format      ascii;
    class       volVectorField;
    location    "8";
    object      U;
}
// * * * * * * * * * * * * * * * * * * * * * * * * * * * * * * * * * * * * * //

dimensions      [0 1 -1 0 0 0 0];


internalField   nonuniform List<vector> 
7000
(
(0.807031 -0.000175709 0)
(1.08643 -0.0137378 0)
(0.972682 -0.000831358 0)
(1.351 0.0143768 0)
(0.588644 5.0227e-05 0)
(1.36084 -0.000730289 0)
(0.645514 -0.0172947 0)
(1.28513 -0.00366636 0)
(0.845445 -0.00475462 0)
(1.18789 0.0126997 0)
(0.873079 0.0130759 0)
(1.11303 0.0187117 0)
(0.904767 0.00896881 0)
(1.08978 0.00672592 0)
(0.92514 0.000567538 0)
(1.0925 -0.00703203 0)
(0.91548 -0.00329063 0)
(1.1001 -0.0148177 0)
(0.889243 -0.00746869 0)
(1.10321 -0.0171318 0)
(0.817994 0.000233588 0)
(1.07533 -0.0144388 0)
(0.973216 -0.00270693 0)
(1.34361 0.0165172 0)
(0.628313 -0.000693609 0)
(1.34055 -0.000620677 0)
(0.701945 -0.0172244 0)
(1.26984 -0.00522191 0)
(0.873597 -0.00421744 0)
(1.17664 0.0129053 0)
(0.902214 0.0137165 0)
(1.08914 0.0186081 0)
(0.946333 0.0092445 0)
(1.05406 0.00646041 0)
(0.979058 0.000451799 0)
(1.0409 -0.00686965 0)
(0.982594 -0.00334969 0)
(1.02898 -0.0144972 0)
(0.971745 -0.00673117 0)
(1.01381 -0.0174277 0)
(0.837766 0.000609462 0)
(1.05792 -0.0150784 0)
(0.975767 -0.00421215 0)
(1.32692 0.0189992 0)
(0.697459 -0.00113253 0)
(1.30454 -0.00061493 0)
(0.781324 -0.017197 0)
(1.23405 -0.00625342 0)
(0.924468 -0.0036047 0)
(1.1476 0.0129529 0)
(0.953285 0.0147474 0)
(1.05433 0.0181957 0)
(0.991038 0.00969842 0)
(1.02345 0.00588157 0)
(1.01527 0.000798993 0)
(1.01066 -0.0069854 0)
(1.01395 -0.00301405 0)
(0.998444 -0.0140814 0)
(1.00143 -0.00639181 0)
(0.985291 -0.0161531 0)
(0.863865 0.000973266 0)
(1.0365 -0.0156148 0)
(0.980953 -0.00564959 0)
(1.30041 0.0208064 0)
(0.781543 -0.00130458 0)
(1.25526 -0.000816723 0)
(0.865161 -0.0169683 0)
(1.18102 -0.00715385 0)
(0.980371 -0.00293613 0)
(1.10894 0.0128006 0)
(0.999834 0.01582 0)
(1.03018 0.0177717 0)
(1.01563 0.0101182 0)
(1.01263 0.00539811 0)
(1.02589 0.00124838 0)
(1.00316 -0.00714124 0)
(1.01815 -0.00235481 0)
(0.991513 -0.0140013 0)
(1.00366 -0.00558903 0)
(0.979212 -0.0152243 0)
(0.893384 0.00134016 0)
(1.01441 -0.0160793 0)
(0.988517 -0.00709261 0)
(1.26538 0.0219812 0)
(0.86606 -0.00119541 0)
(1.19894 -0.00113816 0)
(0.935534 -0.0165287 0)
(1.12302 -0.00798169 0)
(1.02249 -0.00235505 0)
(1.07471 0.0126593 0)
(1.0271 0.016708 0)
(1.02246 0.0176376 0)
(1.02404 0.0104149 0)
(1.01403 0.0051295 0)
(1.0257 0.00168518 0)
(1.00492 -0.00713207 0)
(1.01421 -0.00171756 0)
(0.99281 -0.0138221 0)
(0.998627 -0.00470673 0)
(0.980358 -0.014435 0)
(0.923088 0.00169704 0)
(0.995414 -0.0164807 0)
(0.997074 -0.00848425 0)
(1.22483 0.0226839 0)
(0.938788 -0.000832338 0)
(1.14439 -0.00144157 0)
(0.982653 -0.0159683 0)
(1.07312 -0.00867358 0)
(1.04275 -0.0019843 0)
(1.05249 0.0126746 0)
(1.03713 0.0173201 0)
(1.02503 0.0177281 0)
(1.02673 0.0106425 0)
(1.01909 0.00498189 0)
(1.0245 0.00215511 0)
(1.00843 -0.00702574 0)
(1.01084 -0.00109815 0)
(0.995584 -0.0134954 0)
(0.994559 -0.00390671 0)
(0.982649 -0.0136495 0)
(0.949995 0.00202353 0)
(0.982404 -0.0168151 0)
(1.00446 -0.00974504 0)
(1.18278 0.0229879 0)
(0.9926 -0.000293162 0)
(1.09894 -0.0016186 0)
(1.00694 -0.0153882 0)
(1.0382 -0.00918451 0)
(1.04425 -0.00185352 0)
(1.04088 0.0127747 0)
(1.03855 0.0176624 0)
(1.03095 0.0178549 0)
(1.02962 0.0108802 0)
(1.0239 0.00489554 0)
(1.02496 0.00268194 0)
(1.01123 -0.00685442 0)
(1.0097 -0.000465867 0)
(0.997849 -0.013066 0)
(0.992968 -0.0031868 0)
(0.984543 -0.0127905 0)
(0.972011 0.00230031 0)
(0.976494 -0.0170747 0)
(1.00872 -0.0108309 0)
(1.14292 0.0229686 0)
(1.02615 0.000322431 0)
(1.0657 -0.00162531 0)
(1.01502 -0.0148521 0)
(1.01769 -0.00952499 0)
(1.03528 -0.00193549 0)
(1.03467 0.0127912 0)
(1.03794 0.0177888 0)
(1.03647 0.0179117 0)
(1.03349 0.011171 0)
(1.02722 0.0048576 0)
(1.02624 0.00326943 0)
(1.01286 -0.00662107 0)
(1.0097 0.000160756 0)
(0.999385 -0.0125504 0)
(0.992879 -0.00251871 0)
(0.986044 -0.0118541 0)
(0.988255 0.00251143 0)
(0.97693 -0.0172545 0)
(1.00903 -0.0117223 0)
(1.10755 0.0227313 0)
(1.04223 0.000936167 0)
(1.04369 -0.00148166 0)
(1.01476 -0.0143837 0)
(1.00699 -0.00973752 0)
(1.02351 -0.00215572 0)
(1.02966 0.012619 0)
(1.03745 0.0177522 0)
(1.04003 0.017877 0)
(1.03674 0.0115283 0)
(1.02855 0.0048742 0)
(1.0268 0.00391242 0)
(1.01333 -0.00633065 0)
(1.00954 0.000770926 0)
(1.00029 -0.0119548 0)
(0.993155 -0.00190017 0)
(0.987283 -0.0108675 0)
(0.998998 0.00264953 0)
(0.9817 -0.0173548 0)
(1.0059 -0.0124012 0)
(1.07736 0.0223723 0)
(1.04553 0.00148662 0)
(1.02982 -0.00125339 0)
(1.01203 -0.0139765 0)
(1.00149 -0.0098611 0)
(1.0132 -0.00242661 0)
(1.02409 0.0122519 0)
(1.03635 0.0175905 0)
(1.04076 0.0177703 0)
(1.03765 0.0119494 0)
(1.02766 0.00494661 0)
(1.02569 0.00458228 0)
(1.01271 -0.00599454 0)
(1.00855 0.00134452 0)
(1.00059 -0.0112949 0)
(0.993222 -0.0013441 0)
(0.988238 -0.00986456 0)
(1.00529 0.00271591 0)
(0.98844 -0.0173797 0)
(1.00074 -0.0128678 0)
(1.05202 0.021956 0)
(1.04089 0.00193418 0)
(1.02086 -0.00101947 0)
(1.0097 -0.0136134 0)
(0.998436 -0.00991794 0)
(1.00548 -0.00267925 0)
(1.01767 0.0117459 0)
(1.03334 0.0173402 0)
(1.03822 0.0176197 0)
(1.03543 0.0124161 0)
(1.02469 0.00505891 0)
(1.02285 0.00522953 0)
(1.01118 -0.00563209 0)
(1.0068 0.00184277 0)
(1.00034 -0.010593 0)
(0.993004 -0.000861231 0)
(0.988846 -0.0088754 0)
(1.00847 0.00271888 0)
(0.995199 -0.0173377 0)
(0.995086 -0.0131396 0)
(1.031 0.0215207 0)
(1.03237 0.00227412 0)
(1.0146 -0.000842747 0)
(1.00831 -0.0132835 0)
(0.996743 -0.00991917 0)
(0.999951 -0.0028695 0)
(1.01071 0.0111769 0)
(1.02786 0.0170447 0)
(1.03263 0.0174434 0)
(1.03037 0.0128967 0)
(1.02024 0.00517406 0)
(1.01882 0.00581914 0)
(1.00905 -0.0052602 0)
(1.00466 0.00224524 0)
(0.99964 -0.00986898 0)
(0.992638 -0.000455275 0)
(0.989117 -0.00792021 0)
(1.00979 0.00267117 0)
(1.00078 -0.017241 0)
(0.990046 -0.0132372 0)
(1.01405 0.0210899 0)
(1.02289 0.00251161 0)
(1.00992 -0.000757244 0)
(1.00739 -0.0129844 0)
(0.995966 -0.0098736 0)
(0.99599 -0.0029711 0)
(1.00375 0.0106154 0)
(1.02038 0.0167482 0)
(1.02492 0.0172428 0)
(1.02359 0.0133495 0)
(1.01517 0.00525586 0)
(1.01441 0.00632138 0)
(1.00669 -0.00489634 0)
(1.00256 0.00254225 0)
(0.998678 -0.00913673 0)
(0.992278 -0.000122568 0)
(0.989141 -0.00700779 0)
(1.01015 0.00258657 0)
(1.00474 -0.0171012 0)
(0.986115 -0.0131891 0)
(1.00104 0.0206741 0)
(1.01421 0.00266343 0)
(1.00638 -0.000768838 0)
(1.00644 -0.0127148 0)
(0.995711 -0.00979262 0)
(0.993169 -0.00297197 0)
(0.99742 0.0101132 0)
(1.01217 0.0164847 0)
(1.01656 0.0170093 0)
(1.01648 0.0137324 0)
(1.01031 0.00528351 0)
(1.01032 0.0067104 0)
(1.00446 -0.0045528 0)
(1.00079 0.00273737 0)
(0.997661 -0.00840393 0)
(0.992004 0.000156735 0)
(0.989044 -0.00613681 0)
(1.01006 0.00247755 0)
(1.0071 -0.0169282 0)
(0.983303 -0.0130274 0)
(0.991747 0.0202759 0)
(1.0071 0.00274792 0)
(1.00377 -0.000865618 0)
(1.00528 -0.012469 0)
(0.995563 -0.00968998 0)
(0.991169 -0.00287615 0)
(0.992288 0.00969229 0)
(1.00456 0.0162692 0)
(1.00896 0.016738 0)
(1.01026 0.014019 0)
(1.00626 0.00525312 0)
(1.00701 0.00698471 0)
(1.00259 -0.00421671 0)
(0.999453 0.00284132 0)
(0.99676 -0.00767336 0)
(0.991826 0.000371712 0)
(0.988936 -0.00530373 0)
(1.00978 0.00235443 0)
(1.00815 -0.0167296 0)
(0.981403 -0.0127842 0)
(0.985666 0.0198926 0)
(1.00172 0.00278378 0)
(1.00191 -0.00102947 0)
(1.00399 -0.0122365 0)
(0.995229 -0.00957791 0)
(0.989701 -0.00270113 0)
(0.988603 0.00935109 0)
(0.998503 0.0160979 0)
(1.00305 0.0164247 0)
(1.00562 0.0142092 0)
(1.00329 0.00517555 0)
(1.00462 0.00714729 0)
(1.00122 -0.00387238 0)
(0.998509 0.00286852 0)
(0.996072 -0.00694533 0)
(0.991723 0.00054404 0)
(0.988891 -0.00450385 0)
(1.00936 0.00222551 0)
(1.0082 -0.0165117 0)
(0.980207 -0.0124874 0)
(0.98211 0.0195193 0)
(0.99793 0.00279255 0)
(1.00063 -0.00124314 0)
(1.0028 -0.0120056 0)
(0.994629 -0.00946215 0)
(0.988531 -0.00247128 0)
(0.986258 0.00906949 0)
(0.994285 0.0159629 0)
(0.999119 0.0160684 0)
(1.00271 0.0143084 0)
(1.00141 0.00507869 0)
(1.00309 0.00721128 0)
(1.00034 -0.00351029 0)
(0.997883 0.00283748 0)
(0.995629 -0.00621449 0)
(0.991676 0.000698572 0)
(0.988936 -0.00373701 0)
(1.00884 0.00209761 0)
(1.00753 -0.0162808 0)
(0.979608 -0.0121598 0)
(0.980441 0.019151 0)
(0.995502 0.00279016 0)
(0.999722 -0.00149306 0)
(1.00184 -0.0117683 0)
(0.993857 -0.00934048 0)
(0.987538 -0.00221352 0)
(0.984929 0.00882053 0)
(0.991716 0.0158467 0)
(0.996959 0.0156812 0)
(1.00131 0.0143239 0)
(1.00047 0.00500417 0)
(1.00228 0.00720435 0)
(0.999946 -0.00311697 0)
(0.997518 0.00276734 0)
(0.995412 -0.00548417 0)
(0.991695 0.000839557 0)
(0.989073 -0.00300171 0)
(1.00825 0.00197627 0)
(1.00636 -0.016043 0)
(0.979578 -0.0118205 0)
(0.980201 0.0187828 0)
(0.994227 0.00279046 0)
(0.999047 -0.0017691 0)
(1.00116 -0.0115198 0)
(0.993079 -0.00921063 0)
(0.986725 -0.00194343 0)
(0.98428 0.0085873 0)
(0.990396 0.0157223 0)
(0.996142 0.0152751 0)
(1.00103 0.0142718 0)
(1.00031 0.00496937 0)
(1.00203 0.00714242 0)
(0.99995 -0.002683 0)
(0.997392 0.00268231 0)
(0.995387 -0.00476164 0)
(0.991809 0.000992928 0)
(0.989289 -0.00229635 0)
(1.00765 0.00186571 0)
(1.0049 -0.0158046 0)
(0.980088 -0.0114852 0)
(0.981087 0.018411 0)
(0.993897 0.00280652 0)
(0.998489 -0.00206229 0)
(1.00071 -0.0112596 0)
(0.99243 -0.0090722 0)
(0.986165 -0.00166981 0)
(0.984093 0.00835227 0)
(0.989939 0.0155719 0)
(0.996222 0.0148593 0)
(1.00145 0.0141623 0)
(1.00075 0.00498207 0)
(1.00219 0.00702677 0)
(1.00027 -0.002214 0)
(0.997499 0.00260289 0)
(0.995513 -0.00404229 0)
(0.992046 0.00115835 0)
(0.989577 -0.00162508 0)
(1.0071 0.00176862 0)
(1.00332 -0.0155709 0)
(0.981044 -0.0111671 0)
(0.982827 0.0180327 0)
(0.994269 0.00285045 0)
(0.997992 -0.00236409 0)
(1.00037 -0.0109915 0)
(0.991961 -0.00892379 0)
(0.985931 -0.00140235 0)
(0.984268 0.00810941 0)
(0.990063 0.0153796 0)
(0.996819 0.0144491 0)
(1.00221 0.0139934 0)
(1.00157 0.00505968 0)
(1.00262 0.00688575 0)
(1.0008 -0.00171613 0)
(0.997817 0.00254638 0)
(0.995757 -0.00332556 0)
(0.992418 0.00135053 0)
(0.989938 -0.000979181 0)
(1.00666 0.00168585 0)
(1.00179 -0.0153452 0)
(0.982279 -0.0108754 0)
(0.985083 0.0176462 0)
(0.99508 0.00293148 0)
(0.99755 -0.00266623 0)
(1.00005 -0.0107191 0)
(0.99164 -0.00876758 0)
(0.986039 -0.0011516 0)
(0.98476 0.0078693 0)
(0.990569 0.0151345 0)
(0.997639 0.0140526 0)
(1.00303 0.0137722 0)
(1.00257 0.00518515 0)
(1.00318 0.00674218 0)
(1.00143 -0.00119597 0)
(0.99829 0.0025205 0)
(0.996088 -0.00262314 0)
(0.992911 0.0015749 0)
(0.990376 -0.000354405 0)
(1.00633 0.00161653 0)
(1.00045 -0.0151286 0)
(0.983591 -0.0106142 0)
(0.987453 0.0172511 0)
(0.996091 0.00305419 0)
(0.997208 -0.00296076 0)
(0.999657 -0.010446 0)
(0.99139 -0.00860742 0)
(0.986432 -0.00092753 0)
(0.985514 0.00763748 0)
(0.991302 0.0148319 0)
(0.998469 0.0136731 0)
(1.00373 0.0135019 0)
(1.00354 0.00535223 0)
(1.00375 0.00660655 0)
(1.00204 -0.000661111 0)
(0.998837 0.00254426 0)
(0.996477 -0.00194121 0)
(0.993493 0.0018204 0)
(0.990893 0.000244614 0)
(1.00611 0.00155893 0)
(0.999335 -0.014921 0)
(0.984803 -0.0103825 0)
(0.98957 0.0168463 0)
(0.997133 0.00321872 0)
(0.997045 -0.00324233 0)
(0.999186 -0.0101728 0)
(0.991138 -0.0084457 0)
(0.987004 -0.000735466 0)
(0.986433 0.00742347 0)
(0.99213 0.0144754 0)
(0.999187 0.0133214 0)
(1.0042 0.0131762 0)
(1.00434 0.00555275 0)
(1.00424 0.0064868 0)
(1.00256 -0.00014309 0)
(0.999377 0.00262513 0)
(0.99689 -0.00125653 0)
(0.994118 0.00208279 0)
(0.991481 0.000813099 0)
(1.00597 0.0015109 0)
(0.998476 -0.0147207 0)
(0.985799 -0.0101753 0)
(0.991193 0.0164305 0)
(0.998125 0.00341741 0)
(0.997147 -0.00350545 0)
(0.998659 -0.00989673 0)
(0.990849 -0.00828366 0)
(0.987637 -0.000592777 0)
(0.987398 0.00723656 0)
(0.99295 0.0140802 0)
(0.999745 0.0130145 0)
(1.00445 0.0128096 0)
(1.00489 0.00574519 0)
(1.00457 0.00641977 0)
(1.00296 0.000362593 0)
(0.999854 0.00271302 0)
(0.997296 -0.000558693 0)
(0.994739 0.00238535 0)
(0.992116 0.001358 0)
(1.00588 0.00147018 0)
(0.99785 -0.014525 0)
(0.986524 -0.00998553 0)
(0.992248 0.0160022 0)
(0.99905 0.00363713 0)
(0.997571 -0.00374497 0)
(0.998124 -0.00961904 0)
(0.990537 -0.00811368 0)
(0.988232 -0.000512929 0)
(0.9883 0.00707449 0)
(0.993694 0.0136483 0)
(1.00015 0.0127403 0)
(1.00453 0.0124524 0)
(1.00521 0.00590777 0)
(1.00475 0.00637634 0)
(1.0032 0.000916516 0)
(1.00024 0.00282468 0)
(0.997675 6.1436e-05 0)
(0.995319 0.00266633 0)
(0.992763 0.0018888 0)
(1.00581 0.00143456 0)
(0.997433 -0.0143301 0)
(0.98697 -0.00980722 0)
(0.992793 0.015561 0)
(0.999919 0.0038614 0)
(0.998327 -0.00395405 0)
(0.997638 -0.00934015 0)
(0.990245 -0.0079304 0)
(0.988729 -0.000491015 0)
(0.989057 0.0069453 0)
(0.994324 0.0131863 0)
(1.00043 0.012485 0)
(1.00449 0.0120655 0)
(1.00531 0.00612896 0)
(1.0048 0.00624708 0)
(1.00331 0.00144544 0)
(1.00051 0.00300662 0)
(0.997998 0.000764039 0)
(0.995845 0.00293941 0)
(0.993403 0.00232781 0)
(1.00575 0.00140288 0)
(0.997208 -0.0141349 0)
(0.987156 -0.00963179 0)
(0.992942 0.0150995 0)
(1.00073 0.0040837 0)
(0.999361 -0.00413642 0)
(0.997251 -0.0090497 0)
(0.99003 -0.00773061 0)
(0.989107 -0.000527009 0)
(0.989631 0.00683057 0)
(0.994812 0.0127178 0)
(1.00058 0.0122446 0)
(1.00439 0.0116921 0)
(1.00523 0.00627716 0)
(1.00474 0.00626187 0)
(1.00332 0.00185498 0)
(1.00071 0.00320202 0)
(0.998266 0.00118451 0)
(0.99627 0.00330651 0)
(0.994002 0.00285755 0)
(1.00569 0.00137401 0)
(0.997162 -0.0139367 0)
(0.987119 -0.00944792 0)
(0.992811 0.0146068 0)
(1.00148 0.00428867 0)
(1.00057 -0.00428624 0)
(0.996993 -0.00875137 0)
(0.989938 -0.00750345 0)
(0.989376 -0.000596283 0)
(0.990016 0.00670706 0)
(0.995142 0.012247 0)
(1.00061 0.0119857 0)
(1.0042 0.0114103 0)
(1.00502 0.00630253 0)
(1.0046 0.00636307 0)
(1.00322 0.00230346 0)
(1.00079 0.00337052 0)
(0.998482 0.00153674 0)
(0.996666 0.00359823 0)
(0.994531 0.00334529 0)
(1.00561 0.00134183 0)
(0.997282 -0.013723 0)
(0.986909 -0.00927466 0)
(0.992494 0.0141146 0)
(1.00212 0.0044422 0)
(1.00181 -0.00438334 0)
(0.996879 -0.00846396 0)
(0.989992 -0.0072209 0)
(0.989564 -0.000736822 0)
(0.990238 0.00664881 0)
(0.995305 0.0116996 0)
(1.0005 0.0118162 0)
(1.00394 0.0109361 0)
(1.00469 0.00670106 0)
(1.0044 0.00597789 0)
(1.00304 0.00302702 0)
(1.00082 0.00356975 0)
(0.998642 0.00235484 0)
(0.99696 0.00383721 0)
(0.995012 0.00362603 0)
(1.00551 0.00131601 0)
(0.997546 -0.0135171 0)
(0.986586 -0.00906402 0)
(0.992064 0.0135616 0)
(1.00262 0.00459451 0)
(1.00296 -0.00447132 0)
(0.996904 -0.00816744 0)
(0.990186 -0.00692269 0)
(0.98971 -0.000862487 0)
(0.990339 0.00653656 0)
(0.995313 0.0112581 0)
(1.00023 0.011467 0)
(1.00361 0.0108008 0)
(1.00424 0.00654513 0)
(1.00415 0.0063094 0)
(1.00286 0.00313271 0)
(1.0008 0.00391962 0)
(0.998776 0.00257939 0)
(0.997174 0.00397748 0)
(0.995423 0.00403374 0)
(1.00538 0.00127851 0)
(0.997916 -0.0132748 0)
(0.986216 -0.00886537 0)
(0.991581 0.013018 0)
(1.00297 0.00466688 0)
(1.00391 -0.00448678 0)
(0.997041 -0.00790595 0)
(0.990498 -0.00655678 0)
(0.989847 -0.00103133 0)
(0.990378 0.00645424 0)
(0.995178 0.0107965 0)
(0.999883 0.0111379 0)
(1.00315 0.0105443 0)
(1.00378 0.00670927 0)
(1.00385 0.0061885 0)
(1.00258 0.00356579 0)
(1.00074 0.00409647 0)
(0.998798 0.00306345 0)
(0.997389 0.00444424 0)
(0.99581 0.00444456 0)
(1.00524 0.00123596 0)
(0.998346 -0.0130262 0)
(0.985865 -0.00866305 0)
(0.991099 0.0124741 0)
(1.00316 0.00469396 0)
(1.0046 -0.00447825 0)
(0.997262 -0.00763805 0)
(0.990873 -0.00619382 0)
(0.990012 -0.00114595 0)
(0.990398 0.00627256 0)
(0.99497 0.0104431 0)
(0.999438 0.0107068 0)
(1.00271 0.0103296 0)
(1.00321 0.00676221 0)
(1.00355 0.00620038 0)
(1.00239 0.00386168 0)
(1.00068 0.00427278 0)
(0.998936 0.00345653 0)
(0.997529 0.00495032 0)
(0.996065 0.0048997 0)
(1.00508 0.00120963 0)
(0.998789 -0.0128115 0)
(0.985588 -0.00837185 0)
(0.990667 0.011813 0)
(1.00322 0.00476563 0)
(1.005 -0.00450696 0)
(0.997525 -0.00733924 0)
(0.991272 -0.0058505 0)
(0.990215 -0.0011958 0)
(0.990453 0.00608774 0)
(0.994719 0.0101308 0)
(0.999006 0.0102411 0)
(1.0022 0.0102421 0)
(1.00273 0.00663141 0)
(1.00323 0.00642325 0)
(1.0021 0.00382923 0)
(1.00061 0.00475147 0)
(0.998989 0.00362883 0)
(0.997734 0.00496618 0)
(0.996316 0.00522997 0)
(1.0049 0.00114541 0)
(0.999203 -0.0125007 0)
(0.985429 -0.00817548 0)
(0.990321 0.0112834 0)
(1.00316 0.00465523 0)
(1.00514 -0.00434623 0)
(0.997798 -0.00720132 0)
(0.991641 -0.005315 0)
(0.990477 -0.00142057 0)
(0.990555 0.00613169 0)
(0.994495 0.00958067 0)
(0.998593 0.010141 0)
(1.00177 0.00956506 0)
(1.00221 0.00720542 0)
(1.00291 0.00589519 0)
(1.00196 0.0048547 0)
(1.00055 0.00489867 0)
(0.99899 0.00468997 0)
(0.997858 0.00498884 0)
(0.996563 0.00505172 0)
(1.00471 0.00109752 0)
(0.999563 -0.0122374 0)
(0.985403 -0.0079208 0)
(0.990089 0.0107029 0)
(1.00303 0.00457191 0)
(1.00508 -0.00424114 0)
(0.998046 -0.00702798 0)
(0.991967 -0.0048933 0)
(0.99077 -0.00142805 0)
(0.990734 0.00577648 0)
(0.994336 0.00944007 0)
(0.998226 0.0095344 0)
(1.00137 0.00949627 0)
(1.0018 0.00697208 0)
(1.0027 0.00623431 0)
(1.0018 0.00482807 0)
(1.00055 0.00517115 0)
(0.999063 0.00465039 0)
(0.997879 0.00545056 0)
(0.996779 0.00557992 0)
(1.00451 0.00106461 0)
(0.99985 -0.0119982 0)
(0.985507 -0.0075876 0)
(0.98999 0.0100169 0)
(1.00285 0.00455539 0)
(1.00487 -0.00424092 0)
(0.998251 -0.00672393 0)
(0.992244 -0.00462302 0)
(0.991075 -0.0012848 0)
(0.991002 0.00535183 0)
(0.994232 0.00938737 0)
(0.997977 0.00893071 0)
(1.00105 0.00939051 0)
(1.00143 0.00709238 0)
(1.00244 0.00633763 0)
(1.00171 0.0045564 0)
(1.0005 0.00546147 0)
(0.99911 0.00454558 0)
(0.998131 0.00570321 0)
(0.996971 0.00601277 0)
(1.00431 0.000977918 0)
(1.00005 -0.0116343 0)
(0.985738 -0.00739285 0)
(0.990008 0.00954325 0)
(1.00265 0.00430544 0)
(1.00456 -0.00392456 0)
(0.998411 -0.00674359 0)
(0.992463 -0.00396898 0)
(0.991409 -0.00151611 0)
(0.991323 0.00546042 0)
(0.994213 0.00878094 0)
(0.997778 0.00910652 0)
(1.00084 0.00848062 0)
(1.00114 0.00742407 0)
(1.00221 0.00633822 0)
(1.00163 0.00560765 0)
(1.00053 0.00535684 0)
(0.999169 0.00577188 0)
(0.998247 0.00566188 0)
(0.99719 0.0055842 0)
(1.00411 0.000925882 0)
(1.00019 -0.0113557 0)
(0.986069 -0.00713848 0)
(0.990132 0.0089894 0)
(1.00244 0.00412817 0)
(1.00421 -0.00376532 0)
(0.998528 -0.0065769 0)
(0.992642 -0.00362265 0)
(0.991737 -0.00131354 0)
(0.991683 0.00490606 0)
(0.994288 0.00875171 0)
(0.997626 0.00849987 0)
(1.00065 0.00844545 0)
(1.00099 0.00731701 0)
(1.00211 0.00648115 0)
(1.00155 0.00535505 0)
(1.00061 0.005645 0)
(0.999294 0.00556472 0)
(0.998207 0.00609355 0)
(0.997355 0.00613149 0)
(1.00391 0.000893736 0)
(1.00027 -0.0111163 0)
(0.986467 -0.00680872 0)
(0.990351 0.00833469 0)
(1.00223 0.00404629 0)
(1.00387 -0.00374481 0)
(0.998591 -0.00627839 0)
(0.992821 -0.00343698 0)
(0.992027 -0.0010069 0)
(0.99211 0.00425968 0)
(0.994381 0.00883145 0)
(0.997563 0.00799095 0)
(1.00057 0.00837938 0)
(1.0008 0.00709861 0)
(1.00187 0.00661429 0)
(1.00154 0.00507401 0)
(1.00064 0.00600691 0)
(0.999387 0.00526943 0)
(0.998497 0.00646609 0)
(0.997544 0.00667663 0)
(1.00373 0.00079815 0)
(1.00029 -0.0107144 0)
(0.986927 -0.00666141 0)
(0.990618 0.00797398 0)
(1.00203 0.00367826 0)
(1.00351 -0.00330617 0)
(0.998647 -0.00640184 0)
(0.992975 -0.00280921 0)
(0.99233 -0.00119319 0)
(0.992542 0.0045001 0)
(0.994551 0.00797422 0)
(0.997491 0.00829726 0)
(1.00048 0.00747407 0)
(1.00072 0.00760751 0)
(1.00178 0.00666362 0)
(1.00152 0.00626973 0)
(1.00068 0.00581231 0)
(0.999493 0.0064529 0)
(0.998614 0.00633356 0)
(0.997678 0.00617095 0)
(1.00354 0.000746696 0)
(1.00028 -0.0104236 0)
(0.987422 -0.00642394 0)
(0.990918 0.00745783 0)
(1.00183 0.00347466 0)
(1.00318 -0.00314747 0)
(0.998676 -0.00616611 0)
(0.99314 -0.00261616 0)
(0.992628 -0.000861613 0)
(0.99295 0.00394099 0)
(0.994743 0.00785436 0)
(0.997459 0.00790911 0)
(1.00049 0.00738194 0)
(1.00069 0.00740336 0)
(1.00167 0.00685958 0)
(1.00144 0.00589319 0)
(1.00078 0.0060232 0)
(0.999643 0.00624055 0)
(0.998544 0.00677292 0)
(0.997831 0.00679184 0)
(1.00337 0.00072768 0)
(1.00026 -0.0101876 0)
(0.987922 -0.00612901 0)
(0.991252 0.00689501 0)
(1.00164 0.00334483 0)
(1.00287 -0.00313916 0)
(0.998694 -0.00582029 0)
(0.993323 -0.0025202 0)
(0.992872 -0.000474131 0)
(0.993412 0.00333404 0)
(0.994969 0.00781486 0)
(0.99743 0.00757287 0)
(1.00042 0.00726377 0)
(1.00068 0.00694017 0)
(1.00154 0.00708108 0)
(1.00143 0.00561531 0)
(1.00083 0.00635271 0)
(0.999798 0.00583892 0)
(0.998865 0.00714654 0)
(0.997932 0.00746951 0)
(1.00322 0.00060441 0)
(1.0002 -0.00971508 0)
(0.988446 -0.00609505 0)
(0.991574 0.00666278 0)
(1.00146 0.00289659 0)
(1.00257 -0.00259874 0)
(0.998725 -0.00600049 0)
(0.993508 -0.00195413 0)
(0.993146 -0.000679232 0)
(0.993819 0.00381354 0)
(0.995212 0.00681973 0)
(0.997417 0.00804273 0)
(1.00044 0.00649773 0)
(1.00072 0.00747102 0)
(1.00144 0.00675614 0)
(1.00137 0.00681386 0)
(1.00085 0.00627612 0)
(0.999929 0.00704085 0)
(0.999039 0.00687711 0)
(0.998066 0.00695441 0)
(1.00306 0.000595679 0)
(1.00016 -0.0094933 0)
(0.988964 -0.00583493 0)
(0.991897 0.00612384 0)
(1.00127 0.00276973 0)
(1.00229 -0.00260839 0)
(0.998764 -0.00554366 0)
(0.993701 -0.00199675 0)
(0.993422 -0.000158745 0)
(0.994207 0.00318632 0)
(0.995497 0.0068232 0)
(0.99739 0.00774351 0)
(1.00039 0.00662325 0)
(1.00076 0.00679733 0)
(1.00145 0.00671995 0)
(1.00139 0.0063326 0)
(1.00098 0.00645174 0)
(1.00006 0.00691507 0)
(0.998942 0.0073411 0)
(0.998166 0.00754858 0)
(1.0029 0.000540423 0)
(1.00014 -0.00916758 0)
(0.989467 -0.00566188 0)
(0.992234 0.00568119 0)
(1.00107 0.00259756 0)
(1.00204 -0.00262135 0)
(0.998788 -0.00512148 0)
(0.993946 -0.00204796 0)
(0.993634 0.000357748 0)
(0.994624 0.00256803 0)
(0.995793 0.00687764 0)
(0.997409 0.00733387 0)
(1.00033 0.00677847 0)
(1.00079 0.00613731 0)
(1.00137 0.00662106 0)
(1.00137 0.00580752 0)
(1.00106 0.00662264 0)
(1.00027 0.00654 0)
(0.999313 0.00802521 0)
(0.998231 0.00847649 0)
(1.00276 0.000430434 0)
(1.00009 -0.0087106 0)
(0.98998 -0.00564884 0)
(0.992546 0.00545064 0)
(1.00088 0.00224556 0)
(1.00178 -0.00224993 0)
(0.998845 -0.00511926 0)
(0.994185 -0.001653 0)
(0.993883 0.000277553 0)
(0.995003 0.00282189 0)
(0.996116 0.00619554 0)
(0.997411 0.00762257 0)
(1.00023 0.00630854 0)
(1.0008 0.00629616 0)
(1.00141 0.00634842 0)
(1.00147 0.00656027 0)
(1.00119 0.00673521 0)
(1.00055 0.00723682 0)
(0.999592 0.00801354 0)
(0.998261 0.00830564 0)
(1.00262 0.000460872 0)
(1.00006 -0.0085252 0)
(0.99049 -0.00538032 0)
(0.992833 0.00492759 0)
(1.00069 0.00213968 0)
(1.00154 -0.00221815 0)
(0.998907 -0.00477996 0)
(0.994441 -0.00158708 0)
(0.994117 0.000609628 0)
(0.995355 0.00267321 0)
(0.996461 0.00589596 0)
(0.997436 0.00745452 0)
(1.00014 0.00632999 0)
(1.00085 0.00627141 0)
(1.00147 0.00647069 0)
(1.00152 0.00665931 0)
(1.0013 0.00678586 0)
(1.00074 0.00721269 0)
(0.999733 0.00753401 0)
(0.998288 0.00784376 0)
(1.00247 0.000330851 0)
(1.00004 -0.00806476 0)
(0.990984 -0.00535738 0)
(0.993124 0.00459959 0)
(1.00051 0.00199002 0)
(1.0013 -0.00214111 0)
(0.998973 -0.00456884 0)
(0.994717 -0.00139759 0)
(0.994355 0.00083095 0)
(0.995695 0.0026837 0)
(0.996806 0.00548291 0)
(0.997495 0.00736014 0)
(1.00005 0.00638364 0)
(1.00088 0.00620545 0)
(1.00153 0.00640342 0)
(1.0016 0.00662519 0)
(1.00139 0.00686903 0)
(1.00085 0.00710053 0)
(0.999868 0.00729976 0)
(0.998395 0.00769297 0)
(1.00233 0.000323857 0)
(1.00002 -0.0077804 0)
(0.991476 -0.0051967 0)
(0.993411 0.00422537 0)
(1.00031 0.00182103 0)
(1.00106 -0.00204041 0)
(0.999049 -0.00426794 0)
(0.995008 -0.00128608 0)
(0.994587 0.00108232 0)
(0.995992 0.00262071 0)
(0.997165 0.00509303 0)
(0.997598 0.00722964 0)
(0.999956 0.0064198 0)
(1.0009 0.00613904 0)
(1.00161 0.00635289 0)
(1.00169 0.00658592 0)
(1.00147 0.0069148 0)
(1.00093 0.00703618 0)
(1.00001 0.00725273 0)
(0.998517 0.00757711 0)
(1.00219 0.000249593 0)
(1.00001 -0.00741238 0)
(0.991957 -0.00509587 0)
(0.993691 0.00376512 0)
(1.00013 0.00177445 0)
(1.00084 -0.00191727 0)
(0.999116 -0.00404269 0)
(0.995311 -0.00122507 0)
(0.994822 0.00134077 0)
(0.996269 0.00265379 0)
(0.99753 0.00482133 0)
(0.997733 0.00702497 0)
(0.999862 0.00645993 0)
(1.00091 0.00607262 0)
(1.00168 0.00628228 0)
(1.0018 0.00649144 0)
(1.00157 0.00691382 0)
(1.00102 0.00702971 0)
(1.00013 0.00725521 0)
(0.998617 0.00743066 0)
(1.00205 0.000206131 0)
(0.999989 -0.00709538 0)
(0.992426 -0.00497031 0)
(0.993986 0.00337659 0)
(0.999962 0.00170992 0)
(1.00061 -0.0018622 0)
(0.999185 -0.00375496 0)
(0.995635 -0.00111787 0)
(0.995069 0.0015713 0)
(0.996511 0.00267702 0)
(0.99788 0.00449286 0)
(0.997902 0.00673184 0)
(0.999786 0.00650355 0)
(1.00091 0.00605375 0)
(1.00175 0.00627889 0)
(1.00193 0.00638666 0)
(1.00169 0.00692162 0)
(1.00111 0.00703699 0)
(1.00022 0.00724482 0)
(0.998697 0.0072895 0)
(1.00192 0.000153726 0)
(0.999976 -0.00675909 0)
(0.99289 -0.00483568 0)
(0.994268 0.00292196 0)
(0.999801 0.00164051 0)
(1.0004 -0.00169999 0)
(0.999253 -0.0034573 0)
(0.995955 -0.00106979 0)
(0.995308 0.00172139 0)
(0.996723 0.00275364 0)
(0.998223 0.00424934 0)
(0.998124 0.00643912 0)
(0.99974 0.00655876 0)
(1.00091 0.00601983 0)
(1.0018 0.00623305 0)
(1.00206 0.00624799 0)
(1.00183 0.00685086 0)
(1.0012 0.00698455 0)
(1.00029 0.00721245 0)
(0.998747 0.00717933 0)
(1.00179 0.000104233 0)
(0.999957 -0.006434 0)
(0.993331 -0.00472511 0)
(0.994569 0.00250833 0)
(0.999664 0.00159619 0)
(1.00018 -0.00154557 0)
(0.999304 -0.00320864 0)
(0.996286 -0.00102479 0)
(0.995576 0.00187736 0)
(0.996921 0.00289248 0)
(0.998535 0.00402949 0)
(0.998368 0.00610661 0)
(0.999711 0.00656016 0)
(1.00089 0.00598747 0)
(1.00185 0.00623661 0)
(1.0022 0.00615909 0)
(1.002 0.00676898 0)
(1.00132 0.00694606 0)
(1.00036 0.00719717 0)
(0.998796 0.00714182 0)
(1.00167 6.17013e-05 0)
(0.999942 -0.00613618 0)
(0.99377 -0.00456869 0)
(0.994858 0.00208842 0)
(0.999535 0.00151826 0)
(0.99997 -0.00138383 0)
(0.999359 -0.00291517 0)
(0.996619 -0.000956976 0)
(0.995844 0.00199048 0)
(0.997083 0.00298776 0)
(0.998819 0.00383429 0)
(0.998657 0.00574261 0)
(0.999727 0.00653062 0)
(1.00089 0.00599276 0)
(1.00189 0.00623567 0)
(1.00231 0.00607433 0)
(1.00217 0.00665045 0)
(1.00145 0.00685578 0)
(1.00044 0.00714145 0)
(0.998819 0.00711375 0)
(1.00155 1.28061e-05 0)
(0.999923 -0.00582448 0)
(0.99418 -0.00443526 0)
(0.99516 0.00167128 0)
(0.999436 0.0014208 0)
(0.999767 -0.00116904 0)
(0.999396 -0.00261359 0)
(0.99695 -0.000916499 0)
(0.996135 0.00203911 0)
(0.997239 0.00310896 0)
(0.999065 0.00376295 0)
(0.998958 0.00540844 0)
(0.999779 0.00647706 0)
(1.00087 0.00596564 0)
(1.00191 0.0061823 0)
(1.00241 0.00602076 0)
(1.00235 0.00650133 0)
(1.00161 0.00677067 0)
(1.00055 0.0070659 0)
(0.99886 0.0071221 0)
(1.00143 -1.57144e-05 0)
(0.999907 -0.00554309 0)
(0.994585 -0.00429326 0)
(0.995448 0.0013349 0)
(0.999354 0.00122912 0)
(0.999586 -0.000976008 0)
(0.999427 -0.00231304 0)
(0.997271 -0.00082778 0)
(0.996431 0.0020734 0)
(0.997385 0.00321131 0)
(0.999275 0.00371991 0)
(0.999276 0.00504939 0)
(0.999867 0.00632884 0)
(1.00087 0.00594868 0)
(1.00195 0.00617749 0)
(1.0025 0.00602034 0)
(1.00253 0.00639131 0)
(1.00178 0.00671209 0)
(1.00068 0.00696636 0)
(0.998906 0.00712383 0)
(1.00133 -8.52126e-05 0)
(0.999883 -0.00520604 0)
(0.994965 -0.00418118 0)
(0.995748 0.000957276 0)
(0.999299 0.00107716 0)
(0.999408 -0.000631774 0)
(0.999435 -0.0020123 0)
(0.997581 -0.000783685 0)
(0.996746 0.00204702 0)
(0.99754 0.00327267 0)
(0.999448 0.00370239 0)
(0.999588 0.00470903 0)
(1.00002 0.00615044 0)
(1.00089 0.00597107 0)
(1.00198 0.00613084 0)
(1.00257 0.00600844 0)
(1.0027 0.00623971 0)
(1.00196 0.00659447 0)
(1.00083 0.00681304 0)
(0.99897 0.00706109 0)
(1.00122 -8.14657e-05 0)
(0.999871 -0.00501148 0)
(0.995336 -0.00396364 0)
(0.996024 0.000542987 0)
(0.999275 0.000987744 0)
(0.999262 -0.000603213 0)
(0.999429 -0.00162473 0)
(0.997877 -0.000614312 0)
(0.997064 0.00207361 0)
(0.997686 0.00332016 0)
(0.999576 0.00372988 0)
(0.999888 0.00444952 0)
(1.0002 0.00594943 0)
(1.00092 0.00595479 0)
(1.002 0.0060515 0)
(1.00262 0.00599693 0)
(1.00285 0.0060967 0)
(1.00214 0.00649556 0)
(1.00102 0.00669609 0)
(0.99907 0.00700907 0)
(1.00112 -0.000132185 0)
(0.999852 -0.00471393 0)
(0.995675 -0.00382665 0)
(0.996314 0.000211192 0)
(0.999258 0.000759055 0)
(0.999131 -0.00051876 0)
(0.999452 -0.00120812 0)
(0.998155 -0.000428442 0)
(0.997384 0.00211218 0)
(0.99785 0.00337635 0)
(0.999689 0.00382024 0)
(1.00017 0.00427026 0)
(1.00043 0.00568485 0)
(1.00097 0.00592261 0)
(1.00203 0.00597478 0)
(1.00265 0.00601531 0)
(1.00299 0.00602652 0)
(1.00233 0.00643914 0)
(1.0012 0.006616 0)
(0.999175 0.00693492 0)
(1.00102 -0.000164291 0)
(0.999835 -0.00444458 0)
(0.996002 -0.00368287 0)
(0.996582 -7.24833e-05 0)
(0.99928 0.000521969 0)
(0.999038 -0.0001755 0)
(0.999434 -0.000882735 0)
(0.998401 -0.000344163 0)
(0.997708 0.00205402 0)
(0.998029 0.00335728 0)
(0.999783 0.00386947 0)
(1.00041 0.00412637 0)
(1.00069 0.00539161 0)
(1.00106 0.00586603 0)
(1.00208 0.00591642 0)
(1.0027 0.00603549 0)
(1.00311 0.00597112 0)
(1.00251 0.00634101 0)
(1.00137 0.00646997 0)
(0.999276 0.00677722 0)
(1.00093 -0.000171652 0)
(0.999818 -0.00422557 0)
(0.996309 -0.00349324 0)
(0.996848 -0.00034927 0)
(0.999324 0.000398778 0)
(0.998959 -7.52103e-05 0)
(0.999416 -0.000613426 0)
(0.99863 -0.000219621 0)
(0.998029 0.00199051 0)
(0.99822 0.00330834 0)
(0.999865 0.00389712 0)
(1.00062 0.0040454 0)
(1.00096 0.00509631 0)
(1.00119 0.00577362 0)
(1.00214 0.0058425 0)
(1.00273 0.00599849 0)
(1.00321 0.0058859 0)