/*--------------------------------*- C++ -*----------------------------------*\
| =========                 |                                                 |
| \\      /  F ield         | OpenFOAM: The Open Source CFD Toolbox           |
|  \\    /   O peration     | Version:  v2012                                 |
|   \\  /    A nd           | Website:  www.openfoam.com                      |
|    \\/     M anipulation  |                                                 |
\*---------------------------------------------------------------------------*/
FoamFile
{
    version     2.0;
    format      ascii;
    class       volVectorField;
    location    "0.6";
    object      U;
}
// * * * * * * * * * * * * * * * * * * * * * * * * * * * * * * * * * * * * * //

dimensions      [0 1 -1 0 0 0 0];


internalField   nonuniform List<vector> 
7000
(
(0.758218 -0.0109951 0)
(1.26692 0.000678045 0)
(0.962642 0.0140828 0)
(1.07391 0.00629091 0)
(0.822283 -0.0117768 0)
(1.24736 -0.0132062 0)
(0.731381 -0.0138345 0)
(1.242 -0.00473811 0)
(0.871294 -0.011888 0)
(1.14957 -0.00434215 0)
(0.932136 -0.00529811 0)
(1.14905 -0.00353375 0)
(0.920172 0.0110971 0)
(1.15019 0.00372376 0)
(0.882926 0.0158951 0)
(1.13465 0.00877233 0)
(0.860021 0.0137898 0)
(1.11398 0.00773669 0)
(0.849522 0.00873858 0)
(1.0954 0.00561536 0)
(0.775133 -0.0112442 0)
(1.26035 -5.71696e-05 0)
(0.969618 0.0146719 0)
(1.06665 0.00723182 0)
(0.855794 -0.0133096 0)
(1.21794 -0.0121631 0)
(0.773438 -0.0141998 0)
(1.2146 -0.00569026 0)
(0.905452 -0.0112384 0)
(1.13203 -0.00480693 0)
(0.956243 -0.00565049 0)
(1.13072 -0.00303674 0)
(0.944793 0.0107725 0)
(1.12173 0.00468224 0)
(0.917908 0.015912 0)
(1.09048 0.00943156 0)
(0.913661 0.014288 0)
(1.05141 0.00787883 0)
(0.925336 0.00984736 0)
(1.01233 0.00511549 0)
(0.801608 -0.0115327 0)
(1.24303 -0.000778177 0)
(0.98638 0.0156381 0)
(1.05806 0.00796886 0)
(0.898245 -0.0143982 0)
(1.17595 -0.0113118 0)
(0.83293 -0.014567 0)
(1.16993 -0.00654687 0)
(0.951824 -0.0106654 0)
(1.10034 -0.0052056 0)
(0.992259 -0.00577607 0)
(1.09701 -0.00270798 0)
(0.986707 0.0107387 0)
(1.08032 0.0054357 0)
(0.968488 0.016386 0)
(1.04291 0.00979517 0)
(0.967666 0.0152141 0)
(1.00804 0.00768024 0)
(0.972832 0.0110354 0)
(0.983616 0.00490946 0)
(0.834278 -0.0118307 0)
(1.21347 -0.00142216 0)
(1.01057 0.0165346 0)
(1.05252 0.0084906 0)
(0.9397 -0.015116 0)
(1.12884 -0.0107413 0)
(0.892963 -0.0147321 0)
(1.11904 -0.00735628 0)
(0.993585 -0.010151 0)
(1.06549 -0.00555581 0)
(1.02266 -0.00573067 0)
(1.06225 -0.00266064 0)
(1.02206 0.0110443 0)
(1.04854 0.0057996 0)
(1.00458 0.0171962 0)
(1.01942 0.00987102 0)
(0.99651 0.0161474 0)
(0.997739 0.00748231 0)
(0.991904 0.0119262 0)
(0.985119 0.0050967 0)
(0.869518 -0.0121111 0)
(1.17439 -0.00209216 0)
(1.0361 0.0172411 0)
(1.0508 0.00892822 0)
(0.974168 -0.0155038 0)
(1.0844 -0.0103771 0)
(0.941434 -0.0147428 0)
(1.07338 -0.00813739 0)
(1.01954 -0.0097187 0)
(1.03839 -0.00585542 0)
(1.03734 -0.00563994 0)
(1.03828 -0.00275744 0)
(1.03888 0.0113519 0)
(1.03376 0.00606381 0)
(1.01984 0.0178975 0)
(1.01572 0.00998623 0)
(1.00697 0.0168738 0)
(1.00226 0.00746522 0)
(0.998783 0.0126215 0)
(0.993523 0.00539082 0)
(0.903546 -0.0123469 0)
(1.13118 -0.00279344 0)
(1.05641 0.0177582 0)
(1.05125 0.00932661 0)
(0.998883 -0.015572 0)
(1.04895 -0.0101598 0)
(0.97354 -0.0146784 0)
(1.04001 -0.0087921 0)
(1.02823 -0.00941905 0)
(1.02225 -0.00607642 0)
(1.0377 -0.00557427 0)
(1.02574 -0.00290424 0)
(1.04057 0.0115099 0)
(1.03007 0.00633895 0)
(1.02256 0.0183758 0)
(1.01927 0.0101739 0)
(1.0104 0.0174338 0)
(1.00879 0.00752125 0)
(1.00253 0.013208 0)
(1.00052 0.0056907 0)
(0.933382 -0.012521 0)
(1.08961 -0.00347887 0)
(1.06712 0.0180743 0)
(1.05144 0.00970018 0)
(1.01411 -0.0153899 0)
(1.02505 -0.010031 0)
(0.991006 -0.0145857 0)
(1.01955 -0.00926829 0)
(1.02515 -0.00925731 0)
(1.01368 -0.00623888 0)
(1.03048 -0.00553661 0)
(1.01885 -0.00309665 0)
(1.03526 0.0115233 0)
(1.02982 0.00656299 0)
(1.02147 0.0187163 0)
(1.02306 0.0103212 0)
(1.013 0.0179079 0)
(1.01365 0.00759981 0)
(1.00621 0.0137283 0)
(1.00512 0.00604352 0)
(0.957399 -0.0126262 0)
(1.05392 -0.00409999 0)
(1.06707 0.0181879 0)
(1.04945 0.0100312 0)
(1.02193 -0.015053 0)
(1.01144 -0.00994034 0)
(0.998623 -0.0144836 0)
(1.00847 -0.00958024 0)
(1.01716 -0.00918453 0)
(1.00806 -0.00638165 0)
(1.02136 -0.00550247 0)
(1.01271 -0.00334876 0)
(1.02831 0.0114091 0)
(1.02882 0.00666966 0)
(1.02041 0.0189737 0)
(1.02509 0.0103639 0)
(1.01603 0.0183467 0)
(1.01663 0.00771747 0)
(1.00976 0.0142098 0)
(1.00794 0.00647286 0)
(0.975278 -0.0126661 0)
(1.02609 -0.0046196 0)
(1.05799 0.0181291 0)
(1.04467 0.0102957 0)
(1.02483 -0.0146472 0)
(1.0049 -0.00986111 0)
(1.00109 -0.0143712 0)
(1.00262 -0.00976661 0)
(1.00895 -0.00913952 0)
(1.00287 -0.00652748 0)
(1.01297 -0.00544432 0)
(1.00564 -0.00365213 0)
(1.02136 0.0111804 0)
(1.02583 0.0066363 0)
(1.01946 0.01915 0)
(1.02503 0.010312 0)
(1.01844 0.0187422 0)
(1.01785 0.00789603 0)
(1.01219 0.0146592 0)
(1.00926 0.00698556 0)
(0.987628 -0.0126512 0)
(1.00616 -0.00501488 0)
(1.0434 0.0179486 0)
(1.03781 0.0104687 0)
(1.02494 -0.0142354 0)
(1.00223 -0.00978842 0)
(1.00154 -0.0142386 0)
(0.999246 -0.00986559 0)
(1.00241 -0.00907933 0)
(0.997693 -0.00667686 0)
(1.0059 -0.00534172 0)
(0.998157 -0.00398689 0)
(1.01427 0.0108634 0)
(1.02086 0.00646713 0)
(1.0175 0.019242 0)
(1.02281 0.0101904 0)
(1.01901 0.019065 0)
(1.01724 0.00814255 0)
(1.01281 0.0150645 0)
(1.00914 0.0075658 0)
(0.995521 -0.012594 0)
(0.992976 -0.00528022 0)
(1.02725 0.0176954 0)
(1.03038 0.0105356 0)
(1.02367 -0.0138523 0)
(1.00126 -0.00972752 0)
(1.00146 -0.014079 0)
(0.997106 -0.00990545 0)
(0.997685 -0.00898184 0)
(0.992932 -0.00682067 0)
(1.00001 -0.00519019 0)
(0.991254 -0.00431832 0)
(1.00684 0.0104961 0)
(1.01445 0.00618535 0)
(1.01385 0.019249 0)
(1.01863 0.0100265 0)
(1.01729 0.0192865 0)
(1.01492 0.00844835 0)
(1.01157 0.0154078 0)
(1.00774 0.00818174 0)
(1.00013 -0.0125056 0)
(0.984946 -0.00542726 0)
(1.01272 0.0174047 0)
(1.0238 0.0104989 0)
(1.02184 -0.0135085 0)
(1.00091 -0.00968442 0)
(1.0013 -0.0138927 0)
(0.995755 -0.00990328 0)
(0.994366 -0.00884013 0)
(0.988963 -0.00694942 0)
(0.995177 -0.00499576 0)
(0.985649 -0.00461379 0)
(0.999365 0.0101219 0)
(1.00731 0.00582488 0)
(1.00873 0.0191722 0)
(1.01309 0.00984531 0)
(1.0137 0.0193859 0)
(1.01135 0.00879708 0)
(1.00895 0.015665 0)
(1.00546 0.00879694 0)
(1.00252 -0.0123948 0)
(0.980538 -0.0054791 0)
(1.00156 0.0170963 0)
(1.01892 0.0103754 0)
(1.01984 -0.0131991 0)
(1.00076 -0.00966217 0)
(1.00101 -0.0136841 0)
(0.995004 -0.00987097 0)
(0.992083 -0.00865381 0)
(0.985898 -0.0070588 0)
(0.991309 -0.00476761 0)
(0.981596 -0.00485268 0)
(0.992439 0.00978178 0)
(1.00028 0.00542294 0)
(1.00288 0.0190165 0)
(1.00702 0.00966643 0)
(1.00903 0.0193512 0)
(1.0072 0.00916258 0)
(1.00561 0.0158201 0)
(1.00278 0.00937972 0)
(1.00351 -0.0122682 0)
(0.97851 -0.00546346 0)
(0.994132 0.0167785 0)
(1.01585 0.0101895 0)
(1.01784 -0.0129124 0)
(1.0007 -0.00966015 0)
(1.00048 -0.013458 0)
(0.994695 -0.00981989 0)
(0.990614 -0.00842589 0)
(0.983679 -0.0071477 0)
(0.988322 -0.00451718 0)
(0.979025 -0.00502588 0)
(0.986594 0.00950175 0)
(0.994034 0.00501762 0)
(0.997179 0.018785 0)
(1.0012 0.00950827 0)
(1.00413 0.0191806 0)
(1.00308 0.0095224 0)
(1.00213 0.0158742 0)
(1.00011 0.00991075 0)
(1.00371 -0.0121308 0)
(0.977944 -0.00540546 0)
(0.989824 0.0164539 0)
(1.01422 0.00996635 0)
(1.01593 -0.0126363 0)
(1.00071 -0.00967511 0)
(0.999641 -0.0132183 0)
(0.994671 -0.00976237 0)
(0.989818 -0.00816119 0)
(0.982198 -0.00721373 0)
(0.986098 -0.0042599 0)
(0.977699 -0.0051334 0)
(0.982136 0.00928908 0)
(0.989024 0.00463983 0)
(0.992242 0.0184801 0)
(0.996194 0.00938656 0)
(0.999622 0.0188848 0)
(0.99941 0.00986572 0)
(0.998934 0.0158397 0)
(0.997714 0.0103815 0)
(1.00353 -0.0119859 0)
(0.978211 -0.00532455 0)
(0.987708 0.0161237 0)
(1.01348 0.00972586 0)
(1.0142 -0.0123618 0)
(1.00074 -0.00970239 0)
(0.998562 -0.0129679 0)
(0.994796 -0.00971061 0)
(0.989571 -0.00786546 0)
(0.981356 -0.00725519 0)
(0.984507 -0.00400649 0)
(0.977321 -0.0051844 0)
(0.97912 0.00913595 0)
(0.985403 0.00431602 0)
(0.988399 0.0181069 0)
(0.992295 0.0093116 0)
(0.995887 0.0184815 0)
(0.99642 0.010183 0)
(0.996267 0.0157306 0)
(0.995744 0.0107886 0)
(1.00319 -0.0118359 0)
(0.978894 -0.00523394 0)
(0.986938 0.015789 0)
(1.01317 0.00948092 0)
(1.01272 -0.0120831 0)
(1.00074 -0.00973719 0)
(0.997379 -0.0127089 0)
(0.994961 -0.00967485 0)
(0.989733 -0.00754637 0)
(0.981064 -0.00727084 0)
(0.983441 -0.00376348 0)
(0.977603 -0.00519104 0)
(0.977431 0.00902193 0)
(0.983116 0.00406822 0)
(0.985737 0.0176725 0)
(0.989575 0.00929122 0)
(0.993085 0.0179937 0)
(0.994202 0.0104681 0)
(0.994248 0.0155653 0)
(0.994263 0.0111362 0)
(1.00286 -0.0116822 0)
(0.979727 -0.00514175 0)
(0.986915 0.0154511 0)
(1.013 0.00923793 0)
(1.01157 -0.0117967 0)
(1.00064 -0.00977564 0)
(0.996252 -0.0124424 0)
(0.995083 -0.00966152 0)
(0.990157 -0.00721414 0)
(0.981232 -0.00725739 0)
(0.982819 -0.00353862 0)
(0.978296 -0.00515835 0)
(0.976851 0.00892331 0)
(0.981977 0.00390625 0)
(0.984196 0.0171834 0)
(0.987962 0.00932933 0)
(0.991235 0.0174561 0)
(0.992753 0.0107237 0)
(0.992899 0.0153634 0)
(0.99328 0.0114311 0)
(1.00258 -0.0115255 0)
(0.980546 -0.00505237 0)
(0.987265 0.0151115 0)
(1.01281 0.00899872 0)
(1.01076 -0.0115006 0)
(1.00044 -0.00981491 0)
(0.995313 -0.0121693 0)
(0.995114 -0.00967222 0)
(0.990696 -0.00688004 0)
(0.98176 -0.00721223 0)
(0.982582 -0.00333569 0)
(0.979208 -0.00510159 0)
(0.977113 0.00881501 0)
(0.981739 0.00382909 0)
(0.983625 0.0166429 0)
(0.987285 0.00941678 0)
(0.990253 0.016899 0)
(0.991992 0.0109549 0)
(0.992168 0.0151421 0)
(0.992759 0.0116805 0)
(1.00241 -0.011366 0)
(0.981261 -0.0049678 0)
(0.987761 0.0147715 0)
(1.01254 0.00876226 0)
(1.01025 -0.0111941 0)
(1.00017 -0.00985323 0)
(0.994638 -0.0118903 0)
(0.995036 -0.00970337 0)
(0.991219 -0.00655581 0)
(0.982538 -0.00713596 0)
(0.982672 -0.00315774 0)
(0.980191 -0.00502819 0)
(0.977938 0.00867254 0)
(0.98213 0.00383126 0)
(0.98381 0.0160548 0)
(0.987312 0.00954118 0)
(0.989982 0.0163402 0)
(0.991784 0.0111632 0)
(0.991946 0.014919 0)
(0.992622 0.0118947 0)
(1.00232 -0.0112032 0)
(0.981839 -0.00488856 0)
(0.988265 0.0144316 0)
(1.01218 0.00852606 0)
(1.00998 -0.0108773 0)
(0.999877 -0.00989003 0)
(0.994239 -0.0116052 0)
(0.994865 -0.00974893 0)
(0.991633 -0.00625081 0)
(0.983451 -0.00703133 0)
(0.983025 -0.00301228 0)
(0.98114 -0.00492394 0)
(0.979056 0.00847974 0)
(0.982881 0.00390174 0)
(0.984492 0.0154298 0)
(0.98778 0.009693 0)
(0.990211 0.0157956 0)
(0.991955 0.0113501 0)
(0.992086 0.0147074 0)
(0.992756 0.0120853 0)
(1.0023 -0.0110367 0)
(0.982288 -0.00481436 0)
(0.988703 0.0140923 0)
(1.01176 0.00828747 0)
(1.00986 -0.0105514 0)
(0.999611 -0.00992499 0)
(0.994078 -0.0113141 0)
(0.994633 -0.00979839 0)
(0.991886 -0.00597753 0)
(0.984397 -0.00689929 0)
(0.983567 -0.00289671 0)
(0.981985 -0.00478099 0)
(0.980237 0.00823324 0)
(0.983756 0.00402431 0)
(0.985401 0.014785 0)
(0.988438 0.00985606 0)
(0.99071 0.0152802 0)
(0.992323 0.0115186 0)
(0.992425 0.0145113 0)
(0.993036 0.0122584 0)
(1.00232 -0.010866 0)
(0.982642 -0.00474466 0)
(0.989044 0.0137534 0)
(1.01131 0.00804397 0)
(1.00981 -0.0102177 0)
(0.999409 -0.00995866 0)
(0.994083 -0.0110164 0)
(0.994378 -0.00984285 0)
(0.991974 -0.0057434 0)
(0.985296 -0.00673955 0)
(0.984224 -0.00280873 0)
(0.982697 -0.00460001 0)
(0.981314 0.00793563 0)
(0.984578 0.00418474 0)
(0.986301 0.0141341 0)
(0.98908 0.0100133 0)
(0.991271 0.0148025 0)
(0.992726 0.0116679 0)
(0.992816 0.0143261 0)
(0.993349 0.0124157 0)
(1.00235 -0.0106905 0)
(0.982943 -0.00467893 0)
(0.989293 0.0134151 0)
(1.01085 0.00779376 0)
(1.00978 -0.0098779 0)
(0.999286 -0.009991 0)
(0.994177 -0.010713 0)
(0.994134 -0.00987294 0)
(0.991933 -0.0055518 0)
(0.986091 -0.00655311 0)
(0.984927 -0.00275601 0)
(0.983279 -0.00438265 0)
(0.982195 0.00759312 0)
(0.985243 0.00436603 0)
(0.987034 0.0134872 0)
(0.989576 0.0101529 0)
(0.991742 0.0143635 0)
(0.993055 0.0117998 0)
(0.993151 0.0141504 0)
(0.993612 0.0125587 0)
(1.00239 -0.01051 0)
(0.983225 -0.00461657 0)
(0.989468 0.013077 0)
(1.0104 0.00753645 0)
(1.00971 -0.00953468 0)
(0.999239 -0.0100204 0)
(0.99429 -0.0104061 0)
(0.993925 -0.00987683 0)
(0.991822 -0.0054139 0)
(0.986754 -0.00633557 0)
(0.985619 -0.00273645 0)
(0.983765 -0.00412923 0)
(0.982866 0.00721553 0)
(0.985726 0.00455113 0)
(0.98754 0.0128626 0)
(0.989881 0.0102702 0)
(0.992048 0.0139567 0)
(0.99326 0.0119157 0)
(0.993374 0.0139873 0)
(0.993785 0.0126884 0)
(1.00242 -0.0103244 0)
(0.98351 -0.00455729 0)
(0.989594 0.0127395 0)
(1.00997 0.00727142 0)
(1.00961 -0.0091906 0)
(0.999252 -0.0100449 0)
(0.994378 -0.0100975 0)
(0.993763 -0.00984982 0)
(0.991707 -0.00533045 0)
(0.987274 -0.00609152 0)
(0.986256 -0.00274263 0)
(0.984195 -0.00384772 0)
(0.983367 0.00681992 0)
(0.986058 0.00472393 0)
(0.987842 0.0122684 0)
(0.990018 0.0103657 0)
(0.992186 0.0135757 0)
(0.993346 0.0120109 0)
(0.993477 0.0138405 0)
(0.993863 0.0128083 0)
(1.00243 -0.0101334 0)
(0.983808 -0.00450113 0)
(0.989693 0.0124031 0)
(1.00956 0.00699899 0)
(1.00946 -0.00884758 0)
(0.999303 -0.0100618 0)
(0.994423 -0.00979191 0)
(0.993654 -0.00978552 0)
(0.991639 -0.00529934 0)
(0.987662 -0.00582863 0)
(0.986809 -0.00276809 0)
(0.984603 -0.00353359 0)
(0.98376 0.00642975 0)
(0.9863 0.0048824 0)
(0.988009 0.0117029 0)
(0.990052 0.0104361 0)
(0.992199 0.0132155 0)
(0.993355 0.0120745 0)
(0.99349 0.0137081 0)
(0.993871 0.0129183 0)
(1.00243 -0.00993717 0)
(0.984123 -0.00444782 0)
(0.989784 0.0120678 0)
(1.00916 0.00671996 0)
(1.00929 -0.00850669 0)
(0.999373 -0.010069 0)
(0.994427 -0.00949619 0)
(0.993595 -0.00967853 0)
(0.991647 -0.00531419 0)
(0.987937 -0.00554553 0)
(0.987269 -0.00281094 0)
(0.985011 -0.00320121 0)
(0.984103 0.00604908 0)
(0.986509 0.00502071 0)
(0.988119 0.0111719 0)
(0.990051 0.0104783 0)
(0.992148 0.0128756 0)
(0.993334 0.0120975 0)
(0.993458 0.0135829 0)
(0.993837 0.0130186 0)
(1.00241 -0.00973573 0)
(0.984452 -0.00439779 0)
(0.98988 0.0117343 0)
(1.00877 0.00643659 0)
(1.00909 -0.00817213 0)
(0.999446 -0.0100607 0)
(0.994402 -0.00921468 0)
(0.993579 -0.00952865 0)
(0.991735 -0.00537211 0)
(0.988125 -0.00524684 0)
(0.987637 -0.00286205 0)
(0.985425 -0.002874 0)
(0.984432 0.0057001 0)
(0.98673 0.0051223 0)
(0.988233 0.0106704 0)
(0.990067 0.0104925 0)
(0.992086 0.0125667 0)
(0.993324 0.012081 0)
(0.993424 0.0134576 0)
(0.993791 0.0131077 0)
(1.00238 -0.009529 0)
(0.984793 -0.00435121 0)
(0.98999 0.0114024 0)
(1.0084 0.00614969 0)
(1.00888 -0.00784758 0)
(0.999513 -0.01003 0)
(0.994367 -0.00895619 0)
(0.993597 -0.00933725 0)
(0.99189 -0.00546796 0)
(0.988257 -0.0049361 0)
(0.987924 -0.00291049 0)
(0.985847 -0.00255672 0)
(0.984764 0.00540324 0)
(0.986976 0.00519208 0)
(0.988386 0.0101955 0)
(0.990129 0.0104796 0)
(0.992049 0.0122977 0)
(0.993344 0.0120336 0)
(0.993419 0.0133298 0)
(0.99375 0.0131837 0)
(1.00234 -0.00931709 0)
(0.985145 -0.00430802 0)
(0.990115 0.0110716 0)
(1.00804 0.00585944 0)
(1.00865 -0.00753277 0)
(0.999568 -0.00997824 0)
(0.994336 -0.00872121 0)
(0.993641 -0.00911131 0)
(0.992091 -0.00559017 0)
(0.988358 -0.00461465 0)
(0.988147 -0.00295351 0)
(0.986271 -0.00227821 0)
(0.985102 0.00514846 0)
(0.987248 0.00524243 0)
(0.988589 0.00974905 0)
(0.990243 0.010437 0)
(0.992053 0.0120709 0)
(0.993402 0.0119738 0)
(0.993458 0.0132015 0)
(0.993723 0.0132463 0)
(1.00229 -0.00910032 0)
(0.985507 -0.00426815 0)
(0.990255 0.0107422 0)
(1.0077 0.00556967 0)
(1.0084 -0.00723104 0)
(0.999609 -0.0099016 0)
(0.99432 -0.00851169 0)
(0.9937 -0.00885233 0)
(0.992315 -0.00573108 0)
(0.988451 -0.00429837 0)
(0.988323 -0.00297725 0)
(0.986695 -0.00205165 0)
(0.98545 0.00493088 0)
(0.987537 0.00528098 0)
(0.988838 0.00932017 0)
(0.990407 0.0103559 0)
(0.992101 0.0118828 0)
(0.993493 0.0119164 0)
(0.993544 0.0130663 0)
(0.993714 0.0132848 0)
(1.00224 -0.00887857 0)
(0.985876 -0.00423231 0)
(0.990409 0.0104148 0)
(1.00736 0.0052822 0)
(1.00814 -0.00694756 0)
(0.999634 -0.0097919 0)
(0.994324 -0.00833623 0)
(0.993769 -0.0085576 0)
(0.992545 -0.00588164 0)
(0.988551 -0.00399544 0)
(0.988467 -0.00296676 0)
(0.987116 -0.0018788 0)
(0.985807 0.00474413 0)
(0.98783 0.00531957 0)
(0.989125 0.00890756 0)
(0.990615 0.0102383 0)
(0.992193 0.0117284 0)
(0.993609 0.0118633 0)
(0.993671 0.0129045 0)
(0.993722 0.0132881 0)
(1.00218 -0.00865189 0)
(0.986253 -0.00420061 0)
(0.990574 0.0100876 0)
(1.00703 0.0049985 0)
(1.00787 -0.00668421 0)
(0.999644 -0.00965152 0)
(0.994349 -0.00818715 0)
(0.993844 -0.00823741 0)
(0.992772 -0.00603085 0)
(0.988668 -0.00371201 0)
(0.988592 -0.00291161 0)
(0.987534 -0.00175428 0)
(0.986181 0.00456971 0)
(0.98812 0.00537382 0)
(0.989438 0.0085342 0)
(0.990863 0.0101034 0)
(0.992324 0.0115977 0)
(0.993737 0.0118191 0)
(0.993829 0.0127 0)
(0.99375 0.0132372 0)
(1.00212 -0.00842124 0)
(0.986636 -0.00417091 0)
(0.990748 0.00975805 0)
(1.00671 0.0047222 0)
(1.00759 -0.00644284 0)
(0.99964 -0.009484 0)
(0.994393 -0.00805798 0)
(0.99392 -0.00790165 0)
(0.99299 -0.0061719 0)
(0.988804 -0.00345857 0)
(0.988705 -0.00279824 0)
(0.987948 -0.0016649 0)
(0.986574 0.004402 0)
(0.988408 0.0054392 0)
(0.989768 0.0082261 0)
(0.991143 0.00996981 0)
(0.992487 0.0114709 0)
(0.993867 0.011783 0)
(0.994002 0.012456 0)
(0.993796 0.0131192 0)
(1.00206 -0.00818577 0)
(0.987024 -0.00414592 0)
(0.990929 0.00943056 0)
(1.0064 0.00445466 0)
(1.00731 -0.00622478 0)
(0.999626 -0.00928938 0)
(0.994451 -0.00794978 0)
(0.993997 -0.00755567 0)
(0.993201 -0.00629228 0)
(0.988962 -0.00325407 0)
(0.988811 -0.00263277 0)
(0.988358 -0.00160181 0)
(0.986989 0.00423437 0)
(0.988695 0.00551127 0)
(0.990111 0.00798057 0)
(0.991448 0.00983093 0)
(0.992677 0.0113188 0)
(0.993991 0.0117372 0)
(0.994179 0.0121881 0)
(0.993861 0.012942 0)
(1.002 -0.00794673 0)
(0.987417 -0.00412338 0)
(0.991118 0.00910236 0)
(1.00609 0.0041997 0)
(1.00703 -0.00603124 0)
(0.999604 -0.00906803 0)
(0.99452 -0.00786239 0)
(0.994072 -0.0072056 0)
(0.993405 -0.00637605 0)
(0.989143 -0.00310708 0)
(0.988916 -0.00243205 0)
(0.988761 -0.00152673 0)
(0.987429 0.00404949 0)
(0.988989 0.0056018 0)
(0.990459 0.0077779 0)
(0.991771 0.00967027 0)
(0.99289 0.0111259 0)
(0.994111 0.0116645 0)
(0.994351 0.011921 0)
(0.993942 0.0127139 0)
(1.00193 -0.00770477 0)
(0.987812 -0.00410151 0)
(0.991311 0.008769 0)
(1.00579 0.00395949 0)
(1.00675 -0.00586144 0)
(0.999576 -0.00882602 0)
(0.994597 -0.0077797 0)
(0.994147 -0.00686939 0)
(0.993603 -0.00641316 0)
(0.989344 -0.00300973 0)
(0.989023 -0.00218802 0)
(0.989156 -0.00143685 0)
(0.987892 0.00387478 0)
(0.989291 0.00570376 0)
(0.990805 0.00760032 0)
(0.992106 0.00947866 0)
(0.993126 0.0108962 0)
(0.994229 0.0115661 0)
(0.994512 0.0116786 0)
(0.994036 0.0124518 0)
(1.00187 -0.00745913 0)
(0.988211 -0.004081 0)
(0.991509 0.00843027 0)
(1.0055 0.00373498 0)
(1.00648 -0.00571097 0)
(0.999544 -0.00857325 0)
(0.99468 -0.00768685 0)
(0.994221 -0.00656253 0)
(0.993796 -0.00639837 0)
(0.989568 -0.00295121 0)
(0.989134 -0.00191752 0)
(0.98954 -0.00133373 0)
(0.988378 0.00373164 0)
(0.989602 0.00579446 0)
(0.991142 0.00744038 0)
(0.992446 0.00925728 0)
(0.993384 0.0106349 0)
(0.994354 0.0114368 0)
(0.994659 0.0114654 0)
(0.994133 0.0121679 0)
(1.0018 -0.00721117 0)
(0.988612 -0.00406151 0)
(0.991711 0.0080854 0)
(1.00521 0.00352929 0)
(1.0062 -0.00558024 0)
(0.99951 -0.00830486 0)
(0.994768 -0.00759092 0)
(0.994294 -0.00627969 0)
(0.993985 -0.00634177 0)
(0.989813 -0.00291621 0)
(0.989253 -0.00164877 0)
(0.989914 -0.00119361 0)
(0.988882 0.00359392 0)
(0.989921 0.00586164 0)
(0.991467 0.00730593 0)
(0.992788 0.00901312 0)
(0.993662 0.0103486 0)
(0.994493 0.0112687 0)
(0.994792 0.01128 0)
(0.994229 0.0118802 0)
(1.00174 -0.00696114 0)
(0.989016 -0.00404222 0)
(0.991917 0.0077323 0)
(1.00492 0.00334 0)
(1.00593 -0.00546271 0)
(0.999476 -0.00803259 0)
(0.994861 -0.007476 0)
(0.994369 -0.00602852 0)
(0.994171 -0.00624946 0)
(0.990079 -0.00289632 0)
(0.989384 -0.00137842 0)
(0.990276 -0.00102064 0)
(0.989401 0.00344725 0)
(0.990251 0.00590303 0)
(0.991776 0.00720284 0)
(0.993124 0.00876263 0)
(0.99396 0.0100544 0)
(0.994652 0.0110622 0)
(0.994915 0.0111041 0)
(0.994318 0.011599 0)
(1.00167 -0.00670956 0)
(0.989422 -0.00402113 0)
(0.992126 0.00736935 0)
(1.00463 0.00316671 0)
(1.00566 -0.00535636 0)
(0.999442 -0.00777002 0)
(0.994956 -0.00732638 0)
(0.994444 -0.00580877 0)
(0.994352 -0.00612959 0)
(0.990364 -0.00288414 0)
(0.989527 -0.00110313 0)
(0.990622 -0.000824814 0)
(0.989929 0.00329375 0)
(0.990597 0.00590273 0)
(0.992071 0.00712398 0)
(0.993452 0.00851445 0)
(0.994272 0.0097598 0)
(0.994831 0.010814 0)
(0.995033 0.0109189 0)
(0.9944 0.0113336 0)
(1.00161 -0.00645758 0)
(0.989831 -0.00399722 0)
(0.99234 0.00699942 0)
(1.00435 0.00300662 0)
(1.00539 -0.00525774 0)
(0.999408 -0.00751676 0)
(0.995055 -0.00714599 0)
(0.99452 -0.00561124 0)
(0.99453 -0.00598778 0)
(0.99067 -0.00287343 0)
(0.989688 -0.000823375 0)
(0.99095 -0.000614948 0)
(0.990461 0.00312783 0)
(0.990961 0.00585366 0)
(0.992354 0.0070669 0)
(0.993768 0.00827821 0)
(0.994593 0.00946138 0)
(0.995032 0.0105383 0)
(0.995157 0.0107207 0)
(0.994477 0.0110913 0)
(1.00154 -0.00620528 0)
(0.99024 -0.00396914 0)
(0.992558 0.00661991 0)
(1.00406 0.00285767 0)
(1.00512 -0.00515524 0)
(0.999377 -0.00728455 0)
(0.995155 -0.00693661 0)
(0.994596 -0.00542261 0)
(0.994705 -0.00583582 0)
(0.990996 -0.00285689 0)
(0.989866 -0.000553368 0)
(0.991257 -0.00038578 0)
(0.990992 0.00295982 0)
(0.991348 0.00576342 0)
(0.99263 0.00702495 0)
(0.994066 0.00806416 0)
(0.994918 0.00915496 0)
(0.995253 0.0102479 0)
(0.995291 0.0104952 0)
(0.994553 0.0108569 0)
(1.00148 -0.00595326 0)
(0.990649 -0.00393834 0)
(0.992781 0.00623478 0)
(1.00378 0.00271969 0)
(1.00486 -0.0050479 0)
(0.999347 -0.00707608 0)
(0.995258 -0.00670759 0)
(0.994673 -0.00523115 0)
(0.994876 -0.00567645 0)
(0.99134 -0.00284303 0)
(0.990065 -0.000296196 0)
(0.991544 -0.000138929 0)
(0.991515 0.00280643 0)
(0.991759 0.00562225 0)
(0.992904 0.00698042 0)
(0.994342 0.00787781 0)
(0.995243 0.0088466 0)
(0.995493 0.0099511 0)
(0.995441 0.0102477 0)
(0.994633 0.0106295 0)
(1.00142 -0.00570265 0)
(0.991057 -0.00390219 0)
(0.99301 0.0058457 0)
(1.00351 0.00258745 0)
(1.00459 -0.00493034 0)
(0.999319 -0.00688845 0)
(0.995364 -0.00646897 0)
(0.994748 -0.00502955 0)
(0.995043 -0.00549859 0)
(0.991704 -0.002837 0)
(0.990287 -5.46814e-05 0)
(0.991811 0.000122467 0)
(0.992023 0.00267936 0)
(0.992195 0.00543852 0)
(0.993185 0.0069173 0)
(0.994597 0.00772861 0)
(0.995562 0.00853595 0)
(0.995748 0.00964794 0)
(0.995608 0.00998282 0)
(0.994722 0.0103988 0)
(1.00136 -0.00545398 0)
(0.991463 -0.00386021 0)
(0.993243 0.00545283 0)
(1.00324 0.00245488 0)
(1.00432 -0.00478904 0)
(0.999294 -0.00672116 0)
(0.995474 -0.0062352 0)
(0.994825 -0.00480133 0)
(0.995204 -0.00529764 0)
(0.992083 -0.00283864 0)
(0.990535 0.000156698 0)
(0.99206 0.000400835 0)
(0.992511 0.00258938 0)
(0.992652 0.00523014 0)
(0.993483 0.00681466 0)
(0.994829 0.00761852 0)
(0.995868 0.00823204 0)
(0.996019 0.00933633 0)
(0.995793 0.0097005 0)
(0.994822 0.0101547 0)
(1.00129 -0.00520651 0)
(0.991866 -0.00381473 0)
(0.99348 0.00506095 0)
(1.00298 0.00231855 0)
(1.00405 -0.00461841 0)
(0.999271 -0.00656895 0)
(0.995592 -0.00600883 0)
(0.994903 -0.00455709 0)
(0.995355 -0.0050712 0)
(0.992476 -0.00283868 0)
(0.990814 0.0003238 0)
(0.992296 0.000685437 0)
(0.992973 0.00252447 0)
(0.993121 0.00501271 0)
(0.993806 0.0066622 0)
(0.995046 0.00754246 0)
(0.996154 0.00795578 0)
(0.9963 0.00901442 0)
(0.995996 0.00940246 0)
(0.994936 0.00989309 0)
(1.00123 -0.00496345 0)
(0.992264 -0.00376314 0)
(0.993721 0.00467321 0)
(1.00272 0.00217068 0)
(1.00378 -0.00442287 0)
(0.999249 -0.00641652 0)
(0.995719 -0.00580193 0)
(0.994984 -0.00430911 0)
(0.995496 -0.00481553 0)
(0.992876 -0.00282842 0)
(0.991123 0.000437008 0)
(0.992523 0.000961263 0)
(0.993406 0.00248046 0)
(0.993595 0.00480124 0)
(0.994159 0.00646202 0)
(0.995256 0.00747387 0)
(0.996409 0.00771939 0)
(0.996584 0.00868826 0)
(0.996217 0.00909095 0)
(0.995067 0.00961101 0)
(1.00117 -0.00472339 0)
(0.992658 -0.00370845 0)
(0.993965 0.00429302 0)
(1.00248 0.00200182 0)
(1.00351 -0.00420784 0)
(0.999225 -0.00624936 0)
(0.995854 -0.005617 0)
(0.995072 -0.00406724 0)
(0.995626 -0.00452988 0)
(0.993279 -0.00281131 0)
(0.991463 0.000508407 0)
(0.992746 0.00121381 0)
(0.99381 0.00247125 0)
(0.994066 0.00460515 0)
(0.994543 0.00622477 0)
(0.995472 0.00738366 0)
(0.996634 0.00753556 0)
(0.996859 0.00837963 0)
(0.996452 0.0087742 0)
(0.995216 0.00930606 0)
(1.00111 -0.00448526 0)
(0.993045 -0.00365364 0)
(0.99421 0.00391828 0)
(1.00224 0.00181834 0)
(1.00324 -0.00398199 0)
(0.999198 -0.00605164 0)
(0.995996 -0.00544689 0)
(0.995169 -0.00383783 0)
(0.995747 -0.00422361 0)
(0.993679 -0.00276837 0)
(0.991832 0.000537022 0)
(0.992971 0.00144904 0)
(0.994186 0.00248334 0)
(0.994526 0.00443495 0)
(0.994951 0.0059607 0)
(0.995708 0.00725306 0)
(0.996834 0.00739283 0)
(0.997115 0.00809859 0)
(0.996689 0.00845949 0)
(0.995381 0.00897516 0)
(1.00106 -0.00425266 0)
(0.993425 -0.00359539 0)
(0.994457 0.00355684 0)
(1.00202 0.00162053 0)
(1.00297 -0.00375667 0)
(0.999165 -0.0058164 0)
(0.996143 -0.00528634 0)
(0.995277 -0.00362721 0)
(0.99586 -0.00390805 0)
(0.994072 -0.00269599 0)
(0.992229 0.000528941 0)
(0.993204 0.00166118 0)
(0.994535 0.00250417 0)
(0.994967 0.00429338 0)
(0.995376 0.00568773 0)
(0.995972 0.00707357 0)
(0.997019 0.00726701 0)
(0.997344 0.00784369 0)
(0.996917 0.00815978 0)
(0.995559 0.0086254 0)
(1.001 -0.00402457 0)
(0.993797 -0.00353057 0)
(0.994704 0.00320139 0)
(1.00181 0.00141574 0)
(1.00272 -0.00354221 0)
(0.999126 -0.005547 0)
(0.996293 -0.00512391 0)
(0.995397 -0.00344212 0)
(0.995967 -0.00359272 0)
(0.994452 -0.00259425 0)
(0.992651 0.000492347 0)
(0.993447 0.00184031 0)
(0.994862 0.00253771 0)
(0.995388 0.00417116 0)
(0.995806 0.00543012 0)
(0.996268 0.00684897 0)
(0.9972 0.00714182 0)
(0.997548 0.00760999 0)
(0.997125 0.00788738 0)
(0.995741 0.00827199 0)
(1.00095 -0.0038011 0)
(0.994161 -0.00345892 0)
(0.994949 0.00285085 0)
(1.00161 0.0012123 0)
(1.00247 -0.00334782 0)
(0.999083 -0.00525521 0)
(0.996441 -0.0049418 0)
(0.99553 -0.00327768 0)
(0.996073 -0.00328437 0)
(0.994817 -0.00246448 0)
(0.993093 0.000437013 0)
(0.993705 0.00198453 0)
(0.995167 0.00258581 0)
(0.995787 0.0040555 0)
(0.996233 0.00519912 0)
(0.996593 0.00658587 0)
(0.997388 0.00700309 0)
(0.997731 0.00738535 0)
(0.99731 0.00764379 0)
(0.99592 0.0079284 0)
(1.00089 -0.003585 0)
(0.994516 -0.00337694 0)
(0.995192 0.00250926 0)
(1.00143 0.00100665 0)
(1.00223 -0.00317784 0)
(0.999036 -0.00494458 0)
(0.996586 -0.00473762 0)
(0.995674 -0.00312386 0)
(0.996177 -0.00298838 0)
(0.995164 -0.00230978 0)
(0.993549 0.000375593 0)
(0.993981 0.00209159 0)
(0.995454 0.0026492 0)
(0.996164 0.0039479 0)
(0.996651 0.00499954 0)
(0.996943 0.00630136 0)
(0.997589 0.00684494 0)
(0.997903 0.00716438 0)
(0.99747 0.00742295 0)
(0.996088 0.00760274 0)
(1.00084 -0.00337523 0)
(0.994861 -0.00328572 0)
(0.99543 0.00217161 0)
(1.00126 0.000805089 0)
(1.00201 -0.0030367 0)
(0.998988 -0.00462491 0)
(0.996724 -0.0045093 0)
(0.995827 -0.00297363 0)
(0.996285 -0.00270858 0)
(0.995492 -0.00212851 0)
(0.994015 0.000310274 0)
(0.994279 0.00215742 0)
(0.995726 0.00271975 0)
(0.996519 0.00384825 0)
(0.997052 0.00482535 0)
(0.997308 0.00601195 0)
(0.997808 0.00666725 0)
(0.99807 0.00694714 0)
(0.997607 0.00721677 0)
(0.996238 0.00730492 0)
(1.00079 -0.00316978 0)
(0.995194 -0.0031933 0)
(0.995664 0.00184909 0)
(1.0011 0.000607553 0)
(1.0018 -0.00291677 0)
(0.998942 -0.00430771 0)
(0.996855 -0.00425448 0)
(0.995986 -0.00282457 0)
(0.996397 -0.00244357 0)
(0.995798 -0.00193307 0)
(0.994483 0.000252091 0)
(0.994601 0.0021741 0)
(0.995986 0.00279215 0)
(0.996852 0.003755 0)
(0.997435 0.00466761 0)
(0.997683 0.00572308 0)
(0.998046 0.00646772 0)
(0.998238 0.00672629 0)
(0.997729 0.00701459 0)
(0.996371 0.00703858 0)
(1.00074 -0.00297095 0)
(0.995516 -0.00309776 0)
(0.995893 0.0015421 0)
(1.00095 0.000414796 0)
(1.00161 -0.0028121 0)
(0.998902 -0.00399818 0)
(0.996977 -0.00398281 0)
(0.99615 -0.00267067 0)
(0.996514 -0.00219473 0)
(0.996085 -0.00172686 0)
(0.994946 0.000211371 0)
(0.994947 0.00214868 0)
(0.99624 0.00286115 0)
(0.997163 0.00367632 0)
(0.997795 0.00452615 0)
(0.99806 0.00544533 0)
(0.998303 0.00624924 0)
(0.998412 0.00650598 0)
(0.997845 0.00681573 0)
(0.996488 0.00680663 0)
(1.0007 -0.00277838 0)
(0.995825 -0.00300138 0)
(0.996116 0.00125996 0)
(1.00081 0.000221883 0)
(1.00144 -0.002724 0)
(0.998869 -0.00371044 0)
(0.997093 -0.00369839 0)
(0.996315 -0.00250457 0)
(0.996637 -0.00195817 0)
(0.996352 -0.0015149 0)
(0.995397 0.000193425 0)
(0.995315 0.00208668 0)
(0.996496 0.00291188 0)
(0.997452 0.00361453 0)
(0.998131 0.00440092 0)
(0.998432 0.00518477 0)
(0.998577 0.00601414 0)
(0.998598 0.00628897 0)
(0.997962 0.0066159 0)
(0.996591 0.00660413 0)
(1.00065 -0.00259025 0)
(0.996122 -0.00291166 0)
(0.996333 0.00101381 0)
(1.00068 2.65801e-05 0)
(1.00128 -0.00265267 0)
(0.998846 -0.00344805 0)
(0.997204 -0.00340624 0)
(0.99648 -0.00232183 0)
(0.996765 -0.00173154 0)
(0.996603 -0.00130361 0)
(0.99583 0.000201157 0)
(0.9957 0.00199672 0)
(0.99676 0.00293254 0)
(0.997726 0.00356454 0)
(0.99844 0.00428916 0)
(0.998791 0.00494732 0)
(0.998867 0.00576727 0)
(0.998797 0.00607592 0)
(0.998088 0.00641209 0)
(0.996685 0.00642455 0)
(1.00061 -0.00240757 0)
(0.996408 -0.00282671 0)
(0.996542 0.000799612 0)
(1.00056 -0.000161344 0)
(1.00114 -0.00259613 0)
(0.998836 -0.00321802 0)
(0.997315 -0.00311431 0)
(0.996646 -0.00212386 0)
(0.996898 -0.00150816 0)
(0.996839 -0.00109425 0)
(0.996241 0.000235503 0)
(0.996096 0.00189656 0)
(0.997038 0.00291931 0)
(0.997987 0.00352036 0)
(0.998723 0.00419008 0)
(0.999131 0.00474075 0)
(0.999169 0.00551553 0)
(0.999013 0.00586673 0)
(0.998229 0.00620475 0)
(0.996776 0.00626181 0)
(1.00056 -0.00223172 0)
(0.996684 -0.00274306 0)
(0.996745 0.00060685 0)
(1.00044 -0.000329314 0)
(1.00102 -0.00254947 0)
(0.99884 -0.0030227 0)
(0.997427 -0.00283191 0)
(0.996811 -0.00191464 0)