/*--------------------------------*- C++ -*----------------------------------*\
| =========                 |                                                 |
| \\      /  F ield         | OpenFOAM: The Open Source CFD Toolbox           |
|  \\    /   O peration     | Version:  v2012                                 |
|   \\  /    A nd           | Website:  www.openfoam.com                      |
|    \\/     M anipulation  |                                                 |
\*---------------------------------------------------------------------------*/
FoamFile
{
    version     2.0;
    format      ascii;
    class       volVectorField;
    location    "5.7";
    object      U;
}
// * * * * * * * * * * * * * * * * * * * * * * * * * * * * * * * * * * * * * //

dimensions      [0 1 -1 0 0 0 0];


internalField   nonuniform List<vector> 
7000
(
(0.968461 0.00404927 0)
(1.09589 -0.00761912 0)
(0.797111 0.000433127 0)
(1.18249 0.0153049 0)
(0.89378 -0.00589063 0)
(0.993821 -0.00669476 0)
(1.01277 -0.0121635 0)
(1.03102 -0.013452 0)
(0.983369 0.0141156 0)
(1.0845 -0.00691292 0)
(0.916298 0.0181287 0)
(1.13654 0.0018447 0)
(0.86087 0.0235121 0)
(1.16086 0.0108047 0)
(0.832368 0.0223808 0)
(1.14827 0.0154958 0)
(0.829811 0.0190718 0)
(1.12663 0.0153053 0)
(0.839424 0.0146975 0)
(1.10224 0.0132877 0)
(0.970463 0.00376571 0)
(1.08996 -0.00669673 0)
(0.806272 -0.000201007 0)
(1.17228 0.0148996 0)
(0.915861 -0.00469254 0)
(0.994025 -0.00754579 0)
(1.01558 -0.0125864 0)
(1.02982 -0.0131101 0)
(0.986762 0.0135373 0)
(1.07917 -0.00591027 0)
(0.922661 0.0174706 0)
(1.1238 0.0030543 0)
(0.87301 0.0230871 0)
(1.13662 0.0115742 0)
(0.858115 0.0224496 0)
(1.10706 0.015694 0)
(0.877599 0.0195733 0)
(1.06399 0.0147494 0)
(0.912762 0.016006 0)
(1.01569 0.0118476 0)
(0.974431 0.00348332 0)
(1.07982 -0.00583863 0)
(0.826411 -0.000844681 0)
(1.15029 0.0144577 0)
(0.942963 -0.00366832 0)
(0.991826 -0.00825869 0)
(1.01699 -0.0128717 0)
(1.02548 -0.0128011 0)
(0.994509 0.0128721 0)
(1.06894 -0.00496722 0)
(0.940159 0.0165775 0)
(1.09879 0.00411774 0)
(0.904874 0.0224923 0)
(1.09309 0.0122086 0)
(0.907604 0.0227506 0)
(1.04952 0.0155288 0)
(0.935931 0.0204539 0)
(1.00743 0.0139583 0)
(0.963065 0.0172377 0)
(0.978584 0.0111565 0)
(0.979924 0.00325629 0)
(1.06657 -0.0051304 0)
(0.855746 -0.00132628 0)
(1.11939 0.013966 0)
(0.967727 -0.00281546 0)
(0.987756 -0.00869605 0)
(1.01502 -0.0131167 0)
(1.01801 -0.0126334 0)
(1.0046 0.0123549 0)
(1.05605 -0.00428803 0)
(0.965254 0.0160344 0)
(1.06999 0.00471599 0)
(0.945945 0.022428 0)
(1.05172 0.0122779 0)
(0.955217 0.023512 0)
(1.0111 0.0150172 0)
(0.974185 0.0214039 0)
(0.986138 0.0133164 0)
(0.985012 0.018 0)
(0.976535 0.0110763 0)
(0.986233 0.00306569 0)
(1.05168 -0.00454981 0)
(0.889756 -0.00166216 0)
(1.08486 0.0134378 0)
(0.986445 -0.00208738 0)
(0.984151 -0.00895018 0)
(1.0096 -0.0133539 0)
(1.0093 -0.0126047 0)
(1.01319 0.0119356 0)
(1.04398 -0.00385046 0)
(0.989202 0.0158735 0)
(1.04682 0.00495824 0)
(0.981114 0.022804 0)
(1.02703 0.0121018 0)
(0.986765 0.0243971 0)
(0.99878 0.0146133 0)
(0.993063 0.0221064 0)
(0.987645 0.0129784 0)
(0.994183 0.018401 0)
(0.985711 0.0111854 0)
(0.992553 0.00291015 0)
(1.03686 -0.00410404 0)
(0.923171 -0.00186558 0)
(1.05244 0.0129608 0)
(0.997727 -0.00152235 0)
(0.982883 -0.00905463 0)
(1.00243 -0.0135493 0)
(1.00127 -0.0127097 0)
(1.01738 0.0115415 0)
(1.03485 -0.00359783 0)
(1.00553 0.0158971 0)
(1.0324 0.00501762 0)
(1.00312 0.023244 0)
(1.01755 0.0119729 0)
(1.00264 0.0250774 0)
(1.00023 0.014434 0)
(1.00104 0.0225375 0)
(0.995007 0.0128302 0)
(0.998475 0.0186165 0)
(0.994305 0.0113274 0)
(0.998196 0.0027922 0)
(1.02361 -0.0037935 0)
(0.951848 -0.00195215 0)
(1.02644 0.0125873 0)
(1.00248 -0.00113646 0)
(0.9843 -0.0090399 0)
(0.996076 -0.01368 0)
(0.994682 -0.0129188 0)
(1.01678 0.0111376 0)
(1.02858 -0.00347987 0)
(1.01315 0.0159768 0)
(1.02438 0.00499199 0)
(1.01284 0.0235851 0)
(1.01494 0.0119299 0)
(1.00814 0.0255303 0)
(1.00389 0.0143834 0)
(1.00356 0.0228181 0)
(1.00035 0.0127824 0)
(1.00035 0.0187543 0)
(0.99928 0.0115139 0)
(1.00277 0.0027088 0)
(1.01275 -0.00359926 0)
(0.97378 -0.0019523 0)
(1.0086 0.0123311 0)
(1.00305 -0.000910163 0)
(0.987526 -0.00895696 0)
(0.992409 -0.0137356 0)
(0.9895 -0.0131655 0)
(1.01279 0.0107143 0)
(1.02389 -0.00345505 0)
(1.0144 0.0160731 0)
(1.01935 0.00493027 0)
(1.01457 0.0238441 0)
(1.01328 0.01193 0)
(1.00803 0.0258723 0)
(1.00533 0.0143776 0)
(1.0034 0.0230446 0)
(1.0026 0.012797 0)
(1.00097 0.0188532 0)
(1.00151 0.011734 0)
(1.0062 0.00265422 0)
(1.00432 -0.00349285 0)
(0.989049 -0.00190246 0)
(0.998158 0.0121836 0)
(1.00188 -0.000806398 0)
(0.991375 -0.00885687 0)
(0.991775 -0.0137079 0)
(0.985571 -0.0133896 0)
(1.00729 0.0102715 0)
(1.01941 -0.00349506 0)
(1.01211 0.0161715 0)
(1.01518 0.00485906 0)
(1.01244 0.0240604 0)
(1.01087 0.0119553 0)
(1.00568 0.026167 0)
(1.00479 0.0143791 0)
(1.00239 0.0232242 0)
(1.00317 0.0128435 0)
(1.00129 0.0188933 0)
(1.00262 0.0119519 0)
(1.00866 0.00262333 0)
(0.997878 -0.00344749 0)
(0.999043 -0.00183432 0)
(0.992978 0.0121213 0)
(1.00064 -0.000787049 0)
(0.995003 -0.00877282 0)
(0.9933 -0.0136004 0)
(0.982865 -0.0135476 0)
(1.00169 0.00982375 0)
(1.01429 -0.00357587 0)
(1.00819 0.0162611 0)
(1.01091 0.0047844 0)
(1.00911 0.024244 0)
(1.00813 0.0119958 0)
(1.00319 0.0264078 0)
(1.00375 0.014371 0)
(1.00175 0.0233211 0)
(1.00349 0.0129024 0)
(1.00191 0.0188556 0)
(1.00355 0.0121579 0)
(1.01038 0.00261281 0)
(0.992841 -0.00344374 0)
(1.00551 -0.0017685 0)
(0.99079 0.0121174 0)
(1.00004 -0.000822197 0)
(0.998019 -0.00871845 0)
(0.995767 -0.0134243 0)
(0.981322 -0.0136202 0)
(0.996742 0.00939982 0)
(1.00844 -0.00367463 0)
(1.00365 0.0163326 0)
(1.00617 0.00469699 0)
(1.00578 0.0243785 0)
(1.00565 0.0120322 0)
(1.00153 0.026568 0)
(1.00318 0.0143535 0)
(1.00192 0.0233121 0)
(1.00412 0.0129808 0)
(1.0029 0.018748 0)
(1.00453 0.0123644 0)
(1.01153 0.0026208 0)
(0.988843 -0.00346989 0)
(1.00984 -0.00171484 0)
(0.98997 0.0121499 0)
(1.00017 -0.000892139 0)
(1.00031 -0.00869357 0)
(0.998236 -0.0131952 0)
(0.980754 -0.0136061 0)
(0.992676 0.0090309 0)
(1.00234 -0.00377059 0)
(0.998995 0.0163807 0)
(1.001 0.00458661 0)
(1.00264 0.0244333 0)
(1.00356 0.012045 0)
(1.00073 0.0266265 0)
(1.00318 0.0143391 0)
(1.00268 0.0231986 0)
(1.00496 0.0130968 0)
(1.00397 0.0185925 0)
(1.00536 0.012587 0)
(1.01217 0.00264583 0)
(0.985818 -0.00351953 0)
(1.01279 -0.00167571 0)
(0.989722 0.012203 0)
(1.00086 -0.000984017 0)
(1.00188 -0.00869109 0)
(1.00019 -0.0129284 0)
(0.980895 -0.0135137 0)
(0.989394 0.0087372 0)
(0.99673 -0.00385001 0)
(0.994602 0.0164067 0)
(0.995798 0.00445387 0)
(0.999545 0.0243806 0)
(1.0017 0.0120234 0)
(1.00035 0.0265684 0)
(1.00341 0.0143406 0)
(1.00357 0.0229952 0)
(1.00568 0.0132634 0)
(1.00481 0.0184144 0)
(1.00582 0.0128356 0)
(1.01228 0.00268563 0)
(0.983929 -0.00358811 0)
(1.01456 -0.00164942 0)
(0.989872 0.0122651 0)
(1.00193 -0.00108721 0)
(1.0028 -0.00870115 0)
(1.00142 -0.0126374 0)
(0.98148 -0.0133563 0)
(0.986741 0.00852144 0)
(0.992271 -0.00390819 0)
(0.990819 0.0164173 0)
(0.991226 0.00431394 0)
(0.996389 0.0242088 0)
(0.999917 0.011967 0)
(0.999981 0.0263833 0)
(1.00354 0.0143667 0)
(1.00424 0.0227159 0)
(1.00606 0.0134854 0)
(1.00526 0.0182344 0)
(1.00587 0.0131108 0)
(1.01183 0.00273634 0)
(0.983389 -0.0036701 0)
(1.015 -0.00163262 0)
(0.990536 0.0123245 0)
(1.00323 -0.00119058 0)
(1.00318 -0.00871276 0)
(1.00193 -0.0123337 0)
(0.982267 -0.0131474 0)
(0.984664 0.00837123 0)
(0.989258 -0.00394703 0)
(0.987946 0.0164172 0)
(0.987914 0.00419197 0)
(0.993383 0.0239231 0)
(0.998287 0.0118834 0)
(0.999524 0.0260691 0)
(1.0035 0.0144199 0)
(1.00465 0.0223714 0)
(1.00613 0.0137529 0)
(1.00541 0.0180621 0)
(1.00563 0.0134082 0)
(1.01083 0.0027924 0)
(0.984284 -0.00375766 0)
(1.01396 -0.0016217 0)
(0.991828 0.0123683 0)
(1.00465 -0.00128213 0)
(1.00317 -0.00871569 0)
(1.00184 -0.0120245 0)
(0.98304 -0.0129031 0)
(0.983219 0.00826692 0)
(0.987592 -0.00397315 0)
(0.986147 0.0164037 0)
(0.986201 0.00410964 0)
(0.99094 0.0235471 0)
(0.996996 0.0117831 0)
(0.99914 0.0256339 0)
(1.00336 0.0145028 0)
(1.00491 0.0219753 0)
(1.00604 0.0140507 0)
(1.00541 0.0179008 0)
(1.00528 0.0137199 0)
(1.00937 0.00284742 0)
(0.986446 -0.00384107 0)
(1.0115 -0.0016134 0)
(0.993695 0.012382 0)
(1.00607 -0.00135033 0)
(1.00289 -0.00870262 0)
(1.00138 -0.0117115 0)
(0.983627 -0.0126412 0)
(0.982459 0.00818996 0)
(0.986896 -0.00399201 0)
(0.985362 0.0163635 0)
(0.985995 0.00408513 0)
(0.989434 0.0231021 0)
(0.996185 0.0116872 0)
(0.999013 0.02509 0)
(1.00323 0.0146174 0)
(1.00514 0.0215447 0)
(1.0059 0.0143718 0)
(1.00537 0.0177576 0)
(1.00495 0.014042 0)
(1.00765 0.00289543 0)
(0.989447 -0.00391059 0)
(1.00797 -0.00160506 0)
(0.995891 0.0123524 0)
(1.00741 -0.0013863 0)
(1.00243 -0.00866993 0)
(1.00078 -0.0113937 0)
(0.983946 -0.012375 0)
(0.98232 0.00812339 0)
(0.986728 -0.00400247 0)
(0.985298 0.0162786 0)
(0.98682 0.00412376 0)
(0.988962 0.0226075 0)
(0.995822 0.0116167 0)
(0.999153 0.0244539 0)
(1.00311 0.0147646 0)
(1.00534 0.0210958 0)
(1.00575 0.0147088 0)
(1.00531 0.0176361 0)
(1.00469 0.0143685 0)
(1.00592 0.0029323 0)
(0.992707 -0.00395873 0)
(1.00394 -0.00159465 0)
(0.998072 0.0122696 0)
(1.0086 -0.00138549 0)
(1.00185 -0.0086174 0)
(1.00024 -0.01107 0)
(0.984029 -0.012112 0)
(0.982593 0.00805437 0)
(0.986764 -0.00399912 0)
(0.985549 0.0161329 0)
(0.988044 0.00421756 0)
(0.989294 0.022076 0)
(0.995717 0.0115901 0)
(0.999381 0.0237532 0)
(1.0029 0.0149422 0)
(1.00538 0.0206384 0)
(1.00553 0.0150469 0)
(1.00518 0.0175319 0)
(1.00446 0.0146893 0)
(1.00442 0.00295653 0)
(0.995673 -0.00398176 0)
(1.00003 -0.00158106 0)
(0.999939 0.0121297 0)
(1.00961 -0.00134738 0)
(1.00122 -0.00854858 0)
(0.999876 -0.0107381 0)
(0.983988 -0.0118564 0)
(0.983017 0.00797821 0)
(0.98686 -0.00397552 0)
(0.98578 0.015916 0)
(0.989136 0.00436228 0)
(0.990017 0.0215064 0)
(0.995645 0.0116255 0)
(0.999459 0.0230078 0)
(1.0025 0.0151417 0)
(1.00514 0.0201821 0)
(1.00518 0.0153727 0)
(1.00492 0.0174445 0)
(1.00422 0.0149982 0)
(1.0033 0.00296903 0)
(0.997978 -0.00397958 0)
(0.996743 -0.0015645 0)
(1.00133 0.0119351 0)
(1.01042 -0.00127469 0)
(1.00061 -0.0084677 0)
(0.999692 -0.0103981 0)
(0.983958 -0.0116062 0)
(0.983395 0.00789339 0)
(0.987001 -0.0039248 0)
(0.985861 0.0156292 0)
(0.989829 0.00455105 0)
(0.99076 0.0209044 0)
(0.995477 0.0117263 0)
(0.999258 0.0222333 0)
(1.00191 0.0153606 0)
(1.00463 0.0197334 0)
(1.00473 0.0156601 0)
(1.00455 0.0173673 0)
(1.00397 0.0152855 0)
(1.0026 0.00297225 0)
(0.999513 -0.00395491 0)
(0.994291 -0.00154591 0)
(1.00224 0.0116924 0)
(1.01104 -0.00117232 0)
(1.00008 -0.00837713 0)
(0.999644 -0.010053 0)
(0.98404 -0.0113563 0)
(0.98367 0.0077952 0)
(0.987205 -0.00383737 0)
(0.985856 0.0152749 0)
(0.990121 0.00477994 0)
(0.991328 0.0202655 0)
(0.995221 0.0118907 0)
(0.99881 0.0214583 0)
(1.00123 0.0155919 0)
(1.00394 0.0193003 0)
(1.00423 0.0158833 0)
(1.00412 0.0172777 0)
(1.00372 0.0155442 0)
(1.00226 0.00296898 0)
(1.00038 -0.00391191 0)
(0.992661 -0.00152652 0)
(1.00275 0.0114106 0)
(1.01152 -0.00104703 0)
(0.999694 -0.00827824 0)
(0.999666 -0.00970374 0)
(0.984275 -0.011101 0)
(0.983902 0.00767477 0)
(0.987461 -0.00370636 0)
(0.985907 0.0148602 0)
(0.990161 0.00504878 0)
(0.991696 0.0195833 0)
(0.994969 0.0121095 0)
(0.998256 0.0206866 0)
(1.00061 0.0158014 0)
(1.00322 0.0189142 0)
(1.00378 0.0160694 0)
(1.00372 0.0171497 0)
(1.0035 0.0157524 0)
(1.00217 0.00296157 0)
(1.00081 -0.00385468 0)
(0.991684 -0.00150738 0)
(1.00296 0.0110987 0)
(1.01186 -0.00090423 0)
(0.999462 -0.00817365 0)
(0.999694 -0.00935082 0)
(0.984659 -0.0108333 0)
(0.984196 0.00753509 0)
(0.987733 -0.00354192 0)
(0.986114 0.0143913 0)
(0.990112 0.00535897 0)
(0.991927 0.0188628 0)
(0.994809 0.0123828 0)
(0.997729 0.0199302 0)
(1.00015 0.0159368 0)
(1.00258 0.0185502 0)
(1.00343 0.0162629 0)
(1.00337 0.0170186 0)
(1.00332 0.0159 0)
(1.00219 0.00295117 0)
(1.00103 -0.00378606 0)
(0.991159 -0.00148845 0)
(1.00294 0.0107629 0)
(1.01208 -0.000749089 0)
(0.999382 -0.00806305 0)
(0.999683 -0.00899799 0)
(0.985171 -0.0105543 0)
(0.984623 0.00737944 0)
(0.987987 -0.00332716 0)
(0.98648 0.0138603 0)
(0.990076 0.00571096 0)
(0.992079 0.0181115 0)
(0.994769 0.0126688 0)
(0.997292 0.01924 0)
(0.999863 0.0160511 0)
(1.00207 0.0181597 0)
(1.00316 0.0163946 0)
(1.00307 0.0169184 0)
(1.00315 0.0160338 0)
(1.00222 0.00293795 0)
(1.00123 -0.00370881 0)
(0.990924 -0.00146821 0)
(1.00272 0.0104095 0)
(1.01217 -0.000590933 0)
(0.999431 -0.00794208 0)
(0.999605 -0.0086471 0)
(0.985782 -0.0102674 0)
(0.985194 0.00718509 0)
(0.988215 -0.00304922 0)
(0.986941 0.0132958 0)
(0.990084 0.0060927 0)
(0.992178 0.0173546 0)
(0.99482 0.0129195 0)
(0.996949 0.0185672 0)
(0.999683 0.0161853 0)
(1.00164 0.0178362 0)
(1.00295 0.016459 0)
(1.00278 0.0167851 0)
(1.00295 0.0161404 0)
(1.00218 0.00292204 0)
(1.00149 -0.00362605 0)
(0.990883 -0.00144433 0)
(1.00233 0.010044 0)
(1.01212 -0.000435314 0)
(0.99958 -0.00780702 0)
(0.999447 -0.008308 0)
(0.986468 -0.00996594 0)
(0.985862 0.00696613 0)
(0.988435 -0.0027382 0)
(0.987417 0.0126872 0)
(0.990123 0.0065396 0)
(0.992225 0.0165704 0)
(0.994895 0.0131886 0)
(0.996663 0.0179263 0)
(0.99955 0.0162406 0)
(1.00125 0.0175387 0)
(1.00271 0.0165067 0)
(1.00247 0.0166561 0)
(1.00271 0.0162058 0)
(1.00204 0.00290305 0)
(1.00185 -0.00353996 0)
(0.990996 -0.00141087 0)
(1.0018 0.00966506 0)
(1.0119 -0.000281319 0)
(0.999793 -0.00766523 0)
(0.999214 -0.00796792 0)
(0.987204 -0.00967455 0)
(0.986556 0.00674223 0)
(0.98867 -0.00234947 0)
(0.987856 0.0120125 0)
(0.990172 0.00697071 0)
(0.992225 0.01585 0)
(0.994942 0.0133675 0)
(0.996388 0.0174063 0)
(0.999387 0.0162813 0)
(1.00086 0.0172936 0)
(1.00243 0.0164412 0)
(1.00212 0.0164713 0)
(1.00239 0.0162489 0)
(1.0018 0.00287965 0)
(1.00228 -0.00345248 0)
(0.991245 -0.00136579 0)
(1.00117 0.00928513 0)
(1.01152 -0.000145292 0)
(1.00004 -0.00750898 0)
(0.998919 -0.00763705 0)
(0.987959 -0.00936256 0)
(0.987208 0.00647182 0)
(0.988934 -0.00194522 0)
(0.988233 0.0114224 0)
(0.990222 0.00733725 0)
(0.992185 0.0151617 0)
(0.994926 0.0135298 0)
(0.99613 0.0168703 0)
(0.999171 0.0162636 0)
(1.00044 0.0171315 0)
(1.00207 0.0165264 0)
(1.00174 0.0162618 0)
(1.00203 0.0162046 0)
(1.00148 0.00285241 0)
(1.00275 -0.00336565 0)
(0.991622 -0.00131609 0)
(1.00051 0.00891644 0)
(1.011 -3.51583e-05 0)
(1.00029 -0.00731669 0)
(0.998579 -0.00736384 0)
(0.988704 -0.00898652 0)
(0.98776 0.00614097 0)
(0.989235 -0.00145638 0)
(0.98856 0.0106404 0)
(0.990255 0.00795112 0)
(0.992147 0.0143241 0)
(0.99484 0.0137345 0)
(0.99587 0.0163434 0)
(0.998911 0.0162237 0)
(1.00006 0.0167849 0)
(1.00165 0.0166483 0)
(1.00131 0.0162098 0)
(1.00163 0.0161816 0)
(1.00112 0.0028258 0)
(1.00321 -0.00328856 0)
(0.992103 -0.00123651 0)
(0.999868 0.00853017 0)
(1.01038 8.04575e-05 0)
(1.00052 -0.00714265 0)
(0.998216 -0.00705009 0)
(0.989413 -0.00868807 0)
(0.988195 0.005868 0)
(0.989544 -0.000986201 0)
(0.988865 0.010028 0)
(0.990295 0.00821093 0)
(0.992115 0.0138527 0)
(0.994725 0.0137292 0)
(0.995655 0.0159685 0)
(0.998603 0.0161524 0)
(0.999689 0.0165468 0)
(1.00125 0.0165372 0)
(1.0009 0.0161258 0)
(1.00122 0.0162222 0)
(1.00074 0.00278585 0)
(1.00359 -0.00319969 0)
(0.992656 -0.00116493 0)
(0.999302 0.00819687 0)
(1.0097 0.000119432 0)
(1.00073 -0.00689355 0)
(0.997849 -0.00682715 0)
(0.990065 -0.00828477 0)
(0.988504 0.00548514 0)
(0.98987 -0.000439276 0)
(0.989134 0.00941298 0)
(0.990353 0.00852366 0)
(0.992156 0.0133307 0)
(0.994579 0.0137094 0)
(0.995505 0.0156767 0)
(0.998328 0.0159908 0)
(0.999403 0.0163667 0)
(1.00087 0.0164572 0)
(1.00056 0.0160529 0)
(1.00085 0.0161754 0)
(1.00038 0.0027542 0)
(1.00388 -0.0031416 0)
(0.993245 -0.00107389 0)
(0.998839 0.00785815 0)
(1.00901 0.000177244 0)
(1.00089 -0.00668331 0)
(0.9975 -0.0065672 0)
(0.990649 -0.00790802 0)
(0.988714 0.00517001 0)
(0.990168 5.31719e-05 0)
(0.98942 0.00884785 0)
(0.990437 0.00882454 0)
(0.992239 0.0128308 0)
(0.994502 0.0135965 0)
(0.995435 0.0155223 0)
(0.998078 0.0157179 0)
(0.99919 0.0161568 0)
(1.00056 0.0162881 0)
(1.00029 0.0160905 0)
(1.00053 0.0161517 0)
(1.00007 0.002728 0)
(1.00407 -0.00309682 0)
(0.99383 -0.000942355 0)
(0.998498 0.00750282 0)
(1.00837 0.000242097 0)
(1.00101 -0.00647826 0)
(0.997185 -0.00626402 0)
(0.991166 -0.0076367 0)
(0.988846 0.00494489 0)
(0.990457 0.000481539 0)
(0.989694 0.00845723 0)
(0.990556 0.00884797 0)
(0.99241 0.0126527 0)
(0.994481 0.0133848 0)
(0.995452 0.015227 0)
(0.997916 0.015607 0)
(0.999106 0.0160901 0)
(1.00036 0.0162005 0)
(1.00014 0.0160152 0)
(1.00028 0.016113 0)
(0.999816 0.00266758 0)
(1.00415 -0.00299077 0)
(0.994373 -0.000890773 0)
(0.998274 0.00729127 0)
(1.00779 0.000149733 0)
(1.00109 -0.00609196 0)
(0.996918 -0.0062127 0)
(0.991624 -0.00704856 0)
(0.988948 0.00433468 0)
(0.990689 0.0012022 0)
(0.989997 0.00758803 0)
(0.990728 0.0094322 0)
(0.992627 0.0118698 0)
(0.994522 0.0136379 0)
(0.995594 0.0146972 0)
(0.997882 0.0156939 0)
(0.999114 0.0156802 0)
(1.00024 0.0163545 0)
(1.00007 0.0159063 0)
(1.00012 0.015954 0)
(0.999629 0.00264657 0)
(1.00416 -0.00298046 0)
(0.994844 -0.00077288 0)
(0.998159 0.00698881 0)
(1.00728 0.000172348 0)
(1.00114 -0.00588664 0)
(0.996705 -0.00591771 0)
(0.992025 -0.0067186 0)
(0.989049 0.00410498 0)
(0.990893 0.0014859 0)
(0.99032 0.00737041 0)
(0.990916 0.0093346 0)
(0.99291 0.0115719 0)
(0.994668 0.0134678 0)
(0.995759 0.0146571 0)
(0.997882 0.015387 0)
(0.999197 0.0155597 0)
(1.00022 0.0161112 0)
(1 0.0158729 0)
(0.999998 0.0158774 0)
(0.999504 0.00262102 0)
(1.0041 -0.00295733 0)
(0.995233 -0.000634769 0)
(0.998121 0.00669144 0)
(1.00685 0.00018643 0)
(1.00116 -0.00563532 0)
(0.996536 -0.00562023 0)
(0.992416 -0.00652248 0)
(0.989154 0.00410681 0)
(0.991081 0.00165904 0)
(0.990628 0.00722895 0)
(0.991143 0.00915001 0)
(0.993207 0.0116569 0)
(0.994872 0.012918 0)
(0.996002 0.0147225 0)
(0.997985 0.0152263 0)
(0.999353 0.0156595 0)
(1.00027 0.0157772 0)
(1.00009 0.0157153 0)
(0.999943 0.0158205 0)
(0.999433 0.00254623 0)
(1.00401 -0.00282261 0)
(0.995549 -0.000629769 0)
(0.998127 0.00659569 0)
(1.00649 -1.42444e-05 0)
(1.00115 -0.0051619 0)
(0.996426 -0.00563941 0)
(0.992785 -0.00580983 0)
(0.989295 0.00328741 0)
(0.991224 0.00242911 0)
(0.990971 0.00637997 0)
(0.9914 0.0097074 0)
(0.993487 0.0108964 0)
(0.995111 0.0132132 0)
(0.996285 0.0142557 0)
(0.998106 0.0154101 0)
(0.999499 0.0152067 0)
(1.00033 0.0158371 0)
(1.00018 0.015482 0)
(0.999932 0.0156058 0)
(0.999395 0.00253507 0)
(1.0039 -0.00284132 0)
(0.99579 -0.000517102 0)
(0.998172 0.00633218 0)
(1.00619 -2.33601e-05 0)
(1.00112 -0.00493693 0)
(0.996363 -0.0053101 0)
(0.993119 -0.00558422 0)
(0.989503 0.00328976 0)
(0.991368 0.00247173 0)
(0.991308 0.00625464 0)
(0.991651 0.00950283 0)
(0.993787 0.0108513 0)
(0.995402 0.0128987 0)
(0.99654 0.0141527 0)
(0.998219 0.0149868 0)
(0.999614 0.0151374 0)
(1.0004 0.015515 0)
(1.0002 0.0155371 0)
(0.999914 0.0156736 0)
(0.999387 0.00250949 0)
(1.0038 -0.00281602 0)
(0.995978 -0.000420298 0)
(0.998226 0.00611302 0)
(1.00592 -3.99837e-05 0)
(1.00108 -0.00471579 0)
(0.996313 -0.00492138 0)
(0.993503 -0.00548974 0)
(0.989718 0.00345134 0)
(0.991501 0.0024283 0)
(0.991647 0.00635476 0)
(0.991937 0.00904281 0)
(0.994031 0.0110843 0)
(0.995651 0.0123053 0)
(0.996791 0.0143647 0)
(0.998376 0.0146507 0)
(0.999782 0.0151109 0)
(1.00052 0.0150925 0)
(1.00039 0.0153831 0)
(0.999906 0.0156488 0)
(0.999402 0.00242025 0)
(1.00368 -0.00263874 0)
(0.996148 -0.000459441 0)
(0.998263 0.00610052 0)
(1.00569 -0.000319293 0)
(1.00102 -0.00418344 0)
(0.996309 -0.00499562 0)
(0.993848 -0.00472995 0)
(0.989997 0.00256235 0)
(0.991643 0.00321736 0)
(0.991981 0.00545712 0)
(0.992219 0.00956027 0)
(0.994293 0.0103493 0)
(0.995962 0.0126638 0)
(0.997058 0.0137966 0)
(0.998461 0.015055 0)
(0.999876 0.0147246 0)
(1.0006 0.0152938 0)
(1.00051 0.0149948 0)
(0.999925 0.0153046 0)
(0.999415 0.00240785 0)
(1.00359 -0.00265677 0)
(0.996286 -0.00039082 0)
(0.998301 0.00588543 0)
(1.00546 -0.00034383 0)
(1.00096 -0.0039831 0)
(0.996324 -0.00456101 0)
(0.994186 -0.00464199 0)
(0.990329 0.00267133 0)
(0.991771 0.00331567 0)
(0.992347 0.00524342 0)
(0.992521 0.00926377 0)
(0.994523 0.0103654 0)
(0.996209 0.0122402 0)
(0.997298 0.0135286 0)
(0.998585 0.0147257 0)
(0.99992 0.0149618 0)
(1.00062 0.0151317 0)
(1.00048 0.015059 0)
(0.999919 0.0153876 0)
(0.999434 0.0023903 0)
(1.00351 -0.00261951 0)
(0.996419 -0.000344661 0)
(0.998328 0.00571244 0)
(1.00525 -0.000338412 0)
(1.00091 -0.00384724 0)
(0.996324 -0.00406274 0)
(0.99455 -0.00457841 0)
(0.99068 0.00282432 0)
(0.991916 0.00327006 0)
(0.992661 0.00543864 0)
(0.992855 0.00876227 0)
(0.994761 0.0105963 0)
(0.996496 0.0115326 0)
(0.997577 0.0136274 0)
(0.998787 0.0143349 0)
(1.00003 0.0149193 0)
(1.00067 0.0147676 0)
(1.00066 0.0149474 0)
(0.99992 0.0153454 0)
(0.999462 0.00225417 0)
(1.00342 -0.00236268 0)
(0.996573 -0.000462342 0)
(0.998323 0.00579927 0)
(1.00504 -0.000683787 0)
(1.00083 -0.00327519 0)
(0.996363 -0.00416719 0)
(0.994885 -0.00381415 0)
(0.991057 0.00194468 0)
(0.992071 0.00412463 0)
(0.993026 0.00464638 0)
(0.993197 0.0093342 0)
(0.994957 0.00994651 0)
(0.996765 0.0118888 0)
(0.997888 0.0126895 0)
(0.998917 0.0145885 0)
(1.0001 0.0143469 0)
(1.00071 0.0152581 0)
(1.00075 0.0146466 0)
(0.999959 0.0149917 0)
(0.999468 0.00228617 0)
(1.00335 -0.00243049 0)
(0.996723 -0.000396203 0)
(0.998326 0.00556116 0)
(1.00482 -0.000601408 0)
(1.00077 -0.00327526 0)
(0.996394 -0.00349248 0)
(0.995192 -0.00393112 0)
(0.991511 0.00216759 0)
(0.992234 0.00415194 0)
(0.993367 0.00481168 0)
(0.993564 0.00888277 0)
(0.995195 0.0101138 0)
(0.996973 0.0115639 0)
(0.99816 0.0124837 0)
(0.99915 0.0139683 0)
(1.00025 0.0141064 0)
(1.00074 0.0148681 0)
(1.00062 0.0146924 0)
(0.999931 0.0151342 0)
(0.999469 0.00220626 0)
(1.00329 -0.00228406 0)
(0.99688 -0.000436509 0)
(0.99834 0.00546991 0)
(1.00458 -0.000614095 0)
(1.00074 -0.00311509 0)
(0.996404 -0.00304244 0)
(0.995532 -0.00378922 0)
(0.991941 0.00238093 0)
(0.992429 0.00396183 0)
(0.993694 0.00518185 0)
(0.993957 0.00831327 0)
(0.995416 0.0105522 0)
(0.997206 0.0109152 0)
(0.998422 0.0125351 0)
(0.999294 0.0131362 0)
(1.00038 0.0138433 0)
(1.00089 0.0141416 0)
(1.00089 0.0147424 0)
(0.999985 0.0153517 0)
(0.99949 0.00209017 0)
(1.0032 -0.00206262 0)
(0.997074 -0.000574953 0)
(0.998312 0.00553382 0)
(1.00436 -0.000833721 0)
(1.00069 -0.00277173 0)
(0.996444 -0.00291817 0)
(0.995833 -0.00318994 0)
(0.992396 0.00173635 0)
(0.992632 0.00460992 0)
(0.994013 0.00487072 0)
(0.994394 0.00848844 0)
(0.995642 0.0101354 0)
(0.997377 0.0110423 0)
(0.998654 0.0119393 0)
(0.999502 0.0130512 0)
(1.00057 0.0134496 0)
(1.00108 0.014194 0)
(1.0011 0.0145287 0)
(1.00001 0.0149889 0)
(0.999497 0.00213434 0)
(1.00313 -0.00211976 0)
(0.997287 -0.000510299 0)
(0.998293 0.0052948 0)
(1.00411 -0.000684448 0)
(1.00067 -0.00282758 0)
(0.996491 -0.00232352 0)
(0.996102 -0.00308623 0)
(0.992895 0.00169749 0)
(0.992871 0.00479412 0)
(0.994323 0.00499974 0)
(0.994791 0.00827979 0)
(0.995892 0.0098844 0)
(0.997582 0.0110763 0)
(0.998913 0.0116015 0)
(0.999697 0.0128463 0)
(1.00075 0.0133047 0)
(1.00128 0.0141561 0)
(1.00123 0.0142497 0)
(1.00005 0.0145336 0)
(0.999499 0.00195575 0)
(1.00305 -0.00183403 0)
(0.997502 -0.000646585 0)
(0.998284 0.00526026 0)
(1.00386 -0.000664244 0)
(1.00067 -0.0026182 0)
(0.996531 -0.00206278 0)
(0.996372 -0.00264946 0)
(0.993401 0.00155291 0)
(0.993121 0.00494336 0)
(0.994606 0.00508617 0)
(0.995209 0.0079964 0)
(0.996195 0.00986303 0)
(0.99775 0.0108979 0)
(0.999116 0.0112993 0)
(0.999979 0.0126638 0)
(1.00102 0.0132971 0)
(1.00143 0.0139385 0)
(1.00131 0.0139659 0)
(1.00006 0.0140186 0)
(0.999499 0.0019541 0)
(1.00297 -0.00176636 0)
(0.997723 -0.000685735 0)
(0.998283 0.00514669 0)
(1.0036 -0.000555307 0)
(1.00067 -0.00265334 0)
(0.996599 -0.00163021 0)
(0.996619 -0.00231076 0)
(0.993908 0.00135997 0)
(0.993409 0.00507509 0)
(0.994876 0.00529833 0)
(0.995633 0.00776541 0)
(0.996483 0.00967256 0)
(0.997912 0.0106798 0)
(0.999401 0.0112906 0)
(1.00028 0.0125272 0)
(1.0012 0.0129953 0)
(1.00155 0.0135004 0)
(1.00133 0.0135164 0)
(1.00005 0.0134267 0)
(0.999497 0.00184869 0)
(1.00289 -0.00161385 0)
(0.997953 -0.000744807 0)
(0.998289 0.00498069 0)
(1.00333 -0.000422891 0)
(1.0007 -0.00251884 0)
(0.996675 -0.00127585 0)
(0.996838 -0.00197587 0)
(0.994429 0.00132083 0)
(0.993734 0.00514703 0)
(0.995124 0.00540663 0)
(0.99602 0.00751315 0)
(0.996815 0.00951486 0)
(0.998145 0.0106236 0)
(0.999642 0.0112024 0)
(1.0005 0.0120731 0)
(1.0014 0.0126884 0)
(1.00168 0.0130974 0)
(1.00136 0.013129 0)
(1.0001 0.0131326 0)
(0.999498 0.00177344 0)
(1.00281 -0.00145642 0)
(0.998179 -0.000806522 0)
(0.998307 0.00481073 0)
(1.00308 -0.00020288 0)
(1.00072 -0.00247971 0)
(0.996764 -0.000961825 0)
(0.997053 -0.00157382 0)
(0.99494 0.00128068 0)
(0.994065 0.00507684 0)
(0.995364 0.00559299 0)
(0.996441 0.00737976 0)
(0.997177 0.00934256 0)
(0.998343 0.0104291 0)
(0.999843 0.0109911 0)
(1.00077 0.0117608 0)
(1.00161 0.0124357 0)
(1.00178 0.0126646 0)
(1.00143 0.0128884 0)
(1.00016 0.0129256 0)
(0.999498 0.00169716 0)
(1.00272 -0.00132162 0)
(0.998411 -0.000858612 0)
(0.998338 0.00461813 0)
(1.00282 -9.77186e-06 0)
(1.00076 -0.00240711 0)
(0.99688 -0.000638934 0)
(0.997239 -0.00117501 0)
(0.995436 0.00121889 0)
(0.994453 0.00501645 0)
(0.995619 0.00581155 0)
(0.996797 0.00721655 0)
(0.997528 0.00910222 0)
(0.998592 0.0102619 0)
(1.00008 0.0108859 0)
(1.001 0.0114657 0)
(1.00178 0.0120586 0)
(1.00193 0.0123685 0)
(1.00156 0.0127082 0)
(1.00021 0.0126891 0)
(0.999501 0.00160478 0)
(1.00263 -0.00116109 0)
(0.998637 -0.000917478 0)
(0.998379 0.00439502 0)
(1.00257 0.000228237 0)
(1.0008 -0.00226506 0)
(0.99701 -0.000381056 0)
(0.997417 -0.00077019 0)
(0.995924 0.001185 0)
(0.994854 0.00494563 0)
(0.995855 0.00591855 0)
(0.997168 0.00710102 0)
(0.997926 0.0089154 0)
(0.998846 0.0101037 0)
(1.00026 0.0107078 0)
(1.00122 0.0111791 0)
(1.00202 0.0117752 0)
(1.00214 0.0121674 0)
(1.00167 0.0124259 0)
(1.00024 0.0123797 0)
(0.999505 0.00152269 0)
(1.00253 -0.001018 0)
(0.998862 -0.000950154 0)
(0.998439 0.00416862 0)
(1.00233 0.000460584 0)
(1.00085 -0.00216124 0)
(0.997165 -0.000134184 0)
(0.997575 -0.000355532 0)
(0.99639 0.00126682 0)
(0.995295 0.00483964 0)
(0.996121 0.00602376 0)
(0.997496 0.00702103 0)
(0.9983 0.00867808 0)
(0.999122 0.00984866 0)
(1.00047 0.0105025 0)
(1.00144 0.0109636 0)
(1.00224 0.0115048 0)
(1.0023 0.01187 0)
(1.00176 0.0120463 0)
(1.00028 0.0120776 0)
(0.999509 0.00142436 0)
(1.00244 -0.000860772 0)
(0.999077 -0.00100658 0)
(0.998505 0.00392912 0)
(1.0021 0.000697838 0)
(1.00089 -0.00196278 0)
(0.997341 4.85111e-05 0)
(0.997742 4.42161e-05 0)
(0.996836 0.00132939 0)
(0.995732 0.0046935 0)
(0.996375 0.00608088 0)
(0.997824 0.00698428 0)
(0.998693 0.0084772 0)
(0.999412 0.00965193 0)
(1.00069 0.0103404 0)
(1.00165 0.0107877 0)
(1.00247 0.011206 0)
(1.00247 0.0115219 0)
(1.00188 0.011711 0)
(1.00037 0.0118459 0)
(0.999516 0.00135119 0)
(1.00233 -0.000711208 0)
(0.999286 -0.00102916 0)
(0.998595 0.00367258 0)
(1.00188 0.000895916 0)
(1.00093 -0.00174803 0)
(0.997531 0.000236383 0)
(0.997889 0.000422946 0)
(0.997252 0.00140607 0)
(0.996208 0.00453591 0)
(0.996682 0.00614591 0)
(0.998121 0.00696869 0)
(0.999061 0.00827251 0)
(0.999724 0.00943921 0)
(1.00093 0.0101192 0)
(1.00184 0.0105754 0)
(1.00264 0.0108802 0)
(1.00263 0.011206 0)
(1.00205 0.011468 0)
(1.00047 0.0116012 0)
(0.999523 0.00121878 0)
(1.00223 -0.000511419 0)
(0.99948 -0.00108187 0)
(0.998687 0.00346289 0)
(1.00167 0.00109266 0)
(1.00097 -0.00144115 0)
(0.997737 0.000366176 0)
(0.998045 0.000811534 0)
(0.997644 0.00157328 0)
(0.996679 0.00442604 0)
(0.996982 0.00611373 0)
(0.998414 0.00689895 0)
(0.999441 0.0080499 0)
(1.00004 0.00918706 0)
(1.00117 0.0098396 0)
(1.00203 0.0103493 0)
(1.00285 0.0106319 0)
(1.00287 0.010992 0)
(1.00222 0.0112068 0)
(1.00057 0.0112938 0)
(0.99953 0.00116143 0)
(1.00212 -0.000404992 0)
(0.999673 -0.00107438 0)
(0.998808 0.00311891 0)
(1.00148 0.00133807 0)
(1.001 -0.00131286 0)
(0.997958 0.000569577 0)
(0.998204 0.00117248 0)
(0.998004 0.00176603 0)
(0.997153 0.00429813 0)
(0.997314 0.00609351 0)
(0.998681 0.00689191 0)
(0.999784 0.00787014 0)
(1.00035 0.00899014 0)
(1.00144 0.00963365 0)
(1.00225 0.0101817 0)
(1.00304 0.0104356 0)
(1.00303 0.0106955 0)
(1.00234 0.0108602 0)
(1.00066 0.0109752 0)
(0.999539 0.00105367 0)
(1.00203 -0.000242799 0)
(0.999839 -0.00107169 0)
(0.998928 0.00283203 0)
(1.00131 0.00146254 0)
(1.00104 -0.00108532 0)
(0.998205 0.000792901 0)
(0.998365 0.00155648 0)
(0.998342 0.00198981 0)
(0.997626 0.00424083 0)
(0.997665 0.00604101 0)
(0.998957 0.00687916 0)
(1.00015 0.00772701 0)
(1.00069 0.00881913 0)
(1.0017 0.00940255 0)
(1.00246 0.00993156 0)
(1.00321 0.0101852 0)
(1.00321 0.0104041 0)
(1.00252 0.0106163 0)
(1.00081 0.0107276 0)
(0.999548 0.000950362 0)
(1.00191 -7.69011e-05 0)
(0.999999 -0.00109058 0)
(0.999071 0.00259685 0)
(1.00116 0.00160902 0)
(1.00107 -0.000715959 0)
(0.998445 0.000918903 0)
(0.998518 0.001833 0)
(0.998644 0.00221081 0)
(0.998086 0.00416916 0)
(0.99804 0.00595458 0)
(0.99923 0.00685239 0)
(1.00048 0.00754891 0)
(1.00101 0.00858094 0)
(1.00198 0.00914016 0)
(1.0027 0.00966211 0)
(1.0034 0.00996589 0)
(1.0034 0.0101652 0)
(1.00269 0.0103775 0)
(1.00093 0.0104414 0)
(0.999556 0.000867402 0)
(1.00181 5.6175e-05 0)
(1.00014 -0.00102438 0)
(0.999219 0.00230121 0)
(1.00103 0.0017944 0)
(1.0011 -0.000428421 0)
(0.998698 0.000985883 0)
(0.998696 0.00203057 0)
(0.998929 0.00238115 0)
(0.998525 0.00407859 0)
(0.998421 0.00581862 0)
(0.999493 0.00677986 0)
(1.0008 0.00737733 0)
(1.00134 0.0083689 0)
(1.00226 0.00893587 0)
(1.00294 0.00941226 0)
(1.0036 0.00975411 0)
(1.00358 0.00993091 0)
(1.00285 0.0101277 0)
(1.00105 0.0101714 0)
(0.999566 0.000777827 0)
(1.00169 0.000191582 0)
(1.00027 -0.000968114 0)
(0.999384 0.00210905 0)
(1.00093 0.00192843 0)
(1.00111 -0.000148278 0)
(0.998946 0.00106337 0)
(0.998874 0.00216597 0)
(0.999194 0.00253212 0)
(0.998952 0.00403412 0)
(0.998827 0.00571734 0)
(0.999771 0.00673964 0)
(1.00112 0.00726297 0)