/*--------------------------------*- C++ -*----------------------------------*\
| =========                 |                                                 |
| \\      /  F ield         | OpenFOAM: The Open Source CFD Toolbox           |
|  \\    /   O peration     | Version:  v2012                                 |
|   \\  /    A nd           | Website:  www.openfoam.com                      |
|    \\/     M anipulation  |                                                 |
\*---------------------------------------------------------------------------*/
FoamFile
{
    version     2.0;
    format      ascii;
    class       volScalarField;
    location    "7.5";
    object      p;
}
// * * * * * * * * * * * * * * * * * * * * * * * * * * * * * * * * * * * * * //

dimensions      [0 2 -2 0 0 0 0];


internalField   nonuniform List<scalar> 
7000
(
1.6826e-10
0.00596615
0.0124634
0.00184916
0.000954954
0.00755208
0.00383701
0.00146762
0.0017121
0.00499397
0.00150976
0.00362796
0.00339545
0.00497255
0.00485775
0.00621344
0.00673775
0.00835742
0.00957502
0.0124496
9.54653e-06
0.00596027
0.0123884
0.00185964
0.000973581
0.00750402
0.00383745
0.00146138
0.00172432
0.00498624
0.00152128
0.00363163
0.00339405
0.00497136
0.00485824
0.00620935
0.00674472
0.00834581
0.00958664
0.012306
1.97663e-05
0.00594929
0.0123127
0.00187305
0.000990113
0.00743466
0.00384108
0.00145976
0.00173764
0.0049714
0.00154413
0.00362738
0.00340126
0.00496566
0.00486468
0.00619886
0.00675919
0.00832127
0.0095936
0.0120805
2.92285e-05
0.00594086
0.0122358
0.00189008
0.00100397
0.00736674
0.00384321
0.00146863
0.00175199
0.00494865
0.00157723
0.00361469
0.0034174
0.00495571
0.00487091
0.0061836
0.00677061
0.00828718
0.00958571
0.0118365
4.01792e-05
0.00593554
0.0121549
0.00191288
0.00102195
0.00730295
0.00384305
0.00149001
0.00176926
0.00491746
0.00162114
0.00359294
0.00343861
0.00494009
0.0048742
0.00616313
0.00677916
0.00824584
0.00956498
0.0116027
5.44567e-05
0.00593144
0.0120696
0.00194293
0.00104544
0.00724218
0.0038412
0.00152315
0.00179011
0.00487901
0.00167424
0.00356195
0.00346218
0.00491905
0.00487642
0.00613816
0.00678791
0.00819917
0.00953402
0.0113843
7.31791e-05
0.00592728
0.0119805
0.0019805
0.00107403
0.00718406
0.00383853
0.0015654
0.00181436
0.00483531
0.00173348
0.0035237
0.00348721
0.00489428
0.00488012
0.00610958
0.0067981
0.00814823
0.00949302
0.0111775
9.69329e-05
0.00592253
0.0118886
0.00202483
0.0011096
0.00712813
0.00383578
0.00161331
0.00184171
0.00478804
0.0017966
0.00348241
0.00351351
0.00486701
0.00488624
0.00607757
0.00680889
0.00809358
0.009441
0.0109777
0.000125735
0.00591693
0.0117949
0.00207463
0.00114634
0.0070735
0.00383314
0.00166361
0.001872
0.00473815
0.00186265
0.00343952
0.00354104
0.00483761
0.00489432
0.00604224
0.00681835
0.00803591
0.00937735
0.0107826
0.000159095
0.0059104
0.0116999
0.00212843
0.00118618
0.0070194
0.00383033
0.0017137
0.00190519
0.00468599
0.00193134
0.00339585
0.00357012
0.00480616
0.00490356
0.00600408
0.0068243
0.00797621
0.00930224
0.0105915
0.000196249
0.00590301
0.011604
0.00218491
0.00122918
0.00696526
0.00382692
0.00176179
0.00194127
0.00463157
0.00200238
0.00335178
0.00360131
0.00477288
0.00491321
0.00596386
0.0068247
0.00791532
0.00921641
0.0104039
0.000236422
0.00589488
0.0115072
0.00224303
0.00127539
0.0069107
0.00382275
0.00180687
0.00198029
0.00457479
0.00207536
0.00330754
0.00363492
0.00473831
0.00492249
0.00592258
0.006818
0.00785356
0.00912091
0.0102194
0.000278978
0.00588609
0.0114091
0.00230214
0.00132473
0.00685539
0.00381801
0.00184845
0.00202233
0.00451565
0.00214982
0.00326335
0.0036708
0.00470319
0.00493033
0.00588143
0.0068033
0.00779074
0.00901688
0.0100374
0.00032347
0.00587672
0.0113094
0.00236186
0.00137697
0.00679907
0.00381318
0.00188636
0.00206751
0.00445426
0.00222533
0.00321937
0.00370837
0.00466852
0.00493548
0.00584146
0.00678011
0.00772625
0.00890551
0.0098569
0.000369604
0.00586681
0.0112079
0.00242199
0.00143188
0.00674151
0.00380881
0.00192051
0.00211592
0.00439084
0.00230154
0.00317585
0.00374671
0.00463541
0.00493665
0.00580338
0.00674831
0.00765917
0.00878798
0.00967717
0.000417185
0.00585641
0.0111041
0.0024824
0.00148924
0.00668257
0.00380548
0.00195087
0.00216762
0.00432576
0.00237808
0.00313311
0.00378462
0.0046051
0.00493271
0.00576747
0.00670824
0.00758819
0.00866523
0.00949768
0.000466062
0.00584552
0.0109981
0.00254301
0.00154887
0.00662211
0.00380368
0.00197742
0.00222253
0.00425955
0.00245458
0.00309166
0.00382065
0.0045787
0.00492279
0.00573356
0.00666086
0.00751181
0.00853758
0.0093181
0.000516113
0.00583414
0.0108897
0.00260373
0.00161055
0.00656001
0.00380384
0.00200022
0.00228046
0.0041928
0.0025305
0.00305225
0.00385323
0.00455712
0.00490628
0.00570091
0.0066077
0.00742883
0.0084048
0.00913813
0.000567248
0.0058222
0.0107791
0.00266444
0.00167408
0.00649616
0.00380637
0.0020194
0.0023411
0.00412629
0.00260502
0.00301582
0.00388083
0.00454091
0.00488293
0.00566809
0.00655038
0.0073388
0.00826638
0.00895738
0.000619425
0.00580964
0.0106661
0.00272501
0.00173922
0.00643045
0.00381156
0.00203513
0.00240397
0.00406097
0.00267712
0.00298329
0.00390214
0.00453022
0.00485302
0.00563328
0.00649006
0.00724188
0.00812212
0.00877542
0.000672661
0.00579634
0.0105512
0.00278533
0.00180577
0.00636282
0.00381963
0.00204767
0.00246842
0.00399787
0.00274555
0.00295564
0.00391623
0.00452477
0.00481724
0.00559454
0.00642719
0.00713829
0.00797219
0.00859227
0.000727025
0.00578217
0.0104343
0.00284527
0.00187517
0.00629324
0.0038307
0.00205729
0.00253364
0.00393804
0.00280885
0.00293369
0.00392256
0.00452394
0.00477675
0.00555001
0.00636192
0.0070283
0.00781637
0.00840835
0.000782624
0.00576699
0.0103158
0.00290474
0.0019441
0.00622175
0.00384477
0.0020644
0.00259861
0.00388277
0.00286579
0.00291783
0.00392072
0.00452663
0.00473312
0.00549811
0.00629428
0.00691289
0.00765439
0.00822366
0.000839576
0.00575066
0.0101959
0.00296369
0.00201406
0.00614838
0.0038617
0.00206957
0.00266223
0.0038332
0.00291547
0.00290828
0.00391059
0.0045312
0.00468796
0.00543738
0.00622386
0.0067937
0.00748668
0.00803819
0.000897992
0.00573307
0.0100749
0.00302209
0.00208547
0.0060733
0.00388127
0.00207338
0.00272343
0.00379034
0.00295681
0.00290502
0.00389279
0.00453586
0.00464313
0.00536675
0.00614924
0.00667263
0.00731417
0.00785169
0.000957969
0.00571408
0.00995289
0.00307997
0.00215749
0.00599673
0.00390325
0.00207661
0.00278079
0.00375525
0.00298915
0.0029074
0.00386827
0.00453829
0.00460029
0.00528646
0.00606844
0.00655149
0.00713956
0.00766375
0.00101958
0.00569359
0.00983024
0.00313732
0.00222993
0.00591896
0.00392711
0.00208038
0.00283301
0.0037283
0.00301267
0.00291458
0.00383846
0.00453574
0.00455938
0.00519762
0.00597947
0.00643025
0.00696616
0.00747591
0.00108291
0.00567149
0.00970715
0.00319421
0.00230264
0.00584035
0.00395232
0.00208543
0.00287953
0.00370958
0.00302752
0.00292486
0.00380622
0.00452678
0.00451967
0.0051014
0.00588156
0.00630763
0.00679488
0.0072901
0.00114802
0.00564764
0.00958383
0.0032507
0.00237583
0.0057612
0.00397841
0.00209259
0.00291936
0.00369961
0.00303443
0.00293585
0.00377309
0.00451118
0.00448031
0.00499892
0.00577675
0.00618518
0.00662028
0.00710618
0.00121494
0.00562198
0.00946038
0.00330691
0.00244855
0.00568219
0.00400454
0.00210279
0.00295156
0.00369822
0.0030343
0.00294747
0.00373858
0.00448856
0.00443988
0.00489065
0.00565951
0.00606271
0.00646119
0.00692339
0.00128375
0.00559438
0.00933696
0.00336292
0.00252069
0.00560384
0.00403009
0.0021167
0.00297555
0.00370508
0.00302765
0.00296865
0.00370468
0.00445833
0.00439746
0.004776
0.00552916
0.005938
0.00632119
0.0067438
0.00135445
0.00556475
0.00921362
0.00341897
0.00259214
0.00552646
0.00405421
0.00213501
0.00299098
0.00371904
0.00301822
0.00297555
0.00367558
0.0044218
0.00435228
0.00466145
0.0053914
0.00580871
0.00615769
0.00657086
0.00142704
0.00553309
0.00909029
0.00347518
0.00266159
0.00545105
0.00407669
0.00215716
0.00299856
0.00373713
0.00301178
0.00296666
0.00365091
0.00437973
0.00430304
0.00454491
0.00524467
0.00566822
0.00600948
0.00640786
0.00150172
0.00549918
0.00896719
0.0035315
0.00273017
0.00537752
0.0040979
0.00218342
0.00299883
0.00375779
0.00300884
0.00293989
0.00362981
0.00433214
0.00425156
0.00443076
0.00509439
0.00552082
0.00580729
0.00625391
0.0015783
0.00546306
0.00884401
0.00358878
0.00279631
0.00530657
0.00411575
0.00221498
0.0029916
0.003783
0.00300554
0.00291685
0.00360278
0.00428127
0.00419115
0.00429974
0.00493253
0.00537595
0.00566006
0.00610516
0.00165666
0.00542496
0.00872042
0.00364722
0.00285722
0.00523969
0.00412985
0.002251
0.00297733
0.00380911
0.00300751
0.00289465
0.00357034
0.00422421
0.00411798
0.00416308
0.00475883
0.00523173
0.00557512
0.00596351
0.00173731
0.00538447
0.00859684
0.00370636
0.00291775
0.00517478
0.00414416
0.00228827
0.00295953
0.00382789
0.00302272
0.00284973
0.00352958
0.00416973
0.00404584
0.00402644
0.00459254
0.00508237
0.00537184
0.00583304
0.00181977
0.00534195
0.00847244
0.00376758
0.00297446
0.00511322
0.00415555
0.00232979
0.00293871
0.00384588
0.0030387
0.00280519
0.00347844
0.00410066
0.0039636
0.00389311
0.00441859
0.00493396
0.00524929
0.00570925
0.00190377
0.00529801
0.00834652
0.00383103
0.00302508
0.00505717
0.00416248
0.00237467
0.00291458
0.00386219
0.00305682
0.00276849
0.00342004
0.00400941
0.00386911
0.00376203
0.00423667
0.00478567
0.00522018
0.00559187
0.00199011
0.00525212
0.00821978
0.00389566
0.0030759
0.00500155
0.00417337
0.00241341
0.00289216
0.00386433
0.0030882
0.00270612
0.0033505
0.00394837
0.00378691
0.00363069
0.0040686
0.00461517
0.00498368
0.00548146
0.00207795
0.00520512
0.00809076
0.00396362
0.0031213
0.0049483
0.0041839
0.00245542
0.00286772
0.00386575
0.00311961
0.00265563
0.00326489
0.00385369
0.00369478
0.00350108
0.003894
0.00445133
0.00486497
0.00537766
0.00216694
0.00515803
0.00795818
0.00403463
0.00316137
0.00489973
0.00419035
0.00250298
0.00283932
0.00386816
0.00314963
0.0025866
0.00314928
0.00375296
0.00359195
0.00337294
0.00371055
0.00429468
0.00488085
0.00528171
0.00225821
0.00510971
0.00782364
0.00410662
0.0032036
0.00484769
0.00420448
0.00254011
0.00281077
0.0038557
0.00319213
0.00256057
0.00304398
0.00364106
0.00350738
0.00324331
0.00354345
0.00409099
0.00459173
0.00519183
0.00235028
0.00506203
0.00768484
0.00418219
0.00324146
0.00479627
0.00421867
0.00258622
0.00277339
0.00384134
0.00323927
0.00247403
0.00291389
0.00352057
0.00341512
0.00310383
0.0033526
0.00390159
0.00446099
0.00511174
0.00244304
0.00501588
0.00754122
0.00425991
0.00327762
0.00474631
0.00422865
0.00264636
0.00272858
0.00381652
0.00327608
0.00243954
0.00276698
0.0033854
0.00330774
0.00295271
0.00313153
0.00373385
0.00451349
0.0050378
0.00253767
0.00496937
0.00739536
0.00433646
0.00332116
0.0046851
0.00425003
0.00269263
0.00268623
0.00377152
0.00332317
0.00240447
0.00264832
0.00329507
0.00322096
0.00279085
0.00289465
0.00344031
0.00414182
0.00496747
0.00263186
0.00492598
0.00724433
0.00441481
0.00336546
0.00461827
0.00427284
0.00274384
0.00263977
0.00370825
0.00337949
0.00237164
0.00253201
0.00317302
0.00312897
0.0026216
0.0026289
0.00310995
0.00387593
0.00492313
0.00272663
0.00488477
0.00708921
0.0044922
0.00341264
0.00455095
0.00428546
0.00281341
0.00258924
0.00363051
0.0033665
0.00237018
0.00240311
0.00302788
0.0030305
0.00247072
0.00236236
0.00281533
0.00367265
0.00486775
0.00282193
0.00484543
0.00693122
0.00456606
0.00346718
0.0044788
0.00429211
0.00288652
0.00253947
0.0035374
0.00339873
0.00238436
0.00227659
0.00286225
0.00292409
0.00233989
0.00212231
0.00255152
0.0034709
0.00479454
0.00291631
0.00481
0.00677029
0.00463531
0.00352829
0.00440521
0.00429195
0.00296008
0.00249487
0.00343128
0.00342053
0.00241015
0.00215774
0.00267584
0.00280105
0.00222494
0.00191204
0.00230559
0.00327686
0.00471501
0.00301058
0.0047776
0.00660843
0.00469643
0.00359607
0.00433331
0.00427983
0.00303581
0.00246069
0.00331181
0.00342772
0.00244583
0.00204633
0.00247359
0.00265825
0.00212827
0.00174371
0.00208704
0.00308691
0.00462744
0.0031041
0.00474851
0.00644689
0.00474779
0.00366923
0.00426361
0.0042583
0.00311206
0.00243526
0.00318116
0.00341792
0.00248573
0.00194828
0.00226798
0.0025006
0.00204782
0.00160872
0.00188479
0.00289814
0.00452561
0.00319675
0.00472283
0.00628796
0.00478743
0.00374516
0.00420075
0.00422843
0.00318179
0.00241971
0.0030484
0.00338631
0.00252342
0.00186706
0.00206886
0.00232683
0.00196814
0.00150455
0.00170663
0.00270784
0.00441297
0.00328829
0.00470116
0.00613221
0.00481471
0.00382195
0.0041449
0.00418979
0.00324859
0.00241733
0.00291461
0.00332821
0.0025584
0.00181026
0.0018828
0.00213466
0.00187752
0.00142467
0.00155481
0.00252366
0.00429221
0.00337868
0.00468287
0.00598087
0.00482901
0.00389709
0.00409824
0.00414549
0.00330451
0.0024252
0.00277788
0.00324731
0.00259574
0.00177415
0.00170622
0.00192739
0.00177149
0.0013631
0.001435
0.00235414
0.00417057
0.00346758
0.00466828
0.00583531
0.00483062
0.00396727
0.00406047
0.00409727
0.00335132
0.00244204
0.00264688
0.00314859
0.00262294
0.00174569
0.00154323
0.00172042
0.0016544
0.00131326
0.00134307
0.00220805
0.00405677
0.00355477
0.00465765
0.00569573
0.00482084
0.00403047
0.00402928
0.00404656
0.00338743
0.0024672
0.00252921
0.00303128
0.00262985
0.00172681
0.0014057
0.0015228
0.00151627
0.0012485
0.00127167
0.00210246
0.00396354
0.00363971
0.00465192
0.00556102
0.0048005
0.00408768
0.00400352
0.0039971
0.00341273
0.00249853
0.0024227
0.00289691
0.00261924
0.00172266
0.00129162
0.00132866
0.00135121
0.0011721
0.00123281
0.00204147
0.00388502
0.00372246
0.0046494
0.00543721
0.00476943
0.0041226
0.0039814
0.00395223
0.00343136
0.0025366
0.00233048
0.0027513
0.00259011
0.00172463
0.0011905
0.00114103
0.00118296
0.00109802
0.00120929
0.00200286
0.00382096
0.00380316
0.00464998
0.00532382
0.00472947
0.00416586
0.00395854
0.00388077
0.00344585
0.00258617
0.00225878
0.00260021
0.00253772
0.00172504
0.00110472
0.000975056
0.00101993
0.00100698
0.00117362
0.00198218
0.00378518
0.00388071
0.004655
0.00521979
0.00468393
0.00418982
0.00392196
0.0038155
0.00345823
0.00264098
0.00220538
0.00244848
0.00246124
0.00172299
0.00103927
0.000828203
0.000854523
0.000899513
0.00113463
0.00197685
0.00377074
0.00395563
0.00466254
0.00512643
0.00463207
0.00419176
0.00389097
0.00375753
0.00346068
0.00269186
0.00216812
0.00230143
0.00236431
0.00171578
0.000989003
0.00069661
0.000695711
0.000787231
0.00108666
0.00196948
0.0037629
0.00402797
0.00467087
0.00504388
0.0045759
0.00417807
0.00386274
0.00370139
0.00345267
0.0027381
0.00214606
0.00216517
0.00225111
0.00169585
0.00094784
0.000581932
0.000546932
0.00066894
0.00102484
0.00195079
0.00375803
0.00409737
0.00467904
0.0049707
0.00451892
0.00415241
0.00383315
0.00364688
0.00343693
0.00277809
0.00213523
0.00204023
0.00212197
0.00165761
0.000913304
0.000482885
0.000409516
0.000552209
0.000956163
0.00192345
0.00375454
0.00416404
0.0046867
0.00490511
0.00446298
0.00412164
0.00380147
0.00359299
0.00341243
0.00280811
0.00213058
0.00192932
0.00198502
0.00160528
0.000885153
0.000400713
0.000287666
0.000440349
0.000881959
0.00188582
0.00374443
0.00422796
0.00469326
0.0048461
0.00440975
0.00408602
0.00376693
0.0035376
0.00337804
0.00282894
0.00213348
0.00183571
0.00184797
0.00153727
0.000857664
0.000332239
0.000176219
0.000328842
0.000802268
0.00184072
0.00372838
0.00428907
0.00469864
0.00479242
0.00435974
0.00404731
0.00372884
0.0034807
0.00333608
0.00284192
0.00214092
0.00175687
0.0017117
0.00145284
0.00082681
0.000274306
7.34642e-05
0.000219917
0.000722845
0.00179474
0.00370957
0.0043474
0.00470287
0.00474325
0.00431306
0.00400634
0.00368769
0.00342285
0.0032873
0.00284522
0.0021491
0.00169055
0.00158078
0.0013564
0.00078922
0.000224115
-1.85743e-05
0.000117232
0.000644308
0.00174697
0.003688
0.00440293
0.00470594
0.00469794
0.00426962
0.00396415
0.00364416
0.00336398
0.00323162
0.00283789
0.00215686
0.00163712
0.00145858
0.00124933
0.000740173
0.000180072
-9.73878e-05
2.06802e-05
0.000563787
0.00169674
0.00366538
0.00445562
0.00470795
0.00465588
0.00422905
0.00392159
0.00359898
0.00330406
0.00316945
0.00281997
0.00216282
0.00159447
0.00134525
0.0011343
0.000680521
0.000141569
-0.000164625
-7.09115e-05
0.000481806
0.00164366
0.00364171
0.0045054
0.00470902
0.00461654
0.00419088
0.0038789
0.00355287
0.0032434
0.00310138
0.0027913
0.00216483
0.00156037
0.00124257
0.00101694
0.000611082
0.000102012
-0.000224155
-0.000155458
0.000400121
0.00158778
0.00361697
0.00455226
0.00470928
0.00457948
0.0041546
0.00383609
0.00350632
0.00318272
0.00302832
0.00275162
0.00216119
0.00153357
0.00115267
0.000900535
0.000529445
5.59771e-05
-0.000275625
-0.00023018
0.000321338
0.00152978
0.00358815
0.00459611
0.00470891
0.00454451
0.00411959
0.00379369
0.00345975
0.00312249
0.00295146
0.00270125
0.0021503
0.00151179
0.00107558
0.000787368
0.000436879
2.9081e-06
-0.000321378
-0.000295868
0.000246726
0.00146787
0.00355269
0.00463688
0.004708
0.00451134
0.00408558
0.00375155
0.00341317
0.00306345
0.00287217
0.00264059
0.00213061
0.00149196
0.00100997
0.000681109
0.000338041
-5.9344e-05
-0.000367901
-0.000354771
0.000176306
0.00140377
0.00351408
0.00467454
0.00470673
0.00447967
0.00405209
0.0037098
0.00336661
0.00300586
0.00279189
0.00257057
0.00210077
0.00147136
0.000953731
0.000584459
0.00023679
-0.000132534
-0.000419138
-0.000409067
0.000111992
0.00134315
0.0034743
0.00470903
0.00470507
0.00444952
0.00401901
0.00366793
0.00332005
0.00294963
0.0027118
0.00249291
0.00206032
0.00144808
0.000903891
0.0004974
0.000136332
-0.000214582
-0.000476869
-0.000461622
5.39207e-05
0.00128602
0.00343173
0.00474031
0.00470305
0.0044208
0.00398604
0.00362598
0.00327356
0.00289477
0.00263285
0.00240947
0.00200886
0.00141987
0.000857455
0.000419174
4.03781e-05
-0.000301835
-0.000542382
-0.000516307
-1.73677e-06
0.00123037
0.00338715
0.00476832
0.0047007
0.00439366
0.00395291
0.00358375
0.00322728
0.00284095
0.00255577
0.00232262
0.00194597
0.00138466
0.00081262
0.000348143
-4.96732e-05
-0.000391917
-0.000615846
-0.00057619
-5.74946e-05
0.00117672
0.0033418
0.00479315
0.00469795
0.00436792
0.00391979
0.00354099
0.00318086
0.0027881
0.00248065
0.00223416
0.00187289
0.00134114
0.000767814
0.000281214
-0.000134899
-0.000482963
-0.000695929
-0.000642381
-0.000115369
0.00112314
0.00329482
0.00481478
0.00469478
0.00434375
0.00388659
0.00349765
0.00313434
0.00273623
0.00240703
0.00214567
0.00179203
0.00128728
0.000720562
0.000215819
-0.000216172
-0.000572832
-0.000780731
-0.000715656
-0.000178886
0.00106623
0.00324473
0.00483328
0.004691
0.00432105
0.00385371
0.00345367
0.00308737
0.00268544
0.00233441
0.00205801
0.00170618
0.00122135
0.000668497
0.000151107
-0.000294029
-0.000660761
-0.000869349
-0.00079683
-0.00025085
0.00100289
0.0031895
0.00484875
0.0046865
0.0042997
0.0038213
0.00340959
0.00303933
0.00263548
0.00226313
0.00197073
0.00161851
0.00114396
0.000608074
8.54874e-05
-0.000369772
-0.000746592
-0.000960355
-0.000885167
-0.000332373
0.000930203
0.00312622
0.00486132
0.00468118
0.00427965
0.0037898
0.00336529
0.00298984
0.00258614
0.00219347
0.00188211
0.00153102
0.00105887
0.000536751
1.5006e-05
-0.000447142
-0.000831245
-0.00105211
-0.000978011
-0.000421884
0.000847998
0.00305335
0.00487111
0.00467497
0.0042603
0.00375931
0.00332189
0.00293872
0.00253654
0.00212639
0.00179038
0.00144195
0.000969972
0.0004551
-6.32319e-05
-0.000530585
-0.000918577
-0.00114569
-0.00107429
-0.000517509
0.000757918
0.00297225
0.0048781
0.00466776
0.0042426
0.00372937
0.00327988
0.00288677
0.00248532
0.0020636
0.00169771
0.00134919
0.000879545
0.00036454
-0.000150263
-0.000621838
-0.00101255
-0.00124492
-0.00117767
-0.000622543
0.000656491
0.00287987
0.00488235
0.0046596
0.00421339
0.00370159
0.00323976
0.0028347
0.00243076
0.00200342
0.00160661
0.00125165
0.000788495
0.000269731
-0.000243829
-0.000718785
-0.00111163
-0.00135021
-0.00128991
-0.000739687
0.000539691
0.00276992
0.00488399
0.004651
0.00419732
0.00367531
0.00320198
0.00278441
0.0023719
0.00194206
0.00151746
0.00114703
0.000693613
0.000172273
-0.000343286
-0.000822497
-0.00121795
-0.00146136
-0.00140923
-0.000866223
0.000409958
0.00264411
0.00488226
0.00464199
0.00418047
0.00365263
0.00316741
0.00273633
0.00230972
0.0018765
0.00143025
0.00103634
0.000591019
7.04511e-05
-0.000449066
-0.000934031
-0.00133463
-0.00158239
-0.00153751
-0.00100231
0.000268822
0.00250451
0.00487861
0.0046323
0.00415911
0.00362497
0.0031357
0.00269063
0.00224545
0.00180485
0.00134466
0.000923176
0.00048098
-3.57423e-05
-0.000560564
-0.00105341
-0.00146272
-0.00171647
-0.00167954
-0.00115277
0.00010929
0.00233792
0.00487593
0.00462351
0.00417682
0.00363354
0.00312353
0.00265722
0.00218401
0.00172742
0.00126128
0.000818039
0.000371792
-0.000139998
-0.000671876
-0.00117624
-0.00159938
-0.00186334
-0.00183584
-0.00131814
-6.69201e-05
0.00215024
0.00484129
0.00460539
0.00411289
0.00360219
0.00310284
0.00262513
0.002125
0.00164801
0.00117805
0.000719894
0.000265258
-0.000243533
-0.000783455
-0.00130304
-0.00174454
-0.00202254
-0.00200656
-0.00150102
-0.000260982
0.00194967
0.00487486
0.00461466
0.00416971
0.00359555
0.00303995
0.00252172
0.00200038
0.00151964
0.00106518
0.000614742
0.00015648
-0.000351699
-0.000901531
-0.00143995
-0.00190568
-0.00220875
-0.00221597
-0.00172765
-0.000499932
0.0017035
0.00475535
0.00455358
0.00417595
0.00375938
0.00322487
0.00259032
0.00193274
0.00141054
0.000969683
0.000531944
6.86178e-05
-0.00044911
-0.00101732
-0.00158191
-0.00208174
-0.0024252
-0.00247429
-0.00202255
-0.000831911
0.00133421
0.00488357
0.00462889
0.00414861
0.00351068
0.00294848
0.00239444
0.00184825
0.00136718
0.000934063
0.00050945
5.30942e-05
-0.000459687
-0.00102144
-0.0015793
-0.00208458
-0.00246263
-0.00257758
-0.0022303
-0.0011561
0.000885438
0.00477609
0.00460091
0.00408833
0.00366108
0.00309783
0.0024237
0.0017731
0.00125694
0.000770767
0.000317526
-0.000182482
-0.000709143
-0.00126787
-0.00177936
-0.00218575
-0.00240922
-0.00238038
-0.00193602
-0.000831057
0.0012011
0.00495132
0.00459268
0.00408331
0.00349538
0.00290471
0.0023911
0.0018971
0.0014547
0.00102527
0.000569003
3.51856e-05
-0.000556531
-0.00122289
-0.0019629
-0.00272983
-0.0034092
-0.00382718
-0.00375928
-0.00291212
-0.0010857
0.00512983
0.00448635
0.00388211
0.00333443
0.00276391
0.00211952
0.00152628
0.00108706
0.000654742
0.000143958
-0.000397456
-0.000878652
-0.00112388
-0.00102387
-0.000527799
0.000272106
0.00118629
0.00191609
0.00207154
0.00135957
0.00511615
0.00452403
0.0039493
0.00343013
0.00303396
0.00259304
0.00213901
0.00167857
0.00119286
0.000555918
-0.000186422
-0.00104838
-0.00201488
-0.00302633
-0.00402797
-0.00493539
-0.00559283
-0.00577258
-0.00519938
-0.00362348
0.00526888
0.00447844
0.00385529
0.00331417
0.00287196
0.00234459
0.0017105
0.000977649
0.000372036
-2.33316e-05
-0.000457626
-0.00100503
-0.00147742
-0.00173749
-0.00167579
-0.00128389
-0.000663602
-0.000105708
-8.02115e-06
-0.000738329
0.00526287
0.00445793
0.00385204
0.00347781
0.00324321
0.00291993
0.00258271
0.0021461
0.00160555
0.000787354
-0.000340342
-0.00176911
-0.00343562
-0.0051814
-0.00678755
-0.00806257
-0.0088527
-0.00898899
-0.00825448
-0.00645364
0.0156302
0.00267139
-0.00249106
-0.00185839
-0.000235543
0.00116032
0.00230531
0.00327465
0.00402331
0.00460422
0.00540102
0.00650975
0.00752122
0.00822325
0.00887867
0.00946331
0.00982875
0.0105185
0.0116641
0.0125981
0.0135216
0.0145483
0.0153443
0.0160618
0.0170893
0.0181958
0.0191707
0.0202541
0.0215205
0.022768
0.023914
0.0251585
0.0264939
0.0279042
0.0293317
0.0308599
0.0323908
0.0339741
0.0356267
0.0373075
0.0391049
0.0408501
0.0427285
0.0446107
0.0465833
0.048654
0.0506698
0.0528833
0.0547047
0.0566622
0.0153192
0.00272716
-0.00244946
-0.00184301
-0.000228045
0.00116494
0.00230872
0.00327756
0.00402593
0.00460646
0.00540284
0.00651132
0.00752269
0.00822457
0.00887982
0.0094644
0.00982973
0.0105193
0.0116649
0.0125988
0.0135222
0.0145489
0.0153449
0.0160623
0.0170897
0.0181962
0.0191711
0.0202544
0.0215207
0.0227682
0.0239142
0.0251587
0.0264942
0.0279044
0.0293318
0.03086
0.032391
0.0339742
0.0356269
0.0373076
0.0391051
0.0408502
0.0427286
0.0446108
0.0465834
0.0486541
0.0506699
0.0528834
0.0547047
0.0566622
0.0149701
0.00281277
-0.00238364
-0.00182158
-0.000218521
0.00117038
0.00231227
0.0032803
0.0040283
0.00460846
0.00540446
0.00651278
0.00752409
0.00822578
0.00888086
0.00946539
0.00983055
0.01052
0.0116657
0.0125995
0.0135228
0.0145495
0.0153454
0.0160627
0.01709
0.0181965
0.0191714
0.0202546
0.021521
0.0227685
0.0239145
0.0251589
0.0264943
0.0279046
0.029332
0.0308602
0.0323911
0.0339744
0.035627
0.0373077
0.0391052
0.0408503
0.0427287
0.0446109
0.0465835
0.0486542
0.05067
0.0528835
0.0547048
0.0566622
0.0146488
0.00292708
-0.00228433
-0.00178651
-0.000203389
0.0011785
0.00231693
0.00328339
0.0040308
0.00461057
0.00540622
0.00651433
0.00752557
0.00822706
0.00888194
0.0094664
0.0098313
0.0105206
0.0116664
0.0126002
0.0135234
0.0145501
0.0153459
0.0160631
0.0170904
0.0181969
0.0191717
0.0202549
0.0215212
0.0227687
0.0239147
0.0251591
0.0264945
0.0279048
0.0293322
0.0308603
0.0323913
0.0339745
0.0356271
0.0373078
0.0391053
0.0408504
0.0427288
0.0446109
0.0465836
0.0486542
0.05067
0.0528835
0.0547049
0.0566622
0.0143454
0.00306096
-0.00215593
-0.00173641
-0.000180848
0.00119061
0.00232355
0.00328735
0.00403376
0.00461313
0.00540834
0.00651606
0.00752718
0.00822849
0.00888317
0.00946752
0.00983208
0.0105211
0.0116673
0.012601
0.013524
0.0145507
0.0153465
0.0160635
0.0170908
0.0181973
0.0191721
0.0202552
0.0215215
0.022769
0.0239149
0.0251593
0.0264947
0.027905
0.0293323
0.0308605
0.0323915
0.0339746
0.0356273
0.037308
0.0391054
0.0408505
0.0427289
0.044611
0.0465837
0.0486543
0.0506701
0.0528836
0.054705
0.0566621
0.0140414
0.00320364
-0.00201055
-0.00167567
-0.000151943
0.00120662
0.00233231
0.00329248
0.00403752
0.00461641
0.00541098
0.00651796
0.00752882
0.00823002
0.00888454
0.0094688
0.00983296
0.0105218
0.0116682
0.0126018
0.0135246
0.0145515
0.0153472
0.016064
0.0170912
0.0181978
0.0191724
0.0202555
0.0215218
0.0227693
0.0239151
0.0251595
0.0264949
0.0279052
0.0293325
0.0308607
0.0323916
0.0339748
0.0356274
0.0373081
0.0391055
0.0408507
0.042729
0.0446111
0.0465838
0.0486544
0.0506702
0.0528837
0.0547052
0.0566621
0.0137299
0.00334885
-0.00185604
-0.00160875
-0.000118901
0.00122549
0.00234282
0.00329878
0.00404229
0.00462067
0.00541425
0.00651994
0.00753033
0.00823151
0.00888601
0.00947027
0.00983405
0.0105226
0.0116692
0.0126026
0.0135253
0.0145523
0.0153479
0.0160645
0.0170917
0.0181983
0.0191729
0.0202558
0.0215222
0.0227696
0.0239154
0.0251597
0.0264951
0.0279054
0.0293327
0.0308609
0.0323918
0.033975
0.0356276
0.0373082
0.0391057
0.0408508
0.0427291
0.0446112
0.0465838
0.0486545
0.0506703
0.0528838
0.0547054
0.0566621
0.0134114
0.00349432
-0.00169507
-0.00153791
-8.33869e-05
0.00124616
0.00235448
0.003306
0.00404809
0.00462603
0.00541826
0.00652197
0.00753155
0.00823275
0.00888737
0.00947186
0.00983546
0.0105237
0.0116705
0.0126034
0.013526
0.0145532
0.0153487
0.0160651
0.0170923
0.0181989
0.0191733
0.0202562
0.0215226
0.02277
0.0239157
0.0251599
0.0264954
0.0279056
0.0293329
0.0308611
0.032392
0.0339751
0.0356277
0.0373084
0.0391058
0.0408509
0.0427292
0.0446113
0.0465839
0.0486546
0.0506704
0.052884
0.0547056
0.0566621
0.0130886
0.00363964
-0.00152789
-0.0014638
-4.62674e-05
0.00126802
0.0023669
0.00331385
0.00405475
0.00463242
0.00542296
0.00652403
0.00753239
0.00823358
0.00888841
0.00947337
0.00983718
0.0105254
0.0116722
0.0126044
0.0135265
0.014554
0.0153495
0.0160657
0.0170929
0.0181996
0.0191739
0.0202567
0.0215231
0.0227705
0.0239161
0.0251602
0.0264956
0.0279058
0.0293331
0.0308613
0.0323922
0.0339753
0.0356279
0.0373085
0.039106
0.0408511
0.0427293
0.0446114
0.0465841
0.0486547
0.0506705
0.0528841
0.054706
0.0566621
0.0127648
0.00378463
-0.00135432
-0.00138652
-7.90903e-06
0.00129079
0.00237992
0.00332216
0.00406203
0.00463959
0.00542826
0.00652608
0.00753284
0.0082339
0.00888894
0.00947455
0.009839
0.0105277
0.0116745
0.0126054
0.0135271
0.0145548
0.0153502
0.0160664
0.0170937
0.0182003
0.0191745
0.0202573
0.0215237
0.022771
0.0239165
0.0251605
0.0264959
0.0279061
0.0293333
0.0308615
0.0323924
0.0339755
0.0356281
0.0373087
0.0391061
0.0408512
0.0427295
0.0446116
0.0465842
0.0486548
0.0506706
0.0528843
0.0547064
0.0566622
0.0124423
0.00392879
-0.0011745
-0.00130599
3.15332e-05
0.00131438
0.00239353
0.00333085
0.00406974
0.00464735
0.00543401
0.00652808
0.00753288
0.00823372
0.00888888
0.0094752
0.00984063
0.0105305
0.0116777
0.0126069
0.0135275
0.0145553
0.0153509
0.0160671
0.0170945
0.0182012
0.0191753
0.020258
0.0215244
0.0227717
0.023917
0.0251609
0.0264962
0.0279063
0.0293336
0.0308617
0.0323926
0.0339757
0.0356283
0.0373089
0.0391063
0.0408514
0.0427296
0.0446117
0.0465843
0.048655
0.0506708
0.0528846
0.054707
0.0566623
0.0121232
0.00407138
-0.000988752
-0.00122215
7.19457e-05
0.00133874
0.00240774
0.00333995
0.00407782
0.00465557
0.00544015
0.00653001
0.00753251
0.00823307
0.0088883
0.00947523
0.00984178
0.0105333
0.0116816
0.0126088
0.0135278
0.0145555
0.0153513
0.0160678
0.0170954
0.0182021
0.0191761
0.0202588
0.0215252
0.0227724
0.0239176
0.0251615
0.0264966
0.0279066
0.0293338
0.030862
0.0323928
0.0339759
0.0356285
0.0373091
0.0391066
0.0408516
0.0427298
0.0446119
0.0465845
0.0486552
0.0506709
0.0528848
0.0547077
0.0566625
0.0118088
0.00421171
-0.000797398
-0.00113491
0.000113194
0.0013638
0.0024226
0.00334948
0.00408627
0.00466422
0.00544667
0.00653191
0.00753172
0.00823199
0.0088873
0.00947471
0.0098423
0.0105358
0.0116859
0.0126113
0.013528
0.0145554
0.0153513
0.0160682
0.0170962
0.018203
0.019177
0.0202597
0.021526
0.0227731
0.0239184
0.0251621
0.0264972
0.027907
0.0293341
0.0308622
0.032393
0.0339761
0.0356287
0.0373093
0.0391068
0.0408518
0.04273
0.0446121
0.0465846
0.0486554
0.0506711
0.0528851
0.0547085
0.0566628
0.0115
0.00434922
-0.000600644
-0.00104412
0.000155135
0.00138947
0.00243815
0.00335952
0.00409512
0.00467334
0.00545362
0.00653386
0.00753046
0.00823052
0.008886
0.00947376
0.00984216
0.0105375
0.0116903
0.012614
0.0135281
0.0145549
0.0153511
0.0160685
0.017097
0.0182039
0.019178
0.0202608