/*--------------------------------*- C++ -*----------------------------------*\
| =========                 |                                                 |
| \\      /  F ield         | OpenFOAM: The Open Source CFD Toolbox           |
|  \\    /   O peration     | Version:  v2012                                 |
|   \\  /    A nd           | Website:  www.openfoam.com                      |
|    \\/     M anipulation  |                                                 |
\*---------------------------------------------------------------------------*/
FoamFile
{
    version     2.0;
    format      ascii;
    class       surfaceScalarField;
    location    "7.5";
    object      phi;
}
// * * * * * * * * * * * * * * * * * * * * * * * * * * * * * * * * * * * * * //

dimensions      [0 3 -1 0 0 0 0];
oriented        oriented;


internalField   nonuniform List<scalar> 
13830
(
1.01103e-06
-5.56044e-07
9.43199e-07
9.16271e-07
8.51783e-07
9.02453e-08
9.57986e-07
-1.43679e-06
1.01769e-06
2.67375e-07
8.81732e-07
7.03125e-07
9.0867e-07
4.69633e-07
8.87838e-07
-3.62838e-07
9.30793e-07
-6.47351e-07
9.11575e-07
-5.49096e-07
9.34079e-07
-2.4082e-07
9.34078e-07
4.9933e-08
9.28256e-07
7.21499e-08
9.29519e-07
2.74809e-07
9.25271e-07
1.26507e-07
9.28331e-07
1.91013e-07
9.2637e-07
9.2864e-08
9.29918e-07
1.08448e-07
9.28581e-07
7.5579e-08
7.97468e-08
9.20622e-07
1.0495e-06
-6.33011e-07
9.8893e-07
9.7684e-07
8.92326e-07
1.86849e-07
9.92883e-07
-1.53734e-06
1.05347e-06
2.06786e-07
9.23257e-07
8.3334e-07
9.43869e-07
4.49021e-07
9.28099e-07
-3.47067e-07
9.7043e-07
-6.89682e-07
9.47466e-07
-5.26132e-07
9.71425e-07
-2.64778e-07
9.72207e-07
4.91503e-08
9.64163e-07
8.01948e-08
9.71168e-07
2.67804e-07
9.60465e-07
1.3721e-07
9.71324e-07
1.80154e-07
9.59433e-07
1.04755e-07
9.72628e-07
9.5253e-08
9.57231e-07
9.09757e-08
6.7345e-08
9.69633e-07
1.08618e-06
-7.09734e-07
1.0418e-06
1.02122e-06
9.40955e-07
2.87693e-07
1.02656e-06
-1.62295e-06
1.08676e-06
1.46584e-07
9.76409e-07
9.4369e-07
9.84842e-07
4.40588e-07
9.76788e-07
-3.39013e-07
1.01123e-06
-7.24128e-07
9.93395e-07
-5.08293e-07
1.00814e-06
-2.79522e-07
1.01957e-06
3.77215e-08
9.99517e-07
1.00245e-07
1.01665e-06
2.50668e-07
9.95677e-07
1.58185e-07
1.01233e-06
1.63504e-07
9.95309e-07
1.21774e-07
1.0082e-06
8.23608e-08
9.94914e-07
1.04262e-07
6.18055e-08
1.00045e-06
1.12125e-06
-7.83211e-07
1.09649e-06
1.04598e-06
9.94387e-07
3.898e-07
1.06099e-06
-1.68955e-06
1.11885e-06
8.87301e-08
1.03545e-06
1.02709e-06
1.03112e-06
4.44918e-07
1.02989e-06
-3.37785e-07
1.05119e-06
-7.4543e-07
1.04298e-06
-5.00084e-07
1.04612e-06
-2.82658e-07
1.06556e-06
1.82741e-08
1.03876e-06
1.2705e-07
1.05586e-06
2.33568e-07
1.03541e-06
1.78632e-07
1.04773e-06
1.51191e-07
1.03553e-06
1.33967e-07
1.04264e-06
7.52529e-08
1.03495e-06
1.11957e-07
6.1081e-08
1.03567e-06
1.15434e-06
-8.49993e-07
1.14866e-06
1.05165e-06
1.05051e-06
4.87953e-07
1.09714e-06
-1.73618e-06
1.15095e-06
3.49227e-08
1.09593e-06
1.08211e-06
1.08107e-06
4.59779e-07
1.08316e-06
-3.39873e-07
1.08959e-06
-7.51857e-07
1.09059e-06
-5.01082e-07
1.08576e-06
-2.77831e-07
1.10704e-06
-3.00418e-09
1.08304e-06
1.51048e-07
1.09361e-06
2.22995e-07
1.07965e-06
1.9259e-07
1.08604e-06
1.44804e-07
1.07897e-06
1.41041e-07
1.0822e-06
7.20206e-08
1.07732e-06
1.16836e-07
6.26695e-08
1.07573e-06
1.18564e-06
-9.06788e-07
1.19532e-06
1.04197e-06
1.10765e-06
5.75629e-07
1.1356e-06
-1.76414e-06
1.18415e-06
-1.36279e-08
1.1543e-06
1.11196e-06
1.13331e-06
4.80767e-07
1.13446e-06
-3.41024e-07
1.12812e-06
-7.45515e-07
1.13444e-06
-5.07397e-07
1.12757e-06
-2.70959e-07
1.14682e-06
-2.22574e-08
1.13113e-06
1.66732e-07
1.13574e-06
2.1839e-07
1.12723e-06
2.01101e-07
1.13025e-06
1.41782e-07
1.12534e-06
1.45952e-07
1.12676e-06
7.05999e-08
1.12261e-06
1.20989e-07
6.54207e-08
1.11986e-06
1.21612e-06
-9.5121e-07
1.23569e-06
1.0224e-06
1.16452e-06
6.468e-07
1.17643e-06
-1.77605e-06
1.21897e-06
-5.61663e-08
1.20866e-06
1.12226e-06
1.18622e-06
5.03211e-07
1.18398e-06
-3.38791e-07
1.16888e-06
-7.30411e-07
1.17623e-06
-5.14749e-07
1.17089e-06
-2.65615e-07
1.18795e-06
-3.93242e-08
1.18051e-06
1.74178e-07
1.18293e-06
2.15964e-07
1.17691e-06
2.07123e-07
1.17873e-06
1.39966e-07
1.17395e-06
1.50729e-07
1.17432e-06
7.02315e-08
1.17006e-06
1.25245e-07
6.88886e-08
1.1666e-06
1.24734e-06
-9.82364e-07
1.27125e-06
9.98478e-07
1.2204e-06
6.97653e-07
1.2194e-06
-1.77504e-06
1.2552e-06
-9.19707e-08
1.25859e-06
1.11887e-06
1.23808e-06
5.23715e-07
1.23279e-06
-3.33501e-07
1.21268e-06
-7.10296e-07
1.21829e-06
-5.20363e-07
1.21449e-06
-2.61813e-07
1.23092e-06
-5.57534e-08
1.22934e-06
1.75758e-07
1.2327e-06
2.12607e-07
1.22747e-06
2.12345e-07
1.22886e-06
1.38577e-07
1.22351e-06
1.5608e-07
1.22284e-06
7.09017e-08
1.21834e-06
1.29742e-07
7.29226e-08
1.21431e-06
1.28098e-06
-1.00099e-06
1.30487e-06
9.74592e-07
1.27508e-06
7.27437e-07
1.26435e-06
-1.7643e-06
1.29245e-06
-1.20074e-07
1.30461e-06
1.10671e-06
1.28788e-06
5.40449e-07
1.28177e-06
-3.27393e-07
1.25926e-06
-6.87781e-07
1.26213e-06
-5.23233e-07
1.25795e-06
-2.57635e-07
1.27475e-06
-7.2551e-08
1.27695e-06
1.73559e-07
1.28244e-06
2.07113e-07
1.27768e-06
2.17103e-07
1.2787e-06
1.37557e-07
1.2728e-06
1.61977e-07
1.27096e-06
7.27488e-08
1.26635e-06
1.34351e-07
7.74416e-08
1.26183e-06
1.31838e-06
-1.00909e-06
1.33959e-06
9.53377e-07
1.32885e-06
7.38176e-07
1.31128e-06
-1.74673e-06
1.33072e-06
-1.39517e-07
1.34801e-06
1.08942e-06
1.33576e-06
5.52707e-07
1.33139e-06
-3.23028e-07
1.30813e-06
-6.64522e-07
1.30844e-06
-5.23541e-07
1.30195e-06
-2.51142e-07
1.31877e-06
-8.93752e-08
1.32335e-06
1.68977e-07
1.33083e-06
1.99637e-07
1.32672e-06
2.21212e-07
1.32729e-06
1.36987e-07
1.32117e-06
1.68094e-07
1.31813e-06
7.57924e-08
1.31361e-06
1.38875e-07
8.23292e-08
1.30872e-06
1.36014e-06
-1.00921e-06
1.37769e-06
9.35827e-07
1.3823e-06
7.33561e-07
1.36027e-06
-1.7247e-06
1.37067e-06
-1.49915e-07
1.39062e-06
1.06947e-06
1.38287e-06
5.60454e-07
1.38192e-06
-3.22077e-07
1.35898e-06
-6.41581e-07
1.35743e-06
-5.21997e-07
1.34761e-06
-2.4132e-07
1.36326e-06
-1.0502e-07
1.36908e-06
1.63152e-07
1.3778e-06
1.90915e-07
1.37451e-06
2.24504e-07
1.37457e-06
1.36927e-07
1.36863e-06
1.74041e-07
1.36452e-06
7.9898e-08
1.36025e-06
1.43141e-07
8.74189e-08
1.35516e-06
1.40617e-06
-1.00373e-06
1.42023e-06
9.2177e-07
1.43608e-06
7.17712e-07
1.41134e-06
-1.69997e-06
1.41323e-06
-1.51802e-07
1.43437e-06
1.04834e-06
1.43074e-06
5.6408e-07
1.43362e-06
-3.24953e-07
1.41158e-06
-6.19545e-07
1.40899e-06
-5.194e-07
1.39582e-06
-2.28157e-07
1.40903e-06
-1.18229e-07
1.41502e-06
1.57164e-07
1.42413e-06
1.81806e-07
1.42168e-06
2.26949e-07
1.42116e-06
1.37448e-07
1.41572e-06
1.79489e-07
1.41076e-06
8.48501e-08
1.40687e-06
1.47033e-07
9.2535e-08
1.40176e-06
1.456e-06
-9.94485e-07
1.46734e-06
9.10435e-07
1.49074e-06
6.9431e-07
1.46441e-06
-1.67364e-06
1.45914e-06
-1.46531e-07
1.48074e-06
1.02673e-06
1.48061e-06
5.6421e-07
1.48679e-06
-3.31132e-07
1.46579e-06
-5.9854e-07
1.46279e-06
-5.16403e-07
1.44695e-06
-2.12316e-07
1.45693e-06
-1.28208e-07
1.46218e-06
1.51907e-07
1.47091e-06
1.73083e-07
1.46927e-06
2.28587e-07
1.46806e-06
1.38655e-07
1.46335e-06
1.84204e-07
1.45777e-06
9.04243e-08
1.45431e-06
1.50493e-07
9.75425e-08
1.44931e-06
1.50906e-06
-9.82667e-07
1.51863e-06
9.00863e-07
1.54664e-06
6.66299e-07
1.51934e-06
-1.64634e-06
1.50868e-06
-1.35873e-07
1.53048e-06
1.00494e-06
1.53319e-06
5.61501e-07
1.54175e-06
-3.39693e-07
1.5215e-06
-5.78298e-07
1.51848e-06
-5.1338e-07
1.50093e-06
-1.94761e-07
1.50745e-06
-1.34733e-07
1.51145e-06
1.47913e-07
1.51918e-06
1.65346e-07
1.51835e-06
2.29415e-07
1.51638e-06
1.40627e-07
1.51255e-06
1.88034e-07
1.50657e-06
9.641e-08
1.50355e-06
1.53512e-07
1.0237e-07
1.49872e-06
1.56494e-06
-9.68994e-07
1.57368e-06
8.9212e-07
1.604e-06
6.35983e-07
1.57601e-06
-1.61835e-06
1.56177e-06
-1.21641e-07
1.58373e-06
9.8298e-07
1.5887e-06
5.56531e-07
1.59875e-06
-3.49741e-07
1.57877e-06
-5.58317e-07
1.57578e-06
-5.10394e-07
1.55752e-06
-1.76495e-07
1.56079e-06
-1.38009e-07
1.5634e-06
1.45305e-07
1.56974e-06
1.59005e-07
1.5698e-06
2.29353e-07
1.56712e-06
1.43313e-07
1.56426e-06
1.90892e-07
1.55808e-06
1.02589e-07
1.5555e-06
1.56096e-07
1.06992e-07
1.55087e-06
1.6235e-06
-9.53951e-07
1.63226e-06
8.8336e-07
1.66299e-06
6.05255e-07
1.6344e-06
-1.58976e-06
1.61827e-06
-1.05516e-07
1.64044e-06
9.60815e-07
1.64717e-06
5.49799e-07
1.65802e-06
-3.6059e-07
1.63773e-06
-5.38028e-07
1.63456e-06
-5.07224e-07
1.61651e-06
-1.58448e-07
1.61697e-06
-1.38467e-07
1.61841e-06
1.43871e-07
1.6231e-06
1.54308e-07
1.62422e-06
2.28238e-07
1.621e-06
1.46536e-07
1.61917e-06
1.92719e-07
1.61304e-06
1.0872e-07
1.61089e-06
1.58241e-07
1.11396e-07
1.60649e-06
1.68477e-06
-9.37967e-07
1.69427e-06
8.73857e-07
1.72378e-06
5.75747e-07
1.69465e-06
-1.56063e-06
1.67815e-06
-8.90153e-08
1.7006e-06
9.38366e-07
1.70857e-06
5.41825e-07
1.71974e-06
-3.7176e-07
1.69865e-06
-5.16936e-07
1.69487e-06
-5.03449e-07
1.67787e-06
-1.4144e-07
1.676e-06
-1.36597e-07
1.67669e-06
1.43178e-07
1.67969e-06
1.51311e-07
1.68199e-06
2.25932e-07
1.67849e-06
1.50039e-07
1.67773e-06
1.93477e-07
1.6719e-06
1.1455e-07
1.67022e-06
1.59921e-07
1.15556e-07
1.66606e-06
1.74884e-06
-9.21489e-07
1.75965e-06
8.63041e-07
1.78657e-06
5.4883e-07
1.75701e-06
-1.53107e-06
1.74148e-06
-7.3488e-08
1.76429e-06
9.1556e-07
1.77291e-06
5.33202e-07
1.78406e-06
-3.82907e-07
1.76184e-06
-4.94716e-07
1.75693e-06
-4.98539e-07
1.74165e-06
-1.26164e-07
1.7379e-06
-1.32839e-07
1.73839e-06
1.4268e-07
1.73981e-06
1.49896e-07
1.74338e-06
2.22363e-07
1.73988e-06
1.5354e-07
1.74016e-06
1.93196e-07
1.73486e-06
1.19849e-07
1.73367e-06
1.61109e-07
1.19422e-07
1.7298e-06
1.81579e-06
-9.0494e-07
1.82827e-06
8.50555e-07
1.8516e-06
5.255e-07
1.8218e-06
-1.50127e-06
1.80837e-06
-6.00575e-08
1.83159e-06
8.9234e-07
1.84021e-06
5.24578e-07
1.85106e-06
-3.93758e-07
1.82764e-06
-4.71289e-07
1.82105e-06
-4.91957e-07
1.80803e-06
-1.13141e-07
1.80271e-06
-1.27521e-07
1.80362e-06
1.41771e-07
1.8037e-06
1.4982e-07
1.80852e-06
2.17538e-07
1.80529e-06
1.56773e-07
1.80649e-06
1.9199e-07
1.8019e-06
1.24447e-07
1.80121e-06
1.61795e-07
1.22939e-07
1.79769e-06
1.8856e-06
-8.88644e-07
1.89988e-06
8.36274e-07
1.91912e-06
5.06261e-07
1.88933e-06
-1.47147e-06
1.87879e-06
-4.95192e-08
1.90245e-06
8.68673e-07
1.91048e-06
5.16551e-07
1.92079e-06
-4.04062e-07
1.89635e-06
-4.46853e-07
1.88763e-06
-4.83241e-07
1.87716e-06
-1.02668e-07
1.87049e-06
-1.20849e-07
1.87241e-06
1.39848e-07
1.87146e-06
1.50772e-07
1.87745e-06
2.11549e-07
1.87471e-06
1.59516e-07
1.87663e-06
1.90067e-07
1.87282e-06
1.28258e-07
1.87262e-06
1.62001e-07
1.26057e-07
1.8695e-06
1.95821e-06
-8.72754e-07
1.97421e-06
8.20274e-07
1.98938e-06
4.91092e-07
1.95983e-06
-1.44191e-06
1.95256e-06
-4.22558e-08
1.97669e-06
8.44544e-07
1.9837e-06
5.0954e-07
1.9932e-06
-4.13564e-07
1.96823e-06
-4.21874e-07
1.95705e-06
-4.7207e-07
1.94919e-06
-9.48016e-08
1.94127e-06
-1.1293e-07
1.94468e-06
1.36433e-07
1.94304e-06
1.52412e-07
1.95003e-06
2.04561e-07
1.94796e-06
1.61589e-07
1.95035e-06
1.87679e-07
1.94732e-06
1.31288e-07
1.94754e-06
1.61777e-07
1.28749e-07
1.94485e-06
2.03354e-06
-8.57242e-07
2.05106e-06
8.02749e-07
2.06261e-06
4.79544e-07
2.03346e-06
-1.41276e-06
2.02942e-06
-3.82234e-08
2.05401e-06
8.19954e-07
2.05986e-06
5.03695e-07
2.06827e-06
-4.21976e-07
2.04341e-06
-3.9701e-07
2.02964e-06
-4.58304e-07
2.02421e-06
-8.93705e-08
2.01506e-06
-1.03782e-07
2.02024e-06
1.31251e-07
2.01824e-06
1.54416e-07
2.02598e-06
1.96814e-07
2.02471e-06
1.62863e-07
2.02732e-06
1.85069e-07
2.02499e-06
1.33622e-07
2.02558e-06
1.61185e-07
1.31005e-07
2.02332e-06
2.11155e-06
-8.41947e-07
2.13038e-06
7.83911e-07
2.13901e-06
4.70915e-07
2.1103e-06
-1.38404e-06
2.1091e-06
-3.70273e-08
2.13414e-06
7.94914e-07
2.13896e-06
4.98878e-07
2.14594e-06
-4.28956e-07
2.12192e-06
-3.72997e-07
2.10561e-06
-4.41994e-07
2.10232e-06
-8.60735e-08
2.09192e-06
-9.33856e-08
2.09887e-06
1.24301e-07
2.09678e-06
1.56513e-07
2.10497e-06
1.88621e-07
2.10457e-06
1.63258e-07
2.10722e-06
1.82424e-07
2.10544e-06
1.35397e-07
2.10635e-06
1.60277e-07
1.32828e-07
2.10453e-06
2.19228e-06
-8.26644e-07
2.21228e-06
7.63916e-07
2.21876e-06
4.6443e-07
2.1904e-06
-1.35568e-06
2.19143e-06
-3.80575e-08
2.21689e-06
7.69457e-07
2.22105e-06
4.94714e-07
2.2262e-06
-4.34103e-07
2.20374e-06
-3.50536e-07
2.18511e-06
-4.2337e-07
2.18364e-06
-8.45954e-08
2.17199e-06
-8.17449e-08
2.18042e-06
1.15873e-07
2.17844e-06
1.58495e-07
2.18671e-06
1.80356e-07
2.18719e-06
1.62771e-07
2.18975e-06
1.79866e-07
2.18835e-06
1.36797e-07
2.18955e-06
1.59076e-07
1.34222e-07
2.18816e-06
2.27585e-06
-8.11106e-07
2.29694e-06
7.42833e-07
2.302e-06
4.5937e-07
2.27381e-06
-1.32749e-06
2.27639e-06
-4.06327e-08
2.3022e-06
7.43645e-07
2.30623e-06
4.90683e-07
2.30909e-06
-4.36966e-07
2.28878e-06
-3.30222e-07
2.2682e-06
-4.02794e-07
2.26827e-06
-8.46632e-08
2.25548e-06
-6.89575e-08
2.26487e-06
1.06485e-07
2.26315e-06
1.60212e-07
2.27108e-06
1.72432e-07
2.27236e-06
1.61491e-07
2.27475e-06
1.7747e-07
2.27348e-06
1.38069e-07
2.27503e-06
1.57526e-07
1.35202e-07
2.27405e-06
2.36241e-06
-7.95135e-07
2.38459e-06
7.20657e-07
2.38883e-06
4.55131e-07
2.36058e-06
-1.29925e-06
2.36406e-06
-4.41127e-08
2.39012e-06
7.17585e-07
2.3946e-06
4.86211e-07
2.39471e-06
-4.37078e-07
2.37699e-06
-3.125e-07
2.35489e-06
-3.80701e-07
2.35629e-06
-8.60589e-08
2.34261e-06
-5.52748e-08
2.35231e-06
9.67814e-08
2.35098e-06
1.6154e-07
2.35816e-06
1.65254e-07
2.36006e-06
1.59592e-07
2.36215e-06
1.75381e-07
2.36069e-06
1.39525e-07
2.36283e-06
1.55383e-07
1.35807e-07
2.36223e-06
2.45212e-06
-7.78578e-07
2.47544e-06
6.97339e-07
2.47935e-06
4.51223e-07
2.45079e-06
-1.2707e-06
2.45465e-06
-4.79658e-08
2.4808e-06
6.91433e-07
2.48626e-06
4.8075e-07
2.48322e-06
-4.3404e-07
2.46834e-06
-2.97619e-07
2.44518e-06
-3.57544e-07
2.44772e-06
-8.85927e-08
2.43355e-06
-4.11116e-08
2.44292e-06
8.74104e-08
2.4421e-06
1.6237e-07
2.44817e-06
1.5918e-07
2.45052e-06
1.57244e-07
2.45163e-06
1.7427e-07
2.44992e-06
1.41233e-07
2.45316e-06
1.52139e-07
1.36104e-07
2.45287e-06
2.54514e-06
-7.61315e-07
2.56965e-06
6.72823e-07
2.57362e-06
4.47255e-07
2.54452e-06
-1.24159e-06
2.54835e-06
-5.18025e-08
2.57439e-06
6.65396e-07
2.58132e-06
4.73819e-07
2.57487e-06
-4.27584e-07
2.5629e-06
-2.85651e-07
2.53907e-06
-3.33719e-07
2.54256e-06
-9.20741e-08
2.52842e-06
-2.69733e-08
2.53692e-06
7.89047e-08
2.53667e-06
1.62625e-07
2.54142e-06
1.54433e-07
2.544e-06
1.54656e-07
2.54935e-06
1.6892e-07
2.55002e-06
1.40568e-07
2.54636e-06
1.55801e-07
1.36181e-07
2.54628e-06
2.64162e-06
-7.4326e-07
2.66738e-06
6.47069e-07
2.67172e-06
4.42912e-07
2.64184e-06
-1.21171e-06
2.64543e-06
-5.53945e-08
2.67109e-06
6.39736e-07
2.67989e-06
4.65018e-07
2.66993e-06
-4.1762e-07
2.66077e-06
-2.76494e-07
2.63661e-06
-3.09556e-07
2.64079e-06
-9.62597e-08
2.62726e-06
-1.34406e-08
2.63447e-06
7.16983e-08
2.63488e-06
1.62217e-07
2.63863e-06
1.50678e-07
2.63933e-06
1.53961e-07
2.63996e-06
1.68285e-07
2.63828e-06
1.42252e-07
2.64272e-06
1.51359e-07
1.3603e-07
2.64287e-06
2.74175e-06
-7.24358e-07
2.76875e-06
6.20074e-07
2.7737e-06
4.37954e-07
2.74285e-06
-1.18086e-06
2.74612e-06
-5.86676e-08
2.77114e-06
6.14721e-07
2.78205e-06
4.54103e-07
2.76872e-06
-4.0429e-07
2.76207e-06
-2.69844e-07
2.73792e-06
-2.85399e-07
2.74236e-06
-1.007e-07
2.73022e-06
-1.30418e-09
2.73556e-06
6.63607e-08
2.73705e-06
1.60724e-07
2.73962e-06
1.48111e-07
2.73909e-06
1.54493e-07
2.73871e-06
1.68656e-07
2.73662e-06
1.44348e-07
2.74289e-06
1.4509e-07
1.35949e-07
2.74297e-06
2.8457e-06
-7.04595e-07
2.87389e-06
5.91878e-07
2.87964e-06
4.32209e-07
2.84763e-06
-1.14885e-06
2.85067e-06
-6.17025e-08
2.87476e-06
5.90624e-07
2.88791e-06
4.40953e-07
2.87153e-06
-3.87902e-07
2.86695e-06
-2.65263e-07
2.84315e-06
-2.61606e-07
2.84727e-06
-1.04814e-07
2.83736e-06
8.60429e-09
2.84026e-06
6.34626e-08
2.8432e-06
1.57779e-07
2.84564e-06
1.45669e-07
2.85175e-06
1.48386e-07
2.85663e-06
1.63776e-07
2.85641e-06
1.44569e-07
2.84725e-06
1.54253e-07
1.36296e-07
2.8469e-06
2.95365e-06
-6.83997e-07
2.98296e-06
5.62569e-07
2.98959e-06
4.2557e-07
2.95627e-06
-1.11553e-06
2.95928e-06
-6.4717e-08
2.98223e-06
5.67681e-07
2.99758e-06
4.25599e-07
2.97857e-06
-3.6889e-07
2.97559e-06
-2.62283e-07
2.95242e-06
-2.38439e-07
2.95575e-06
-1.08141e-07
2.94856e-06
1.57974e-08
2.94902e-06
6.29938e-08
2.95327e-06
1.53534e-07
2.95066e-06
1.48281e-07
2.95071e-06
1.48335e-07
2.94861e-06
1.65878e-07
2.94556e-06
1.4761e-07
2.95541e-06
1.44403e-07
1.3659e-07
2.95512e-06
3.0658e-06
-6.62638e-07
3.09609e-06
5.32277e-07
3.10367e-06
4.17987e-07
3.06887e-06
-1.08072e-06
3.07215e-06
-6.79978e-08
3.09379e-06
5.46041e-07
3.11118e-06
4.08212e-07
3.09007e-06
-3.47777e-07
3.0882e-06
-2.60414e-07
3.0658e-06
-2.16048e-07
3.06815e-06
-1.10487e-07
3.06339e-06
2.05574e-08
3.06253e-06
6.38583e-08
3.06757e-06
1.48492e-07
3.06987e-06
1.45982e-07
3.07758e-06
1.40621e-07
3.08207e-06
1.61393e-07
3.08158e-06
1.48094e-07
3.06811e-06
1.57874e-07
1.36992e-07
3.06771e-06
3.18236e-06
-6.40634e-07
3.21344e-06
5.0119e-07
3.22202e-06
4.09415e-07
3.18555e-06
-1.04426e-06
3.18946e-06
-7.19035e-08
3.20968e-06
5.25822e-07
3.2289e-06
3.88989e-07
3.20614e-06
-3.25012e-07
3.20506e-06
-2.59337e-07
3.18339e-06
-1.94382e-07
3.18495e-06
-1.12046e-07
3.18096e-06
2.45547e-08
3.18194e-06
6.28769e-08
3.18497e-06
1.45458e-07
3.18768e-06
1.43277e-07
3.17881e-06
1.49484e-07
3.17678e-06
1.63421e-07
3.17625e-06
1.48633e-07
3.18434e-06
1.49778e-07
1.36248e-07
3.18509e-06
3.30351e-06
-6.18129e-07
3.33518e-06
4.69517e-07
3.34474e-06
3.99857e-07
3.30652e-06
-1.00604e-06
3.31129e-06
-7.66696e-08
3.33022e-06
5.06889e-07
3.35079e-06
3.68412e-07
3.32717e-06
-3.01385e-07
3.32606e-06
-2.58233e-07
3.30599e-06
-1.74311e-07
3.30558e-06
-1.1163e-07
3.30385e-06
2.62825e-08
3.30419e-06
6.25381e-08
3.30134e-06
1.48307e-07
3.29889e-06
1.45727e-07
3.29848e-06
1.49898e-07
3.29747e-06
1.64427e-07
3.29637e-06
1.49736e-07
3.30595e-06
1.40197e-07
1.35348e-07
3.30685e-06
3.42945e-06
-5.95295e-07
3.46147e-06
4.37497e-07
3.47202e-06
3.89308e-07
3.43199e-06
-9.66013e-07
3.43774e-06
-8.24164e-08
3.45567e-06
4.8895e-07
3.47696e-06
3.47131e-07
3.45348e-06
-2.77909e-07
3.45124e-06
-2.55997e-07
3.43405e-06
-1.57122e-07
3.42996e-06
-1.07535e-07
3.43191e-06
2.43354e-08
3.42699e-06
6.74545e-08
3.43943e-06
1.35872e-07
3.44179e-06
1.43358e-07
3.44825e-06
1.4344e-07
3.45375e-06
1.5893e-07
3.45245e-06
1.51033e-07
3.43332e-06
1.59335e-07
1.35633e-07
3.43303e-06
3.56037e-06
-5.7232e-07
3.59245e-06
4.05413e-07
3.60415e-06
3.77614e-07
3.56208e-06
-9.23947e-07
3.56909e-06
-8.94242e-08
3.58597e-06
4.72071e-07
3.608e-06
3.25103e-07
3.58442e-06
-2.54328e-07
3.58196e-06
-2.53539e-07
3.56539e-06
-1.40554e-07
3.56175e-06
-1.039e-07
3.56107e-06
2.50203e-08
3.56104e-06
6.74861e-08
3.55788e-06
1.39034e-07
3.55557e-06
1.45666e-07
3.55266e-06
1.4635e-07
3.55208e-06
1.59509e-07
3.55311e-06
1.50006e-07
3.56315e-06
1.49291e-07
1.34181e-07
3.5646e-06
3.69643e-06
-5.4936e-07
3.72834e-06
3.73501e-07
3.74123e-06
3.64722e-07
3.69719e-06
-8.7991e-07
3.70529e-06
-9.75236e-08
3.72157e-06
4.55796e-07
3.7436e-06
3.03072e-07
3.72096e-06
-2.31693e-07
3.71713e-06
-2.49703e-07
3.70272e-06
-1.26149e-07
3.69752e-06
-9.86951e-08
3.69784e-06
2.46975e-08
3.70023e-06
6.5095e-08
3.69297e-06
1.46298e-07
3.69041e-06
1.48219e-07
3.68756e-06
1.49206e-07
3.68652e-06
1.60546e-07
3.68721e-06
1.49321e-07
3.69931e-06
1.37191e-07
1.32805e-07
3.70068e-06
3.83778e-06
-5.26553e-07
3.8693e-06
3.41981e-07
3.88347e-06
3.50559e-07
3.83763e-06
-8.34073e-07
3.84646e-06
-1.06353e-07
3.86278e-06
4.39472e-07
3.88364e-06
2.82212e-07
3.86368e-06
-2.1173e-07
3.85645e-06
-2.42477e-07
3.84675e-06
-1.16446e-07
3.83464e-06
-8.65864e-08
3.83992e-06
1.94183e-08
3.83236e-06
7.26531e-08
3.85189e-06
1.26765e-07
3.85593e-06
1.44179e-07
3.86237e-06
1.42769e-07
3.86807e-06
1.54846e-07
3.86563e-06
1.51766e-07
3.84239e-06
1.60426e-07
1.33941e-07
3.84125e-06
3.98464e-06
-5.04043e-07
4.01544e-06
3.11182e-07
4.03129e-06
3.34708e-07
3.98334e-06
-7.86124e-07
3.99316e-06
-1.16167e-07
4.00902e-06
4.2361e-07
4.02994e-06
2.61293e-07
4.00967e-06
-1.91461e-07
4.00421e-06
-2.3702e-07
3.99154e-06
-1.03774e-07
3.98669e-06
-8.17357e-08
3.98948e-06
1.6625e-08
3.99195e-06
7.01897e-08
3.97836e-06
1.40348e-07
3.9754e-06
1.47139e-07
3.97238e-06
1.45792e-07
3.97158e-06
1.55652e-07
3.97434e-06
1.49006e-07
3.98644e-06
1.48322e-07
1.32142e-07
3.98824e-06
4.13714e-06
-4.81896e-07
4.16704e-06
2.81273e-07
4.18447e-06
3.17284e-07
4.13497e-06
-7.36623e-07
4.14519e-06
-1.26392e-07
4.16131e-06
4.07497e-07
4.18098e-06
2.41616e-07
4.16197e-06
-1.72446e-07
4.15661e-06
-2.31662e-07
4.14345e-06
-9.06094e-08
4.13932e-06
-7.76135e-08
4.12907e-06
2.68785e-08
4.12747e-06
7.17853e-08
4.1274e-06
1.40419e-07
4.12635e-06
1.48194e-07
4.12338e-06
1.48764e-07
4.12221e-06
1.56821e-07
4.12439e-06
1.46825e-07
4.13852e-06
1.34188e-07
1.30653e-07
4.14001e-06
4.29546e-06
-4.60167e-07
4.32433e-06
2.52399e-07
4.34311e-06
2.98504e-07
4.29287e-06
-6.8638e-07
4.30256e-06
-1.36086e-07
4.32022e-06
3.89845e-07
4.33614e-06
2.25687e-07
4.32186e-06
-1.58161e-07
4.31203e-06
-2.2183e-07
4.3044e-06
-8.29842e-08
4.28915e-06
-6.23576e-08
4.30423e-06
1.17939e-08
4.30587e-06
7.01463e-08
4.31363e-06
1.32658e-07
4.3172e-06
1.44628e-07
4.32521e-06
1.40755e-07
4.33122e-06
1.50805e-07
4.32663e-06
1.51421e-07
4.29944e-06
1.61378e-07
1.33658e-07
4.29643e-06
4.45988e-06
-4.38966e-07
4.48731e-06
2.24973e-07
4.5078e-06
2.78014e-07
4.45665e-06
-6.35228e-07
4.46645e-06
-1.45888e-07
4.48403e-06
3.72267e-07
4.50037e-06
2.09349e-07
4.48299e-06
-1.40784e-07
4.47876e-06
-2.17602e-07
4.46458e-06
-6.87994e-08
4.46218e-06
-5.99614e-08
4.45048e-06
2.3497e-08
4.44962e-06
7.10068e-08
4.44537e-06
1.36909e-07
4.44546e-06
1.44532e-07
4.44249e-06
1.43731e-07
4.44218e-06
1.51113e-07
4.4457e-06
1.47901e-07
4.45949e-06
1.47581e-07
1.32268e-07
4.46088e-06
4.63053e-06
-4.18291e-07
4.65655e-06
1.98955e-07
4.67826e-06
2.56308e-07
4.62729e-06
-5.84264e-07
4.63594e-06
-1.54535e-07
4.65539e-06
3.52813e-07
4.66793e-06
1.96807e-07
4.65335e-06
-1.26203e-07
4.64792e-06
-2.12167e-07
4.63276e-06
-5.36457e-08
4.62239e-06
-4.95892e-08
4.61915e-06
2.67362e-08
4.62141e-06
6.87537e-08
4.61373e-06
1.44586e-07
4.61461e-06
1.43649e-07
4.61195e-06
1.46397e-07
4.6111e-06
1.51958e-07
4.6139e-06
1.45104e-07
4.62964e-06
1.31836e-07
1.31528e-07
4.63038e-06
4.80765e-06
-3.98157e-07
4.83227e-06
1.74342e-07
4.85481e-06
2.33769e-07
4.80505e-06
-5.34506e-07
4.81091e-06
-1.60393e-07
4.83587e-06
3.27847e-07
4.83986e-06
1.92822e-07
4.83464e-06
-1.2099e-07
4.81752e-06
-1.95041e-07
4.82011e-06
-5.62412e-08
4.79543e-06
-2.49002e-08
4.80226e-06
1.99036e-08
4.80179e-06
6.92229e-08
4.82676e-06
1.19615e-07
4.83428e-06
1.36128e-07
4.84416e-06
1.36523e-07
4.84949e-06
1.46626e-07
4.84186e-06
1.5273e-07
4.81139e-06
1.62311e-07
1.38068e-07
4.80485e-06
4.99162e-06
-3.78706e-07
5.01431e-06
1.51654e-07
5.03819e-06
2.09886e-07
4.98897e-06
-4.85284e-07
4.9943e-06
-1.6572e-07
5.01766e-06
3.04485e-07
5.02477e-06
1.85714e-07
5.01289e-06
-1.09112e-07
5.00152e-06
-1.83669e-07
4.99402e-06
-4.87409e-08
4.9799e-06
-1.07873e-08
4.97666e-06
2.31415e-08
4.97651e-06
6.93759e-08
4.97385e-06
1.22275e-07
4.97212e-06
1.37861e-07
4.97254e-06
1.36099e-07
4.96976e-06
1.49411e-07
4.9721e-06
1.5039e-07
4.98916e-06
1.45249e-07
1.38189e-07
4.98904e-06
5.18249e-06
-3.59879e-07
5.20371e-06
1.30427e-07
5.22799e-06
1.85606e-07
5.18063e-06
-4.37916e-07
5.18387e-06
-1.68961e-07
5.20719e-06
2.81164e-07
5.21679e-06
1.7611e-07
5.19875e-06
-9.10673e-08
5.19466e-06
-1.79579e-07
5.18215e-06
-3.62343e-08
5.17186e-06
-4.93264e-10
5.1638e-06
3.11949e-08
5.16566e-06
6.75229e-08
5.16367e-06
1.24257e-07
5.16298e-06
1.3855e-07
5.16135e-06
1.37731e-07
5.16597e-06
1.44788e-07
5.17095e-06
1.45415e-07
5.17671e-06
1.3949e-07
1.35271e-07
5.17963e-06
5.38062e-06
-3.41723e-07
5.40036e-06
1.10687e-07
5.42475e-06
1.61221e-07
5.38029e-06
-3.93463e-07
5.37913e-06
-1.67799e-07
5.40546e-06
2.54833e-07
5.4125e-06
1.69074e-07
5.39603e-06
-7.4596e-08
5.38637e-06
-1.6992e-07
5.3799e-06
-2.97668e-08
5.36796e-06
1.14493e-08
5.3605e-06
3.86528e-08
5.36101e-06
6.70154e-08
5.36155e-06
1.23711e-07
5.36045e-06
1.39653e-07
5.36002e-06
1.38156e-07
5.36586e-06
1.38956e-07
5.37063e-06
1.40648e-07
5.37318e-06
1.36936e-07
1.31601e-07
5.37685e-06
5.58631e-06
-3.24292e-07
5.60449e-06
9.25014e-08
5.62888e-06
1.3683e-07
5.5877e-06
-3.5228e-07
5.5825e-06
-1.62595e-07
5.60954e-06
2.27791e-07
5.61663e-06
1.61982e-07
5.6003e-06
-5.82676e-08
5.58825e-06
-1.57871e-07
5.5846e-06
-2.61126e-08
5.5724e-06
2.36429e-08
5.5651e-06
4.59602e-08
5.56453e-06
6.75858e-08
5.56645e-06
1.21787e-07
5.56597e-06
1.40134e-07
5.56608e-06
1.38046e-07
5.56985e-06
1.35185e-07
5.57276e-06
1.37735e-07
5.57764e-06
1.32056e-07
1.2758e-07
5.58166e-06
5.79974e-06
-3.07555e-07
5.81681e-06
7.54293e-08
5.84044e-06
1.13204e-07
5.8042e-06
-3.16036e-07
5.7939e-06
-1.52294e-07
5.82112e-06
2.00572e-07
5.82814e-06
1.54962e-07
5.81247e-06
-4.26022e-08
5.79861e-06
-1.44014e-07
5.7965e-06
-2.39959e-08
5.78489e-06
3.5245e-08
5.7778e-06
5.30563e-08
5.77616e-06
6.92268e-08
5.77896e-06
1.18989e-07
5.77958e-06
1.39512e-07
5.77954e-06
1.38079e-07
5.78346e-06
1.31268e-07
5.78829e-06
1.32905e-07
5.79023e-06
1.30118e-07
1.23608e-07
5.7942e-06
6.02129e-06
-2.9155e-07
6.03727e-06
5.94526e-08
6.05995e-06
9.05284e-08
6.0293e-06
-2.85393e-07
6.01445e-06
-1.37443e-07
6.0401e-06
1.74925e-07
6.04765e-06
1.47416e-07
6.03273e-06
-2.76906e-08
6.01741e-06
-1.28689e-07
6.01604e-06
-2.26301e-08
6.00596e-06
4.53328e-08
5.99868e-06
6.03289e-08
5.99633e-06
7.15793e-08
5.99943e-06
1.15893e-07
6.00122e-06
1.37721e-07
6.00097e-06
1.38329e-07
6.00281e-06
1.29427e-07
6.00432e-06
1.3139e-07
6.01094e-06
1.23504e-07
1.19698e-07
6.01485e-06
6.25123e-06
-2.7628e-07
6.26625e-06
4.44355e-08
6.28769e-06
6.90872e-08
6.26187e-06
-2.59573e-07
6.24426e-06
-1.1983e-07
6.2671e-06
1.52078e-07
6.27537e-06
1.39149e-07
6.26132e-06
-1.36434e-08
6.24505e-06
-1.12417e-07
6.24382e-06
-2.13989e-08
6.23563e-06
5.35206e-08
6.22795e-06
6.8011e-08
6.22519e-06
7.4339e-08
6.22815e-06
1.12937e-07
6.23091e-06
1.34959e-07
6.23091e-06
1.3833e-07
6.23352e-06
1.26819e-07
6.239e-06
1.25903e-07
6.24029e-06
1.22215e-07
1.15971e-07
6.24402e-06
6.48989e-06
-2.61765e-07
6.50389e-06
3.04332e-08
6.52408e-06
4.88992e-08
6.50208e-06
-2.3757e-07
6.48344e-06
-1.01199e-07
6.5026e-06
1.32923e-07
6.51185e-06
1.29899e-07
6.49868e-06
-4.78977e-10
6.4817e-06
-9.54286e-08
6.48008e-06
-1.9786e-08
6.47396e-06
5.96413e-08
6.46609e-06
7.58844e-08
6.46321e-06
7.72151e-08
6.46559e-06
1.10561e-07
6.46915e-06
1.31401e-07
6.46948e-06
1.37994e-07
6.47003e-06
1.26274e-07
6.47184e-06
1.24095e-07
6.47817e-06
1.15885e-07
1.12259e-07
6.48188e-06
6.73756e-06
-2.47989e-07
6.75051e-06
1.7483e-08
6.76943e-06
2.99853e-08
6.75064e-06
-2.18783e-07
6.73221e-06
-8.27676e-08
6.7478e-06
1.17334e-07
6.75727e-06
1.20431e-07
6.74505e-06
1.17416e-08
6.72772e-06
-7.81048e-08
6.72533e-06
-1.73966e-08
6.72126e-06
6.37112e-08
6.71347e-06
8.3674e-08
6.71038e-06
8.03103e-08
6.71205e-06
1.0889e-07
6.71596e-06
1.27487e-07
6.71716e-06
1.36794e-07
6.71905e-06
1.24388e-07
6.72363e-06
1.19517e-07
6.72515e-06
1.1436e-07
1.08451e-07
6.72896e-06
6.99462e-06
-2.34961e-07
7.00633e-06
5.77236e-09
7.02418e-06
1.21395e-08
7.00815e-06
-2.02753e-07
6.9908e-06
-6.54198e-08
7.00303e-06
1.05101e-07
7.01211e-06
1.11356e-07
7.0009e-06
2.29502e-08
6.98346e-06
-6.06658e-08
6.97994e-06
-1.38763e-08
6.97766e-06
6.59875e-08
6.97043e-06
9.09104e-08
6.96711e-06
8.36305e-08
6.96817e-06
1.07822e-07
6.97219e-06
1.2347e-07
6.97434e-06
1.34643e-07
6.97457e-06
1.24155e-07
6.97617e-06
1.17921e-07
6.98136e-06
1.09173e-07
1.04447e-07
6.98536e-06
7.26138e-06
-2.22651e-07
7.2718e-06
-4.64922e-09
7.28872e-06
-4.77885e-09
7.27501e-06
-1.8904e-07
7.26134e-06
-5.17479e-08
7.26882e-06
9.76168e-08
7.27672e-06
1.03457e-07
7.26644e-06
3.32248e-08
7.24918e-06
-4.3404e-08
7.24446e-06
-9.15071e-09
7.24369e-06
6.67514e-08
7.2373e-06
9.73052e-08
7.23365e-06
8.72776e-08
7.23427e-06
1.07202e-07
7.23786e-06
1.19878e-07
7.24092e-06
1.31593e-07
7.24254e-06
1.22534e-07
7.24606e-06
1.14394e-07
7.24749e-06
1.07743e-07
1.00344e-07
7.2516e-06
7.53821e-06
-2.11034e-07
7.54749e-06
-1.39274e-08
7.56325e-06
-2.05336e-08
7.55185e-06
-1.77647e-07
7.54212e-06
-4.20184e-08
7.54435e-06
9.53867e-08
7.55174e-06
9.60692e-08
7.54211e-06
4.28606e-08
7.52516e-06
-2.64547e-08
7.51925e-06
-3.24257e-09
7.51964e-06
6.63616e-08
7.51439e-06
1.02553e-07
7.51043e-06
9.12424e-08
7.51077e-06
1.06858e-07
7.51379e-06
1.16855e-07
7.5175e-06
1.27886e-07
7.51846e-06
1.2157e-07
7.51978e-06
1.13076e-07
7.52382e-06
1.03705e-07
9.64506e-08
7.52771e-06
7.82542e-06
-1.99998e-07
7.83413e-06
-2.26351e-08
7.84773e-06
-3.41384e-08
7.83919e-06
-1.69105e-07
7.82326e-06
-2.6088e-08
7.82922e-06
8.94284e-08
7.83777e-06
8.75171e-08
7.82813e-06
5.25047e-08
7.81187e-06
-1.02009e-08
7.80489e-06
3.7416e-09
7.80587e-06
6.53786e-08
7.8019e-06
1.06523e-07
7.79766e-06
9.54828e-08
7.79794e-06
1.0658e-07
7.80034e-06
1.14458e-07
7.80454e-06
1.23684e-07
7.80667e-06
1.19441e-07
7.80993e-06
1.09809e-07
7.81071e-06
1.02924e-07
9.2905e-08
7.81426e-06
8.12345e-06
-1.89484e-07
8.13157e-06
-3.07599e-08
8.14258e-06
-4.5147e-08
8.13806e-06
-1.64587e-07
8.13238e-06
-2.04047e-08
8.14405e-06
7.77598e-08
8.13656e-06
9.50096e-08
8.12483e-06
6.4227e-08
8.10969e-06
4.94577e-09
8.10175e-06
1.16753e-08
8.10277e-06
6.43611e-08
8.10031e-06
1.08987e-07
8.09601e-06
9.97779e-08
8.09626e-06
1.06329e-07
8.09798e-06
1.12739e-07
8.10205e-06
1.19617e-07
8.10378e-06
1.17712e-07
8.10529e-06
1.083e-07
8.10874e-06
9.94717e-08
8.99586e-08
8.11169e-06
8.43276e-06
-1.7948e-07
8.43976e-06
-3.77607e-08
8.44998e-06
-5.53652e-08
8.44575e-06
-1.60359e-07
8.44014e-06
-1.47929e-08
8.43633e-06
8.15661e-08
8.44084e-06
9.05004e-08
8.43326e-06
7.18043e-08
8.41897e-06
1.92401e-08
8.41032e-06
2.03207e-08
8.41092e-06
6.37633e-08
8.40996e-06
1.0995e-07
8.40583e-06
1.03902e-07
8.40584e-06
1.06322e-07
8.4071e-06
1.11475e-07
8.411e-06
1.15722e-07
8.41376e-06
1.14952e-07
8.41694e-06
1.0512e-07
8.41808e-06
9.83251e-08
8.75399e-08
8.4205e-06
8.75361e-06
-1.69808e-07
8.7604e-06
-4.45455e-08
8.76739e-06
-6.23546e-08
8.76366e-06
-1.56628e-07
8.75647e-06
-7.60998e-09
8.75495e-06
8.30904e-08