/*--------------------------------*- C++ -*----------------------------------*\
| =========                 |                                                 |
| \\      /  F ield         | OpenFOAM: The Open Source CFD Toolbox           |
|  \\    /   O peration     | Version:  v2012                                 |
|   \\  /    A nd           | Website:  www.openfoam.com                      |
|    \\/     M anipulation  |                                                 |
\*---------------------------------------------------------------------------*/
FoamFile
{
    version     2.0;
    format      ascii;
    class       volVectorField;
    location    "7.5";
    object      U;
}
// * * * * * * * * * * * * * * * * * * * * * * * * * * * * * * * * * * * * * //

dimensions      [0 1 -1 0 0 0 0];


internalField   nonuniform List<vector> 
7000
(
(0.809121 -0.00399925 0)
(1.3216 0.00790697 0)
(0.728426 0.000200015 0)
(1.06443 -0.0155983 0)
(0.988826 0.00415066 0)
(1.17709 0.00895228 0)
(0.724356 0.00804179 0)
(1.1904 -0.00704392 0)
(0.72946 -0.0129773 0)
(1.23386 -0.0133473 0)
(0.732164 -0.00602746 0)
(1.24112 0.00158848 0)
(0.772694 0.00223169 0)
(1.19096 0.0107179 0)
(0.808057 0.00523861 0)
(1.1549 0.0096765 0)
(0.835928 0.00484547 0)
(1.13245 0.00730083 0)
(0.856083 0.00498911 0)
(1.11671 0.00662031 0)
(0.816851 -0.00471112 0)
(1.31299 0.00840208 0)
(0.755965 0.00143983 0)
(1.05655 -0.0170732 0)
(0.990556 0.00305624 0)
(1.16908 0.011004 0)
(0.75048 0.0075899 0)
(1.16721 -0.00664288 0)
(0.763622 -0.0140749 0)
(1.21032 -0.0127701 0)
(0.758697 -0.0067678 0)
(1.2165 0.00150727 0)
(0.804651 0.00250112 0)
(1.15889 0.0105639 0)
(0.854124 0.00565343 0)
(1.10847 0.00923962 0)
(0.898534 0.00547849 0)
(1.067 0.00639581 0)
(0.937144 0.00606677 0)
(1.02905 0.00536308 0)
(0.832015 -0.00539763 0)
(1.29377 0.00902353 0)
(0.801596 0.00244999 0)
(1.04351 -0.0182476 0)
(0.994763 0.00217241 0)
(1.15288 0.0130772 0)
(0.798442 0.00728859 0)
(1.13452 -0.00636957 0)
(0.817519 -0.0149759 0)
(1.17022 -0.0122228 0)
(0.81254 -0.00739824 0)
(1.16873 0.00137144 0)
(0.866313 0.00306268 0)
(1.10206 0.0100492 0)
(0.920415 0.00647066 0)
(1.04754 0.00840599 0)
(0.960136 0.00639383 0)
(1.01139 0.00539476 0)
(0.984184 0.00702932 0)
(0.98956 0.00480056 0)
(0.853633 -0.00599625 0)
(1.26367 0.00939139 0)
(0.855475 0.00346975 0)
(1.02748 -0.0191177 0)
(1.00097 0.00148373 0)
(1.13093 0.014555 0)
(0.85722 0.00725435 0)
(1.09866 -0.00627994 0)
(0.877909 -0.0155663 0)
(1.11977 -0.0119258 0)
(0.878353 -0.00761735 0)
(1.11011 0.000899982 0)
(0.931208 0.0039112 0)
(1.04701 0.00929832 0)
(0.970145 0.0073993 0)
(1.00707 0.00762661 0)
(0.990486 0.00716826 0)
(0.988814 0.00480133 0)
(0.99768 0.00768048 0)
(0.981249 0.00476925 0)
(0.879766 -0.00655308 0)
(1.22422 0.00951389 0)
(0.908632 0.00449475 0)
(1.01208 -0.0197497 0)
(1.00762 0.000787321 0)
(1.10708 0.0155505 0)
(0.91486 0.00742928 0)
(1.06659 -0.0063045 0)
(0.930698 -0.0158289 0)
(1.07059 -0.0118861 0)
(0.935607 -0.00752598 0)
(1.05944 0.00021271 0)
(0.977724 0.0048112 0)
(1.01431 0.00872366 0)
(0.994948 0.00813011 0)
(0.993729 0.00719813 0)
(0.999767 0.00766527 0)
(0.987617 0.00455347 0)
(0.99913 0.00809692 0)
(0.984882 0.00493611 0)
(0.907673 -0.00704685 0)
(1.17874 0.00947913 0)
(0.95393 0.0054546 0)
(1.00063 -0.0201639 0)
(1.01263 0.00012139 0)
(1.08514 0.0161608 0)
(0.962088 0.00775263 0)
(1.04371 -0.00634937 0)
(0.967776 -0.0157976 0)
(1.03317 -0.0120099 0)
(0.972691 -0.00733229 0)
(1.0277 -0.00043541 0)
(1.00197 0.00550606 0)
(1.00458 0.0084651 0)
(1.00448 0.00860729 0)
(0.996332 0.00701603 0)
(1.00249 0.007988 0)
(0.994074 0.00444284 0)
(0.999664 0.0084068 0)
(0.991347 0.00514461 0)
(0.934423 -0.00744725 0)
(1.13182 0.00933569 0)
(0.987319 0.00627083 0)
(0.994785 -0.0203784 0)
(1.01432 -0.000465784 0)
(1.06731 0.0164407 0)
(0.994631 0.00813631 0)
(1.03103 -0.00634292 0)
(0.989197 -0.0155505 0)
(1.01098 -0.0121872 0)
(0.990194 -0.00716872 0)
(1.01312 -0.000965757 0)
(1.01093 0.0058965 0)
(1.00705 0.00837954 0)
(1.00878 0.00891915 0)
(1.0036 0.00691424 0)
(1.00512 0.00825695 0)
(1.00098 0.0043816 0)
(1.00172 0.00869555 0)
(0.996973 0.00538252 0)
(0.957643 -0.00774188 0)
(1.08824 0.00912575 0)
(1.00818 0.00689126 0)
(0.99428 -0.0204236 0)
(1.01234 -0.00097027 0)
(1.05347 0.016468 0)
(1.01296 0.00850714 0)
(1.02565 -0.00626564 0)
(0.999773 -0.0151683 0)
(1.00079 -0.0123386 0)
(0.995128 -0.00706202 0)
(1.00749 -0.00144818 0)
(1.01256 0.00602997 0)
(1.01187 0.0082924 0)
(1.01202 0.00915914 0)
(1.00979 0.00683217 0)
(1.00819 0.00853693 0)
(1.00569 0.00437902 0)
(1.00416 0.00899646 0)
(1.0005 0.00566851 0)
(0.976041 -0.00793332 0)
(1.05164 0.00889688 0)
(1.01856 0.00729748 0)
(0.997478 -0.020339 0)
(1.00769 -0.0013868 0)
(1.042 0.0163286 0)
(1.02032 0.00881985 0)
(1.02356 -0.00614898 0)
(1.00472 -0.0147125 0)
(0.997263 -0.0124279 0)
(0.994625 -0.0069726 0)
(1.00399 -0.00194643 0)
(1.0113 0.00599926 0)
(1.01437 0.00812041 0)
(1.01424 0.00937466 0)
(1.01306 0.00676717 0)
(1.01032 0.00884711 0)
(1.00767 0.00445854 0)
(1.00546 0.0093114 0)
(1.0017 0.00600541 0)
(0.989463 -0.00803422 0)
(1.02376 0.00868513 0)
(1.02174 0.00749617 0)
(1.00231 -0.0201639 0)
(1.00208 -0.00170122 0)
(1.03138 0.0160915 0)
(1.02074 0.00905619 0)
(1.02197 -0.00604438 0)
(1.00737 -0.0142248 0)
(0.996463 -0.0124546 0)
(0.993054 -0.00683921 0)
(0.999947 -0.00246452 0)
(1.00862 0.00587108 0)
(1.01369 0.00785699 0)
(1.01451 0.00957141 0)
(1.01335 0.0067233 0)
(1.01049 0.00918049 0)
(1.00716 0.00462553 0)
(1.0049 0.00962988 0)
(1.00082 0.00638386 0)
(0.998567 -0.00806314 0)
(1.00439 0.00850714 0)
(1.021 0.00751736 0)
(1.00708 -0.0199299 0)
(0.996942 -0.00189934 0)
(1.02119 0.0158047 0)
(1.01774 0.009215 0)
(1.01987 -0.00599383 0)
(1.00908 -0.013735 0)
(0.996548 -0.0124323 0)
(0.992106 -0.00662183 0)
(0.995488 -0.00296745 0)
(1.00491 0.00568572 0)
(1.01058 0.00752907 0)
(1.01253 0.00973838 0)
(1.01121 0.00670464 0)
(1.00851 0.00951587 0)
(1.00469 0.00486869 0)
(1.00251 0.00993963 0)
(0.998304 0.00678793 0)
(1.00435 -0.00803953 0)
(0.991977 0.00836472 0)
(1.01873 0.00740407 0)
(1.01082 -0.0196597 0)
(0.993051 -0.00197892 0)
(1.01188 0.015497 0)
(1.01379 0.00930274 0)
(1.01741 -0.00601586 0)
(1.01015 -0.0132617 0)
(0.996872 -0.0123788 0)
(0.991966 -0.0063093 0)
(0.991534 -0.00341224 0)
(1.00058 0.00547898 0)
(1.00614 0.00717147 0)
(1.00875 0.00986805 0)
(1.00742 0.00671721 0)
(1.00489 0.00982841 0)
(1.00093 0.00516897 0)
(0.998839 0.0102292 0)
(0.99474 0.00719984 0)
(1.00775 -0.00797965 0)
(0.984578 0.00825199 0)
(1.01628 0.00719681 0)
(1.01318 -0.0193676 0)
(0.99047 -0.0019529 0)
(1.00409 0.0151819 0)
(1.01019 0.00932931 0)
(1.01507 -0.00610682 0)
(1.01055 -0.0128117 0)
(0.997182 -0.0123102 0)
(0.992272 -0.00591376 0)
(0.988658 -0.00376685 0)
(0.996141 0.0052855 0)
(1.00131 0.00681659 0)
(1.00404 0.00995919 0)
(1.00284 0.00676684 0)
(1.00044 0.0101012 0)
(0.996585 0.00550976 0)
(0.994582 0.0104906 0)
(0.990764 0.00760556 0)
(1.00945 -0.00789496 0)
(0.980501 0.00816007 0)
(1.01416 0.00692863 0)
(1.01423 -0.0190616 0)
(0.988871 -0.00184444 0)
(0.998116 0.0148642 0)
(1.00736 0.00930526 0)
(1.01324 -0.00625075 0)
(1.0103 -0.0123816 0)
(0.997306 -0.0122383 0)
(0.9926 -0.00545854 0)
(0.986909 -0.00401641 0)
(0.992064 0.00513009 0)
(0.996738 0.00649162 0)
(0.999195 0.0100117 0)
(0.998199 0.00685633 0)
(0.995956 0.0103275 0)
(0.992347 0.00588048 0)
(0.99044 0.0107213 0)
(0.986992 0.00799713 0)
(1.00989 -0.00779271 0)
(0.978621 0.00807983 0)
(1.01246 0.00662594 0)
(1.01417 -0.0187456 0)
(0.987854 -0.00167754 0)
(0.993885 0.0145445 0)
(1.00526 0.00924017 0)
(1.01203 -0.00642908 0)
(1.00956 -0.0119617 0)
(0.997127 -0.0121686 0)
(0.992652 -0.00497041 0)
(0.986035 -0.00416261 0)
(0.9886 0.00502248 0)
(0.992769 0.00621732 0)
(0.99482 0.0100234 0)
(0.994022 0.00698334 0)
(0.992032 0.0105032 0)
(0.988755 0.00627078 0)
(0.986963 0.0109241 0)
(0.983936 0.00837176 0)
(1.00933 -0.00767757 0)
(0.978322 0.00800289 0)
(1.01112 0.00631062 0)
(1.01325 -0.0184213 0)
(0.987142 -0.00147513 0)
(0.991158 0.0142218 0)
(1.00372 0.00914198 0)
(1.01139 -0.00662706 0)
(1.00855 -0.0115397 0)
(0.996601 -0.0120986 0)
(0.9923 -0.00447678 0)
(0.985739 -0.00421598 0)
(0.98584 0.00495984 0)
(0.989528 0.00600731 0)
(0.991238 0.00998935 0)
(0.990622 0.00714126 0)
(0.98902 0.0106226 0)
(0.986143 0.00666312 0)
(0.984496 0.0111011 0)
(0.981926 0.00873044 0)
(1.008 -0.00755323 0)
(0.979272 0.00792207 0)
(1.01005 0.00600042 0)
(1.0117 -0.01809 0)
(0.986639 -0.00125806 0)
(0.989717 0.0138951 0)
(1.00264 0.00901886 0)
(1.01116 -0.00683449 0)
(1.00749 -0.0111042 0)
(0.995766 -0.01202 0)
(0.991576 -0.00400013 0)
(0.985797 -0.004192 0)
(0.983798 0.0049286 0)
(0.987043 0.00586731 0)
(0.988588 0.00990371 0)
(0.988137 0.00732068 0)
(0.987051 0.0106838 0)
(0.984639 0.00703521 0)
(0.983171 0.0112489 0)
(0.981085 0.00907283 0)
(1.00618 -0.00742329 0)
(0.981187 0.00783141 0)
(1.00922 0.00571079 0)
(1.00972 -0.0177527 0)
(0.986376 -0.00104569 0)
(0.989387 0.0135643 0)
(1.00203 0.0088805 0)
(1.01117 -0.0070439 0)
(1.0066 -0.0106466 0)
(0.994721 -0.0119218 0)
(0.990617 -0.0035603 0)
(0.986066 -0.00410438 0)
(0.982458 0.0049096 0)
(0.985317 0.00579441 0)
(0.986897 0.00976201 0)
(0.986598 0.00750762 0)
(0.986101 0.0106913 0)
(0.984204 0.00737012 0)
(0.982948 0.0113612 0)
(0.981352 0.00939497 0)
(1.00416 -0.00729128 0)
(0.983712 0.00772666 0)
(1.00858 0.00545393 0)
(1.00754 -0.0174117 0)
(0.986421 -0.000854481 0)
(0.989974 0.0132283 0)
(1.00191 0.00873728 0)
(1.01127 -0.00725045 0)
(1.00598 -0.0101627 0)
(0.993611 -0.0117909 0)
(0.989614 -0.00317648 0)
(0.986437 -0.00396321 0)
(0.981777 0.00488326 0)
(0.984336 0.00578007 0)
(0.986114 0.00956367 0)
(0.985967 0.00768354 0)
(0.986049 0.010652 0)
(0.984683 0.00765925 0)
(0.983656 0.0114311 0)
(0.982523 0.0096914 0)
(1.00226 -0.00716019 0)
(0.986427 0.00760568 0)
(1.0081 0.00523744 0)
(1.00536 -0.0170698 0)
(0.986799 -0.000697215 0)
(0.991214 0.012886 0)
(1.00222 0.00859957 0)
(1.01134 -0.00744953 0)
(1.00565 -0.00965467 0)
(0.9926 -0.0116125 0)
(0.988747 -0.00286441 0)
(0.986815 -0.00377806 0)
(0.981673 0.004829 0)
(0.984033 0.00581227 0)
(0.986113 0.00931441 0)
(0.986136 0.00783358 0)
(0.986707 0.0105727 0)
(0.98585 0.00790509 0)
(0.985047 0.0114569 0)
(0.98432 0.00995386 0)
(1.0007 -0.00703186 0)
(0.988939 0.00746847 0)
(1.00773 0.00506353 0)
(1.00335 -0.0167297 0)
(0.987462 -0.000582317 0)
(0.992785 0.0125362 0)
(1.00289 0.0084757 0)
(1.01129 -0.00763668 0)
(1.00556 -0.00913015 0)
(0.991826 -0.0113784 0)
(0.988156 -0.00261962 0)
(0.987128 -0.00355098 0)
(0.982014 0.0047285 0)
(0.984271 0.00587488 0)
(0.986691 0.00902036 0)
(0.986921 0.00794882 0)
(0.987834 0.0104615 0)
(0.987443 0.00811161 0)
(0.986829 0.0114526 0)
(0.986438 0.0101828 0)
(0.999563 -0.00690674 0)
(0.990985 0.00731657 0)
(1.00742 0.0049294 0)
(1.00166 -0.0163936 0)
(0.9883 -0.000510159 0)
(0.994365 0.0121799 0)
(1.00376 0.00836896 0)
(1.01112 -0.00780863 0)
(1.00558 -0.00860011 0)
(0.991376 -0.0110833 0)
(0.987915 -0.00244211 0)
(0.987347 -0.00328342 0)
(0.982647 0.0045727 0)
(0.984856 0.00595615 0)
(0.987602 0.00869075 0)
(0.98807 0.00801984 0)
(0.98917 0.0103293 0)
(0.989188 0.00827187 0)
(0.988717 0.0114213 0)
(0.988587 0.0103839 0)
(0.998831 -0.00678399 0)
(0.992472 0.00715198 0)
(1.00717 0.00482886 0)
(1.00034 -0.0160622 0)
(0.989189 -0.00047751 0)
(0.995708 0.0118158 0)
(1.00469 0.00828402 0)
(1.01084 -0.00795746 0)
(1.00558 -0.00808039 0)
(0.991267 -0.0107212 0)
(0.98803 -0.00233464 0)
(0.98751 -0.00298671 0)
(0.983432 0.00435479 0)
(0.985588 0.00604554 0)
(0.988606 0.00834381 0)
(0.98932 0.00804681 0)
(0.990473 0.01019 0)
(0.990837 0.00839155 0)
(0.990465 0.0113573 0)
(0.99053 0.0105467 0)
(0.998402 -0.00666203 0)
(0.993452 0.00697651 0)
(1.00696 0.00475413 0)
(0.999426 -0.0157353 0)
(0.990027 -0.000478436 0)
(0.996677 0.0114435 0)
(1.00558 0.00821535 0)
(1.0105 -0.0080725 0)
(1.00545 -0.0075892 0)
(0.991457 -0.0102987 0)
(0.988445 -0.00227749 0)
(0.987694 -0.00265585 0)
(0.984277 0.00407499 0)
(0.986319 0.00612679 0)
(0.989526 0.00798721 0)
(0.990452 0.00802956 0)
(0.991565 0.0100575 0)
(0.992201 0.00848651 0)
(0.991896 0.0112745 0)
(0.992101 0.0106761 0)
(0.998157 -0.0065391 0)
(0.994049 0.00679127 0)
(1.00679 0.00469731 0)
(0.998884 -0.0154109 0)
(0.990756 -0.000503745 0)
(0.997244 0.0110671 0)
(1.00634 0.00814911 0)
(1.01013 -0.00814966 0)
(1.00514 -0.00713509 0)
(0.991865 -0.0098313 0)
(0.98907 -0.00226423 0)
(0.987984 -0.00227495 0)
(0.985137 0.00375759 0)
(0.986978 0.00619997 0)
(0.990276 0.00763828 0)
(0.99134 0.00795918 0)
(0.992356 0.00992678 0)
(0.99318 0.00856558 0)
(0.992926 0.0111646 0)
(0.993222 0.010773 0)
(0.998001 -0.0064134 0)
(0.994393 0.00659615 0)
(1.00667 0.00465185 0)
(0.998662 -0.0150877 0)
(0.991354 -0.000543697 0)
(0.997454 0.0106844 0)
(1.00695 0.0080832 0)
(1.00978 -0.00818416 0)
(1.00462 -0.00673351 0)
(0.992401 -0.00931084 0)
(0.989802 -0.00229668 0)
(0.988436 -0.00186637 0)
(0.986007 0.00341994 0)
(0.987564 0.00626095 0)
(0.990854 0.00733322 0)
(0.991962 0.00786635 0)
(0.992849 0.00979691 0)
(0.993766 0.00865279 0)
(0.993558 0.0110391 0)
(0.993901 0.010823 0)
(0.997874 -0.00628379 0)
(0.994584 0.00639182 0)
(1.0066 0.00461109 0)
(0.998697 -0.0147624 0)
(0.991828 -0.000592292 0)
(0.997389 0.0103017 0)
(1.00738 0.0079994 0)
(1.00944 -0.00814521 0)
(1.00395 -0.00641143 0)
(0.992987 -0.00875087 0)
(0.990547 -0.00235706 0)
(0.989055 -0.00143774 0)
(0.986894 0.00307823 0)
(0.988115 0.00628314 0)
(0.99131 0.00706484 0)
(0.992367 0.00776624 0)
(0.993109 0.00966906 0)
(0.994028 0.00875341 0)
(0.99386 0.0109392 0)
(0.994209 0.0108588 0)
(0.99775 -0.00614882 0)
(0.994683 0.00617615 0)
(1.00656 0.00457365 0)
(0.99892 -0.014433 0)
(0.992198 -0.000645236 0)
(0.997136 0.00992206 0)
(1.00765 0.00789839 0)
(1.00913 -0.00805759 0)
(1.00316 -0.00612327 0)
(0.993563 -0.00820604 0)
(0.991235 -0.00243258 0)
(0.989803 -0.00101014 0)
(0.987792 0.00279761 0)
(0.98867 0.00625928 0)
(0.991703 0.00684841 0)
(0.992644 0.00764373 0)
(0.993232 0.00954992 0)
(0.994077 0.00881124 0)
(0.993942 0.0108442 0)
(0.994261 0.0108815 0)
(0.997625 -0.00600723 0)
(0.994726 0.00594696 0)
(1.00655 0.0045356 0)
(0.999266 -0.0140991 0)
(0.992486 -0.000682098 0)
(0.996779 0.00952685 0)
(1.00774 0.00778722 0)
(1.00884 -0.00791423 0)
(1.00235 -0.00588848 0)
(0.994083 -0.00764016 0)
(0.991827 -0.00252455 0)
(0.990615 -0.000611509 0)
(0.98868 0.00255735 0)
(0.989246 0.0062403 0)
(0.992084 0.00666406 0)
(0.992873 0.00755652 0)
(0.993309 0.00942935 0)
(0.994028 0.00890999 0)
(0.993926 0.0107394 0)
(0.994178 0.0108814 0)
(0.997504 -0.00586136 0)
(0.994733 0.00571422 0)
(1.00654 0.00448049 0)
(0.999673 -0.0137396 0)
(0.992713 -0.000746576 0)
(0.996393 0.00918607 0)
(1.00768 0.00758293 0)
(1.00855 -0.00765536 0)
(1.00157 -0.00576451 0)
(0.994521 -0.00703136 0)
(0.992307 -0.00267792 0)
(0.991416 -0.000179562 0)
(0.989532 0.00228198 0)
(0.989837 0.0062605 0)
(0.992473 0.00646361 0)
(0.993115 0.00753669 0)
(0.993414 0.00927577 0)
(0.993969 0.00909864 0)
(0.993889 0.0106167 0)
(0.994074 0.010839 0)
(0.997396 -0.0057034 0)
(0.994724 0.0054572 0)
(1.00653 0.00443847 0)
(1.00009 -0.0133972 0)
(0.992894 -0.000766478 0)
(0.996037 0.00879588 0)
(1.00747 0.00742063 0)
(1.00828 -0.00741161 0)
(1.00088 -0.00562118 0)
(0.99486 -0.00648139 0)
(0.992686 -0.00278746 0)
(0.992144 0.000177249 0)
(0.990322 0.00215093 0)
(0.990421 0.00615966 0)
(0.992873 0.00639376 0)
(0.993396 0.00742551 0)
(0.993583 0.00920123 0)
(0.993964 0.00915249 0)
(0.993891 0.0105807 0)
(0.994023 0.0108523 0)
(0.99731 -0.00554537 0)
(0.994719 0.0052041 0)
(1.0065 0.00436605 0)
(1.00047 -0.0130052 0)
(0.993036 -0.000817219 0)
(0.99576 0.00846669 0)
(1.00716 0.00716379 0)
(1.008 -0.00703386 0)
(1.00032 -0.00556913 0)
(0.995102 -0.00588414 0)
(0.992981 -0.00290075 0)
(0.992767 0.000423902 0)
(0.991014 0.00214387 0)
(0.990977 0.00599768 0)
(0.993268 0.00636725 0)
(0.993716 0.00731106 0)
(0.993825 0.00912361 0)
(0.994045 0.00918924 0)
(0.994001 0.010597 0)
(0.994053 0.0108992 0)
(0.997253 -0.00537995 0)
(0.994733 0.00494129 0)
(1.00645 0.00428653 0)
(1.00078 -0.0126075 0)
(0.993149 -0.000880143 0)
(0.995583 0.00817438 0)
(1.00677 0.00685506 0)
(1.00773 -0.00666615 0)
(0.999894 -0.00553019 0)
(0.995255 -0.00536659 0)
(0.993215 -0.00294189 0)
(0.993275 0.000508916 0)
(0.991616 0.00224334 0)
(0.991472 0.00575547 0)
(0.993645 0.00643827 0)
(0.994051 0.00711747 0)
(0.994122 0.00908796 0)
(0.99421 0.00910673 0)
(0.994183 0.0106335 0)
(0.994178 0.0109392 0)
(0.997228 -0.00519408 0)
(0.994782 0.00463525 0)
(1.00636 0.00423622 0)
(1.00101 -0.0122469 0)
(0.993232 -0.00085283 0)
(0.995514 0.00777301 0)
(1.00635 0.00666802 0)
(1.00744 -0.00636792 0)
(0.999622 -0.00540651 0)
(0.995343 -0.00495378 0)
(0.993415 -0.00290998 0)
(0.993671 0.00059336 0)
(0.992122 0.00228858 0)
(0.991905 0.00560467 0)
(0.993981 0.00644688 0)
(0.994386 0.00706009 0)
(0.994451 0.009104 0)
(0.994434 0.00916531 0)
(0.994478 0.0106586 0)
(0.994367 0.010973 0)
(0.997232 -0.00503174 0)
(0.994877 0.00438581 0)
(1.00623 0.00410652 0)
(1.00117 -0.0117544 0)
(0.993302 -0.00098354 0)
(0.995533 0.0075942 0)
(1.00594 0.00620805 0)
(1.00715 -0.00573549 0)
(0.999485 -0.00550529 0)
(0.99538 -0.0042854 0)
(0.993619 -0.00312151 0)
(0.993969 0.000930787 0)
(0.992559 0.00204165 0)
(0.992261 0.00574486 0)
(0.994295 0.00618312 0)
(0.99471 0.00734091 0)
(0.994795 0.00891192 0)
(0.994671 0.00954815 0)
(0.994756 0.010479 0)
(0.994605 0.0107867 0)
(0.997256 -0.0048474 0)
(0.995033 0.00409535 0)
(1.00604 0.00400884 0)
(1.00126 -0.0113182 0)
(0.993371 -0.00105658 0)
(0.995616 0.00732069 0)
(1.00555 0.00587055 0)
(1.00686 -0.00536258 0)
(0.999457 -0.00546824 0)
(0.995394 -0.00385956 0)
(0.993831 -0.00297133 0)
(0.9942 0.000797026 0)
(0.992952 0.00218046 0)
(0.992558 0.00550238 0)
(0.994556 0.00626175 0)
(0.995001 0.00717224 0)
(0.995133 0.00896274 0)
(0.994921 0.00940839 0)
(0.994984 0.0105584 0)
(0.994872 0.0108179 0)
(0.997294 -0.00464551 0)
(0.995246 0.0037588 0)
(1.00582 0.00394118 0)
(1.00131 -0.0109155 0)
(0.993442 -0.00103783 0)
(0.99575 0.00693666 0)
(1.00517 0.00567934 0)
(1.00655 -0.00511357 0)
(0.999522 -0.00524728 0)
(0.99543 -0.00369347 0)
(0.994033 -0.00266966 0)
(0.994409 0.000533604 0)
(0.993292 0.00246282 0)
(0.99282 0.00525866 0)
(0.99478 0.00645483 0)
(0.995282 0.00703083 0)
(0.995438 0.0090299 0)
(0.995163 0.00929443 0)
(0.995301 0.0106445 0)
(0.995102 0.010873 0)
(0.997345 -0.00448801 0)
(0.995497 0.00352696 0)
(1.00556 0.00376097 0)
(1.00132 -0.0103235 0)
(0.993541 -0.00124254 0)
(0.995892 0.0068649 0)
(1.00483 0.00511376 0)
(1.00623 -0.00438541 0)
(0.999649 -0.00539671 0)
(0.995468 -0.00305391 0)
(0.994274 -0.00288256 0)
(0.994602 0.000919581 0)
(0.993626 0.00211516 0)
(0.993043 0.00554111 0)
(0.994972 0.00623718 0)
(0.995499 0.00742835 0)
(0.995715 0.00872097 0)
(0.995372 0.00971432 0)
(0.995519 0.0103746 0)
(0.99532 0.0105704 0)
(0.997397 -0.00429652 0)
(0.99578 0.00322946 0)
(1.00527 0.00363162 0)
(1.0013 -0.00982767 0)
(0.993679 -0.00134014 0)
(0.996035 0.00658284 0)
(1.00452 0.00477553 0)
(1.00591 -0.004078 0)
(0.999815 -0.00524133 0)
(0.995518 -0.00280638 0)
(0.994526 -0.00252312 0)
(0.994794 0.000721221 0)
(0.993957 0.00235814 0)
(0.993278 0.00526951 0)
(0.995136 0.00634592 0)
(0.995685 0.00717341 0)
(0.995964 0.00875007 0)
(0.995565 0.00940907 0)
(0.99561 0.0104822 0)
(0.995507 0.010639 0)
(0.997452 -0.0040939 0)
(0.996081 0.00289644 0)
(1.00497 0.0035326 0)
(1.00128 -0.00938265 0)
(0.993849 -0.00135018 0)
(0.996188 0.00619433 0)
(1.00421 0.00463828 0)
(1.00559 -0.00397614 0)
(0.999985 -0.00485471 0)
(0.995632 -0.0028368 0)
(0.994758 -0.00201394 0)
(0.995029 0.000309072 0)
(0.994266 0.00271035 0)
(0.993499 0.00499159 0)
(0.995284 0.0065407 0)
(0.995886 0.00692705 0)
(0.99618 0.00882848 0)
(0.995769 0.00914257 0)
(0.995867 0.010588 0)
(0.99564 0.0107432 0)
(0.997521 -0.0039475 0)
(0.996361 0.00269363 0)
(1.00467 0.00329476 0)
(1.00124 -0.00868655 0)
(0.994078 -0.00162822 0)
(0.996331 0.00620706 0)
(1.00391 0.00404582 0)
(1.00525 -0.00322562 0)
(1.00017 -0.00505826 0)
(0.99575 -0.00216704 0)
(0.995002 -0.0023456 0)
(0.995263 0.000806116 0)
(0.994603 0.00224133 0)
(0.993739 0.00552071 0)
(0.995431 0.00622283 0)
(0.99606 0.00749616 0)
(0.996395 0.00848296 0)
(0.995951 0.00967167 0)
(0.996006 0.0102297 0)
(0.995769 0.0103539 0)
(0.997587 -0.00376424 0)
(0.996633 0.00241147 0)
(1.00437 0.00312012 0)
(1.00119 -0.00814487 0)
(0.994351 -0.00171858 0)
(0.996458 0.00584792 0)
(1.00363 0.00381516 0)
(1.00492 -0.0030295 0)
(1.00034 -0.00482146 0)
(0.995862 -0.00201527 0)
(0.99525 -0.00190546 0)
(0.99553 0.000646201 0)
(0.994973 0.00239339 0)
(0.994008 0.00526916 0)
(0.995578 0.00636261 0)
(0.996216 0.0072022 0)
(0.996587 0.00853584 0)
(0.996114 0.00930989 0)
(0.995982 0.0103899 0)
(0.995856 0.0105257 0)
(0.997658 -0.00356048 0)
(0.99689 0.00208952 0)
(1.00409 0.00299144 0)
(1.00112 -0.00768115 0)
(0.994642 -0.00174021 0)
(0.996622 0.00544782 0)
(1.00333 0.00374232 0)
(1.00459 -0.0030543 0)
(1.00049 -0.0043712 0)
(0.996052 -0.0020288 0)
(0.995441 -0.00140663 0)
(0.995797 0.000238984 0)
(0.995316 0.00265073 0)
(0.994315 0.00495035 0)
(0.995731 0.00658356 0)
(0.996434 0.00686019 0)
(0.996807 0.00870155 0)
(0.996368 0.00904088 0)
(0.996282 0.0106026 0)
(0.995946 0.0107924 0)
(0.997747 -0.0034522 0)
(0.997105 0.00196328 0)
(1.00383 0.00266449 0)
(1.00103 -0.0068878 0)
(0.994972 -0.00205561 0)
(0.996771 0.00549548 0)
(1.00305 0.00318359 0)
(1.00426 -0.00225092 0)
(1.00063 -0.00475584 0)
(0.99621 -0.00122994 0)
(0.995636 -0.0017183 0)
(0.996083 0.000962668 0)
(0.995704 0.00213055 0)
(0.994633 0.00554279 0)
(0.995906 0.00608197 0)
(0.996649 0.00743677 0)
(0.997056 0.00829416 0)
(0.996594 0.00969315 0)
(0.996439 0.0101188 0)
(0.996028 0.0103515 0)
(0.997828 -0.00324415 0)
(0.997304 0.00165993 0)
(1.00358 0.00250926 0)
(1.00093 -0.00643553 0)
(0.995308 -0.002022 0)
(0.996924 0.0049679 0)
(1.00279 0.0032104 0)
(1.00394 -0.0022674 0)
(1.00076 -0.00433486 0)
(0.99639 -0.00126609 0)
(0.99583 -0.00102958 0)
(0.996342 0.000811052 0)
(0.996098 0.00230608 0)
(0.994973 0.00515173 0)
(0.996088 0.00604615 0)
(0.996859 0.00702023 0)
(0.997318 0.00825851 0)
(0.996804 0.00938486 0)
(0.996419 0.0103374 0)
(0.996114 0.0106956 0)
(0.997904 -0.00308427 0)
(0.997508 0.00142978 0)
(1.00334 0.00229069 0)
(1.00084 -0.00590459 0)
(0.99563 -0.00206015 0)
(0.997124 0.00450895 0)
(1.0025 0.00326955 0)
(1.00365 -0.00240014 0)
(1.00086 -0.00376488 0)
(0.996617 -0.00144572 0)
(0.995979 -0.000308004 0)
(0.996607 0.000419135 0)
(0.996468 0.00263358 0)
(0.99532 0.00454719 0)
(0.996294 0.00612917 0)
(0.997162 0.00641581 0)
(0.997662 0.00825551 0)
(0.997189 0.00898123 0)
(0.99684 0.0107406 0)
(0.996194 0.0112582 0)
(0.998003 -0.00298253 0)
(0.997666 0.00133397 0)
(1.00315 0.0019487 0)
(1.00072 -0.0051878 0)
(0.995959 -0.00228688 0)
(0.997319 0.00439899 0)
(1.00224 0.00290099 0)
(1.00334 -0.00177481 0)
(1.00096 -0.00392243 0)
(0.996857 -0.000925166 0)
(0.996139 -0.000210181 0)
(0.996842 0.000867914 0)
(0.996833 0.00229058 0)
(0.995663 0.00476945 0)
(0.996503 0.00594258 0)
(0.997426 0.0066445 0)
(0.998033 0.00793263 0)
(0.997604 0.00921408 0)
(0.997193 0.0103819 0)
(0.996293 0.0109793 0)
(0.998098 -0.00275811 0)
(0.997816 0.00102641 0)
(1.00296 0.00180967 0)
(1.00063 -0.00482319 0)
(0.996278 -0.0021314 0)
(0.997504 0.00387089 0)
(1.00201 0.00285748 0)
(1.00304 -0.00149805 0)
(1.00105 -0.00373024 0)
(0.997106 -0.000761639 0)
(0.996294 0.000130154 0)
(0.99704 0.00110804 0)
(0.997215 0.00223207 0)
(0.996063 0.00482116 0)
(0.996739 0.00602335 0)
(0.99769 0.00673827 0)
(0.998416 0.0077811 0)
(0.997989 0.00910625 0)
(0.997482 0.00999089 0)
(0.996392 0.0106403 0)
(0.998191 -0.00268167 0)
(0.997957 0.000939302 0)
(1.00279 0.00148369 0)
(1.00053 -0.00421915 0)
(0.996569 -0.00219113 0)
(0.99771 0.00352011 0)
(1.00178 0.00277165 0)
(1.00274 -0.00125907 0)
(1.00114 -0.0034724 0)
(0.997378 -0.000656221 0)
(0.996463 0.000498525 0)
(0.997233 0.00132001 0)
(0.997585 0.00226224 0)
(0.996476 0.00469903 0)
(0.996987 0.00605942 0)
(0.997924 0.00672779 0)
(0.998773 0.0076047 0)
(0.99836 0.00885143 0)
(0.99779 0.00965435 0)
(0.99654 0.01035 0)
(0.998282 -0.00250863 0)
(0.998091 0.000749045 0)
(1.00262 0.00127616 0)
(1.00044 -0.00382585 0)
(0.996842 -0.00203498 0)
(0.997914 0.00312316 0)
(1.00157 0.00258029 0)
(1.00245 -0.000926909 0)
(1.00121 -0.00315924 0)
(0.997667 -0.000593632 0)
(0.99664 0.000822187 0)
(0.997391 0.00148269 0)
(0.997935 0.0022616 0)
(0.99692 0.00459377 0)
(0.997276 0.00610913 0)
(0.998159 0.00682668 0)
(0.999121 0.00751248 0)
(0.99873 0.00864148 0)
(0.998101 0.00936939 0)
(0.996695 0.0100415 0)
(0.99837 -0.00239142 0)
(0.998219 0.000607447 0)
(1.00248 0.00101512 0)
(1.00037 -0.00342024 0)
(0.997092 -0.00189027 0)
(0.998108 0.00270955 0)
(1.0014 0.00251243 0)
(1.00218 -0.000613185 0)
(1.00126 -0.0028976 0)
(0.997967 -0.000567212 0)
(0.996835 0.00113255 0)
(0.997544 0.00170171 0)
(0.998284 0.00237613 0)
(0.997384 0.00451855 0)
(0.997599 0.00610527 0)
(0.998372 0.00687923 0)
(0.999412 0.00732028 0)
(0.999067 0.00834951 0)
(0.9984 0.00900568 0)
(0.996864 0.00969926 0)
(0.998458 -0.00226719 0)
(0.99834 0.00046677 0)
(1.00234 0.000809468 0)
(1.0003 -0.00311324 0)
(0.997321 -0.00166086 0)
(0.998311 0.00238161 0)
(1.00124 0.00236218 0)
(1.0019 -0.000387551 0)
(1.0013 -0.00255722 0)
(0.998292 -0.000509866 0)
(0.997056 0.00137289 0)
(0.99768 0.00190846 0)
(0.998598 0.00247036 0)
(0.997838 0.0044078 0)
(0.997946 0.00599721 0)
(0.998566 0.0068714 0)
(0.999675 0.00716286 0)
(0.999404 0.00808636 0)
(0.998721 0.00868934 0)
(0.997075 0.00940101 0)
(0.998543 -0.00214461 0)
(0.998457 0.000339481 0)
(1.00221 0.000591253 0)
(1.00025 -0.00285265 0)
(0.997537 -0.0014171 0)
(0.998484 0.00205758 0)
(1.00112 0.00221047 0)
(1.00166 -0.000118511 0)
(1.00133 -0.00216688 0)
(0.998604 -0.000489838 0)
(0.99729 0.00150829 0)
(0.997813 0.00216504 0)
(0.998902 0.00261035 0)
(0.998292 0.00431677 0)
(0.998323 0.00583855 0)
(0.998777 0.00685827 0)
(0.9999 0.00705296 0)
(0.999707 0.00782851 0)
(0.999031 0.00838819 0)
(0.997287 0.00909051 0)
(0.998628 -0.00203464 0)
(0.998564 0.00021913 0)
(1.00209 0.000388334 0)
(1.0002 -0.00260998 0)
(0.997733 -0.00119301 0)
(0.998668 0.00181492 0)
(1.00102 0.00206813 0)
(1.00142 0.000125234 0)
(1.00134 -0.00181734 0)
(0.998919 -0.000458077 0)
(0.99757 0.00167115 0)
(0.997956 0.00246077 0)
(0.999157 0.00269218 0)
(0.998704 0.00419034 0)
(0.998719 0.00563336 0)
(0.998996 0.00680226 0)
(1.00009 0.00697464 0)
(0.999994 0.00763318 0)
(0.999352 0.00812883 0)
(0.99754 0.00881307 0)
(0.99871 -0.00192434 0)
(0.998669 9.98681e-05 0)
(1.00198 0.00021279 0)
(1.00017 -0.0024222 0)
(0.997921 -0.000929049 0)
(0.998817 0.00162053 0)
(1.00094 0.0018898 0)
(1.00122 0.000320994 0)
(1.00134 -0.00146751 0)
(0.99923 -0.000382702 0)
(0.997872 0.00179719 0)
(0.998078 0.00267152 0)
(0.999384 0.00276441 0)
(0.999117 0.0041615 0)
(0.999147 0.00548916 0)
(0.99926 0.0067418 0)
(1.00027 0.00693171 0)
(1.00024 0.00743467 0)
(0.999647 0.00786275 0)
(0.997785 0.00848477 0)
(0.998791 -0.00182889 0)
(0.998764 6.45443e-06 0)
(1.00188 3.22762e-05 0)
(1.00015 -0.00225772 0)
(0.998092 -0.000753548 0)
(0.99897 0.00148685 0)
(1.00088 0.00177259 0)
(1.00103 0.000537865 0)
(1.00132 -0.0010841 0)
(0.999536 -0.000278838 0)
(0.998199 0.00179235 0)
(0.998217 0.00285686 0)
(0.999598 0.00292373 0)
(0.999499 0.00419057 0)
(0.999564 0.00534107 0)
(0.999526 0.00658987 0)
(1.00042 0.00684385 0)
(1.00045 0.00727242 0)
(0.999925 0.00766681 0)
(0.998046 0.00817458 0)
(0.998869 -0.00172034 0)
(0.998857 -9.42944e-05 0)
(1.00178 -0.000137667 0)
(1.00015 -0.00210702 0)
(0.998262 -0.000577594 0)
(0.999096 0.00139257 0)
(1.00084 0.00161335 0)
(1.00088 0.000703182 0)
(1.0013 -0.000722238 0)
(0.999805 -0.000156512 0)
(0.998543 0.00177074 0)
(0.998381 0.00304776 0)
(0.9998 0.00306589 0)
(0.999853 0.00414668 0)
(0.999967 0.00514223 0)
(0.999832 0.00637587 0)
(1.00061 0.0068174 0)
(1.00067 0.00719989 0)
(1.00016 0.00750348 0)
(0.998276 0.00785627 0)
(0.998946 -0.00165317 0)
(0.998938 -0.000150727 0)
(1.00169 -0.00030889 0)
(1.00014 -0.00195567 0)
(0.998418 -0.00046149 0)
(0.999227 0.00140443 0)
(1.00081 0.00151739 0)
(1.00074 0.000873759 0)
(1.00127 -0.000386949 0)
(1.00006 -3.79247e-06 0)
(0.99891 0.00175993 0)
(0.998562 0.00320035 0)
(0.999963 0.00318527 0)
(1.00016 0.00410199 0)
(1.00036 0.00501865 0)
(1.00019 0.00621756 0)
(1.00081 0.00676109 0)
(1.00082 0.00702198 0)
(1.00032 0.00726922 0)
(0.998499 0.00751798 0)
(0.99902 -0.0015459 0)
(0.999014 -0.000254772 0)
(1.0016 -0.00038756 0)
(1.00016 -0.00194991 0)
(0.998583 -0.000263858 0)
(0.999329 0.00124142 0)
(1.00078 0.0014857 0)
(1.00064 0.00107613 0)
(1.00124 -5.06722e-05 0)
(1.00029 0.000164682 0)
(0.999282 0.00171562 0)
(0.998764 0.00327721 0)
(1.00012 0.0033178 0)
(1.00046 0.00410849 0)
(1.00075 0.00497784 0)
(1.00054 0.00602492 0)
(1.00099 0.00661414 0)
(1.00096 0.0068491 0)
(1.00048 0.00715034 0)
(0.998705 0.00728821 0)
(0.99909 -0.00147022 0)
(0.999083 -0.000310899 0)
(1.00152 -0.000520079 0)
(1.00018 -0.00186561 0)
(0.998725 -0.000222766 0)
(0.999442 0.00109699 0)
(1.0008 0.00152857 0)
(1.00055 0.00130398 0)
(1.00119 0.000281407 0)
(1.00048 0.000386078 0)
(0.999659 0.0017111 0)
(0.999001 0.0033466 0)
(1.00027 0.0034994 0)
(1.00074 0.00412795 0)
(1.0011 0.00491384 0)
(1.00088 0.00580236 0)
(1.00123 0.00649366 0)
(1.00115 0.0067436 0)
(1.00062 0.00706401 0)
(0.998878 0.00709258 0)
(0.999158 -0.00140373 0)
(0.999146 -0.000360564 0)
(1.00143 -0.000617688 0)
(1.0002 -0.0018096 0)
(0.998875 -0.000161739 0)
(0.999563 0.00121286 0)
(1.00083 0.0014975 0)
(1.00047 0.0014308 0)
(1.00113 0.000571853 0)
(1.00063 0.000598961 0)
(1.00002 0.00169244 0)
(0.999262 0.00335098 0)
(1.00042 0.00364342 0)
(1.00099 0.00411742 0)
(1.00143 0.00485176 0)
(1.00125 0.00563636 0)
(1.00148 0.00636885 0)
(1.00132 0.00659232 0)
(1.00074 0.00692231 0)
(0.999024 0.0069128 0)
(0.999224 -0.00131072 0)
(0.999199 -0.000438185 0)
(1.00135 -0.000648386 0)
(1.00024 -0.00179121 0)
(0.999032 -4.73101e-05 0)
(0.999664 0.001224 0)
(1.00085 0.0014037 0)
(1.00042 0.00149211 0)
(1.00108 0.000827862 0)