/*--------------------------------*- C++ -*----------------------------------*\
| =========                 |                                                 |
| \\      /  F ield         | OpenFOAM: The Open Source CFD Toolbox           |
|  \\    /   O peration     | Version:  v2012                                 |
|   \\  /    A nd           | Website:  www.openfoam.com                      |
|    \\/     M anipulation  |                                                 |
\*---------------------------------------------------------------------------*/
FoamFile
{
    version     2.0;
    format      ascii;
    class       surfaceScalarField;
    location    "7.6";
    object      phi;
}
// * * * * * * * * * * * * * * * * * * * * * * * * * * * * * * * * * * * * * //

dimensions      [0 3 -1 0 0 0 0];
oriented        oriented;


internalField   nonuniform List<scalar> 
13830
(
9.08028e-07
-4.51351e-07
9.65127e-07
-1.1741e-06
9.97971e-07
-8.69783e-07
9.80156e-07
1.17984e-06
9.6663e-07
1.33209e-06
9.7842e-07
1.26134e-06
9.55617e-07
-4.23806e-08
9.40613e-07
-8.0095e-07
9.52922e-07
-1.01714e-06
8.86876e-07
-1.71276e-06
9.44894e-07
-1.13119e-06
9.09343e-07
-1.03096e-06
9.41029e-07
-7.97541e-07
9.461e-07
-6.13145e-07
9.60452e-07
-4.31676e-07
9.69313e-07
-1.72905e-07
9.69607e-07
-1.02068e-07
9.73017e-07
5.05232e-08
9.68534e-07
5.25843e-08
1.14523e-07
9.59771e-07
9.44016e-07
-4.22836e-07
1.0001e-06
-1.23019e-06
1.03541e-06
-9.05097e-07
1.01884e-06
1.19641e-06
1.00198e-06
1.34895e-06
1.01886e-06
1.24446e-06
9.95126e-07
-1.86471e-08
9.8494e-07
-7.90764e-07
9.82225e-07
-1.01442e-06
9.31248e-07
-1.66178e-06
9.75169e-07
-1.17511e-06
9.48048e-07
-1.00384e-06
9.74172e-07
-8.23666e-07
9.82469e-07
-6.21441e-07
9.94102e-07
-4.43309e-07
1.00878e-06
-1.87582e-07
1.0017e-06
-9.49891e-08
1.015e-06
3.7221e-08
9.96974e-07
7.06118e-08
1.02098e-07
1.0094e-06
9.81586e-07
-3.94968e-07
1.03521e-06
-1.28381e-06
1.07302e-06
-9.42915e-07
1.06169e-06
1.20775e-06
1.04014e-06
1.3705e-06
1.05697e-06
1.22762e-06
1.03767e-06
6.58679e-10
1.02786e-06
-7.80958e-07
1.01709e-06
-1.00365e-06
9.82307e-07
-1.627e-06
1.00711e-06
-1.19992e-06
9.95253e-07
-9.91979e-07
1.00756e-06
-8.35976e-07
1.02563e-06
-6.39507e-07
1.02766e-06
-4.45336e-07
1.04889e-06
-2.08811e-07
1.03644e-06
-8.25467e-08
1.05014e-06
2.3522e-08
1.03475e-06
8.60086e-08
9.76198e-08
1.03922e-06
1.02028e-06
-3.67467e-07
1.06993e-06
-1.33346e-06
1.10966e-06
-9.82645e-07
1.10542e-06
1.21199e-06
1.08372e-06
1.39219e-06
1.09613e-06
1.21521e-06
1.0814e-06
1.53971e-08
1.07183e-06
-7.71388e-07
1.05502e-06
-9.86838e-07
1.03013e-06
-1.60211e-06
1.03891e-06
-1.2087e-06
1.03946e-06
-9.9253e-07
1.04062e-06
-8.37135e-07
1.06529e-06
-6.64171e-07
1.06425e-06
-4.44296e-07
1.08538e-06
-2.2994e-07
1.0769e-06
-7.40709e-08
1.08535e-06
1.50748e-08
1.07657e-06
9.47837e-08
9.84321e-08
1.07576e-06
1.06055e-06
-3.40466e-07
1.10423e-06
-1.37714e-06
1.14537e-06
-1.02379e-06
1.14873e-06
1.20863e-06
1.1318e-06
1.40913e-06
1.13868e-06
1.20833e-06
1.12633e-06
2.77482e-08
1.11625e-06
-7.61311e-07
1.0966e-06
-9.67191e-07
1.07554e-06
-1.58105e-06
1.07378e-06
-1.20694e-06
1.08089e-06
-9.99641e-07
1.0755e-06
-8.31745e-07
1.10185e-06
-6.90519e-07
1.10272e-06
-4.45172e-07
1.12242e-06
-2.49639e-07
1.11979e-06
-7.14413e-08
1.12548e-06
9.38601e-09
1.12096e-06
9.93048e-08
1.01038e-07
1.11835e-06
1.10329e-06
-3.14914e-07
1.13862e-06
-1.41246e-06
1.18082e-06
-1.06599e-06
1.19231e-06
1.19715e-06
1.18261e-06
1.41882e-06
1.18468e-06
1.20625e-06
1.17206e-06
4.0366e-08
1.16147e-06
-7.50722e-07
1.14042e-06
-9.46134e-07
1.11939e-06
-1.56002e-06
1.11199e-06
-1.19954e-06
1.12132e-06
-1.00897e-06
1.11251e-06
-8.22936e-07
1.13757e-06
-7.15585e-07
1.14119e-06
-4.48792e-07
1.16048e-06
-2.68928e-07
1.16233e-06
-7.32935e-08
1.16811e-06
3.6096e-09
1.16637e-06
1.01046e-07
1.03459e-07
1.16395e-06
1.14908e-06
-2.92291e-07
1.17394e-06
-1.43733e-06
1.21664e-06
-1.10869e-06
1.23736e-06
1.17643e-06
1.23467e-06
1.42151e-06
1.23281e-06
1.20812e-06
1.21818e-06
5.49954e-08
1.2075e-06
-7.40045e-07
1.18558e-06
-9.24212e-07
1.16365e-06
-1.53809e-06
1.15309e-06
-1.18898e-06
1.16237e-06
-1.01825e-06
1.15131e-06
-8.11884e-07
1.17383e-06
-7.38101e-07
1.17917e-06
-4.54134e-07
1.19871e-06
-2.88462e-07
1.20375e-06
-7.83325e-08
1.21082e-06
-3.46005e-09
1.21146e-06
1.00398e-07
1.04743e-07
1.21018e-06
1.19787e-06
-2.73981e-07
1.2111e-06
-1.45055e-06
1.25296e-06
-1.15055e-06
1.28373e-06
1.14566e-06
1.28643e-06
1.41882e-06
1.28135e-06
1.2132e-06
1.26438e-06
7.19652e-08
1.25431e-06
-7.29978e-07
1.23178e-06
-9.01687e-07
1.20946e-06
-1.51577e-06
1.19659e-06
-1.17611e-06
1.20491e-06
-1.02657e-06
1.19199e-06
-7.98958e-07
1.21141e-06
-7.57527e-07
1.21742e-06
-4.60138e-07
1.23706e-06
-3.08109e-07
1.24458e-06
-8.58454e-08
1.25307e-06
-1.19544e-08
1.25604e-06
9.74336e-08
1.0455e-07
1.25623e-06
1.24912e-06
-2.60745e-07
1.25085e-06
-1.45228e-06
1.28942e-06
-1.18913e-06
1.32944e-06
1.10565e-06
1.336e-06
1.41225e-06
1.32891e-06
1.2203e-06
1.31059e-06
9.02847e-08
1.3019e-06
-7.21291e-07
1.27912e-06
-8.78911e-07
1.25723e-06
-1.49387e-06
1.24223e-06
-1.16111e-06
1.24934e-06
-1.03369e-06
1.23485e-06
-7.84467e-07
1.25085e-06
-7.73526e-07
1.25682e-06
-4.66107e-07
1.27606e-06
-3.27348e-07
1.28564e-06
-9.54242e-08
1.29533e-06
-2.16446e-08
1.30055e-06
9.22092e-08
1.02796e-07
1.30231e-06
1.30206e-06
-2.52525e-07
1.29375e-06
-1.44398e-06
1.32569e-06
-1.22107e-06
1.37194e-06
1.0594e-06
1.38182e-06
1.40236e-06
1.37496e-06
1.22716e-06
1.35708e-06
1.08168e-07
1.35038e-06
-7.14595e-07
1.32784e-06
-8.56368e-07
1.30694e-06
-1.47296e-06
1.28991e-06
-1.14409e-06
1.29582e-06
-1.03959e-06
1.28016e-06
-7.68805e-07
1.29249e-06
-7.8586e-07
1.29796e-06
-4.71575e-07
1.31613e-06
-3.45518e-07
1.32742e-06
-1.0672e-07
1.33802e-06
-3.22379e-08
1.34537e-06
8.48588e-08
9.94757e-08
1.34869e-06
1.35607e-06
-2.48573e-07
1.34012e-06
-1.42803e-06
1.36208e-06
-1.24303e-06
1.41006e-06
1.01142e-06
1.42369e-06
1.38874e-06
1.42004e-06
1.2308e-06
1.40441e-06
1.23799e-07
1.39994e-06
-7.10127e-07
1.37814e-06
-8.34569e-07
1.3585e-06
-1.45333e-06
1.33962e-06
-1.1252e-06
1.34441e-06
-1.04438e-06
1.32799e-06
-7.52392e-07
1.33653e-06
-7.94392e-07
1.34114e-06
-4.76185e-07
1.35753e-06
-3.61909e-07
1.37012e-06
-1.19308e-07
1.38127e-06
-4.33878e-08
1.39046e-06
7.56593e-08
9.46527e-08
1.39529e-06
1.41084e-06
-2.47755e-07
1.38995e-06
-1.40715e-06
1.39981e-06
-1.25288e-06
1.44511e-06
9.66122e-07
1.46323e-06
1.37062e-06
1.46553e-06
1.2285e-06
1.45327e-06
1.36056e-07
1.45078e-06
-7.07635e-07
1.43016e-06
-8.1395e-07
1.41187e-06
-1.43503e-06
1.39138e-06
-1.1047e-06
1.39515e-06
-1.04816e-06
1.3784e-06
-7.35638e-07
1.38306e-06
-7.99057e-07
1.38654e-06
-4.79661e-07
1.40044e-06
-3.75811e-07
1.41378e-06
-1.32647e-07
1.42505e-06
-5.46559e-08
1.43566e-06
6.50511e-08
8.85173e-08
1.44179e-06
1.46637e-06
-2.48883e-07
1.44297e-06
-1.38375e-06
1.44068e-06
-1.25059e-06
1.48043e-06
9.26378e-07
1.50335e-06
1.3477e-06
1.51308e-06
1.21876e-06
1.50428e-06
1.44859e-07
1.5031e-06
-7.06454e-07
1.48397e-06
-7.94824e-07
1.46701e-06
-1.41807e-06
1.44524e-06
-1.08293e-06
1.44807e-06
-1.05099e-06
1.43138e-06
-7.18947e-07
1.43214e-06
-7.99822e-07
1.4343e-06
-4.81821e-07
1.44509e-06
-3.86598e-07
1.45856e-06
-1.46117e-07
1.46945e-06
-6.55404e-08
1.48088e-06
5.36134e-08
8.14071e-08
1.48799e-06
1.52295e-06
-2.50957e-07
1.49879e-06
-1.35959e-06
1.4864e-06
-1.2382e-06
1.5198e-06
8.92978e-07
1.54693e-06
1.32057e-06
1.56399e-06
1.2017e-06
1.55782e-06
1.51034e-07
1.55706e-06
-7.05699e-07
1.5396e-06
-7.7736e-07
1.52388e-06
-1.40235e-06
1.50125e-06
-1.06031e-06
1.50318e-06
-1.05292e-06
1.48696e-06
-7.02725e-07
1.48381e-06
-7.9667e-07
1.48458e-06
-4.82592e-07
1.49179e-06
-3.93812e-07
1.50473e-06
-1.59052e-07
1.51472e-06
-7.55338e-08
1.52634e-06
4.19921e-08
7.37708e-08
1.53398e-06
1.58095e-06
-2.53293e-07
1.55703e-06
-1.33567e-06
1.53786e-06
-1.21903e-06
1.56582e-06
8.65025e-07
1.59577e-06
1.29062e-06
1.61883e-06
1.17864e-06
1.61404e-06
1.55821e-07
1.61286e-06
-7.0452e-07
1.5971e-06
-7.61596e-07
1.58247e-06
-1.38772e-06
1.55947e-06
-1.03731e-06
1.56047e-06
-1.05392e-06
1.54514e-06
-6.87395e-07
1.53813e-06
-7.89659e-07
1.53754e-06
-4.82001e-07
1.54091e-06
-3.97186e-07
1.55265e-06
-1.7079e-07
1.56129e-06
-8.41706e-08
1.57245e-06
3.08292e-08
6.61054e-08
1.58012e-06
1.64077e-06
-2.55524e-07
1.61748e-06
-1.31238e-06
1.59492e-06
-1.19647e-06
1.61909e-06
8.40853e-07
1.65015e-06
1.25955e-06
1.67745e-06
1.15134e-06
1.67294e-06
1.60334e-07
1.6707e-06
-7.02285e-07
1.65656e-06
-7.47452e-07
1.64279e-06
-1.37395e-06
1.61993e-06
-1.01445e-06
1.61993e-06
-1.05392e-06
1.60593e-06
-6.73392e-07
1.59527e-06
-7.79e-07
1.59342e-06
-4.80152e-07
1.59289e-06
-3.96656e-07
1.60282e-06
-1.80723e-07
1.60971e-06
-9.10507e-08
1.61982e-06
2.07119e-08
5.89017e-08
1.62703e-06
1.70275e-06
-2.57523e-07
1.6801e-06
-1.28973e-06
1.65668e-06
-1.17306e-06
1.67867e-06
8.18866e-07
1.70935e-06
1.22887e-06
1.73937e-06
1.12132e-06
1.73446e-06
1.65242e-07
1.73084e-06
-6.9866e-07
1.71814e-06
-7.34753e-07
1.70489e-06
-1.36071e-06
1.68271e-06
-9.92261e-07
1.68152e-06
-1.05273e-06
1.66927e-06
-6.61144e-07
1.6554e-06
-7.65123e-07
1.65246e-06
-4.77218e-07
1.64818e-06
-3.92374e-07
1.65582e-06
-1.88361e-07
1.66063e-06
-9.58614e-08
1.66921e-06
1.21282e-08
5.26015e-08
1.67552e-06
1.76709e-06
-2.59297e-07
1.74495e-06
-1.26759e-06
1.72206e-06
-1.15017e-06
1.74298e-06
7.97949e-07
1.77231e-06
1.19954e-06
1.80408e-06
1.08956e-06
1.79859e-06
1.70726e-07
1.79352e-06
-6.93588e-07
1.78202e-06
-7.23256e-07
1.76889e-06
-1.34758e-06
1.74787e-06
-9.71237e-07
1.74521e-06
-1.05007e-06
1.73506e-06
-6.50998e-07
1.71861e-06
-7.48669e-07
1.71484e-06
-4.73451e-07
1.70718e-06
-3.84717e-07
1.71224e-06
-1.93421e-07
1.7148e-06
-9.84231e-08
1.72151e-06
5.41671e-09
4.75541e-08
1.72656e-06
1.83394e-06
-2.609e-07
1.81219e-06
-1.24584e-06
1.79021e-06
-1.12819e-06
1.81071e-06
7.77457e-07
1.83827e-06
1.17197e-06
1.87128e-06
1.05656e-06
1.86538e-06
1.76628e-07
1.859e-06
-6.87214e-07
1.84844e-06
-7.12694e-07
1.83495e-06
-1.33409e-06
1.81552e-06
-9.51799e-07
1.81099e-06
-1.04555e-06
1.80319e-06
-6.43194e-07
1.78489e-06
-7.30373e-07
1.78058e-06
-4.69141e-07
1.77016e-06
-3.74296e-07
1.77261e-06
-1.95862e-07
1.77294e-06
-9.87551e-08
1.77764e-06
7.15323e-10
4.3967e-08
1.78123e-06
1.90338e-06
-2.62384e-07
1.88194e-06
-1.2244e-06
1.86069e-06
-1.10694e-06
1.88113e-06
7.57016e-07
1.90691e-06
1.14619e-06
1.94089e-06
1.02257e-06
1.93489e-06
1.82631e-07
1.92748e-06
-6.798e-07
1.9176e-06
-7.02822e-07
1.90328e-06
-1.31976e-06
1.88575e-06
-9.34274e-07
1.87897e-06
-1.03877e-06
1.8736e-06
-6.3782e-07
1.85416e-06
-7.10941e-07
1.8496e-06
-4.64572e-07
1.8372e-06
-3.61899e-07
1.83724e-06
-1.95904e-07
1.83558e-06
-9.70918e-08
1.83836e-06
-2.06874e-09
4.18699e-08
1.84046e-06
1.9755e-06
-2.63781e-07
1.95434e-06
-1.20324e-06
1.93338e-06
-1.08599e-06
1.95406e-06
7.36337e-07
1.97823e-06
1.12202e-06
2.01298e-06
9.87828e-07
2.00723e-06
1.88381e-07
1.99908e-06
-6.71653e-07
1.98972e-06
-6.93462e-07
1.97408e-06
-1.30412e-06
1.95869e-06
-9.18878e-07
1.94932e-06
-1.0294e-06
1.94627e-06
-6.34765e-07
1.92627e-06
-6.90949e-07
1.92166e-06
-4.59962e-07
1.90816e-06
-3.48401e-07
1.90622e-06
-1.93956e-07
1.90298e-06
-9.38536e-08
1.90414e-06
-3.22942e-09
4.11034e-08
1.90491e-06
2.05037e-06
-2.65099e-07
2.02948e-06
-1.18235e-06
2.00835e-06
-1.06485e-06
2.02953e-06
7.15155e-07
2.05236e-06
1.09918e-06
2.08762e-06
9.52568e-07
2.08246e-06
1.93541e-07
2.07388e-06
-6.63069e-07
2.06497e-06
-6.84556e-07
2.04757e-06
-1.28672e-06
2.03439e-06
-9.057e-07
2.02226e-06
-1.01727e-06
2.02124e-06
-6.3374e-07
2.00109e-06
-6.70803e-07
1.99655e-06
-4.55422e-07
1.98276e-06
-3.3461e-07
1.97935e-06
-1.90548e-07
1.97505e-06
-8.95487e-08
1.97502e-06
-3.19866e-09
4.13497e-08
1.97477e-06
2.12806e-06
-2.66322e-07
2.1075e-06
-1.16179e-06
2.08576e-06
-1.04311e-06
2.10766e-06
6.93253e-07
2.12942e-06
1.07742e-06
2.16491e-06
9.17082e-07
2.16065e-06
1.97794e-07
2.15187e-06
-6.54286e-07
2.1435e-06
-6.76185e-07
2.12394e-06
-1.26717e-06
2.11291e-06
-8.94669e-07
2.09801e-06
-1.00237e-06
2.09859e-06
-6.34315e-07
2.07853e-06
-6.50746e-07
2.07405e-06
-4.50943e-07
2.06063e-06
-3.21187e-07
2.05629e-06
-1.86203e-07
2.05143e-06
-8.46958e-08
2.05069e-06
-2.45334e-09
4.22058e-08
2.04983e-06
2.20867e-06
-2.67411e-07
2.1885e-06
-1.14162e-06
2.16582e-06
-1.02042e-06
2.18855e-06
6.70516e-07
2.20949e-06
1.05649e-06
2.24493e-06
8.81644e-07
2.24187e-06
2.0085e-07
2.23303e-06
-6.45444e-07
2.22542e-06
-6.68578e-07
2.20335e-06
-1.24509e-06
2.19429e-06
-8.85613e-07
2.17675e-06
-9.84832e-07
2.17843e-06
-6.35991e-07
2.15857e-06
-6.30893e-07
2.15402e-06
-4.46388e-07
2.14144e-06
-3.08607e-07
2.13658e-06
-1.81339e-07
2.13163e-06
-7.97532e-08
2.1306e-06
-1.41708e-09
4.32753e-08
2.12953e-06
2.29229e-06
-2.68304e-07
2.27261e-06
-1.12195e-06
2.24876e-06
-9.96568e-07
2.27232e-06
6.46953e-07
2.29264e-06
1.03617e-06
2.3278e-06
8.4648e-07
2.3262e-06
2.02451e-07
2.31731e-06
-6.3655e-07
2.31076e-06
-6.62032e-07
2.28601e-06
-1.22035e-06
2.27861e-06
-8.78206e-07
2.25865e-06
-9.64874e-07
2.26088e-06
-6.38222e-07
2.2413e-06
-6.1131e-07
2.23642e-06
-4.41514e-07
2.22494e-06
-2.97119e-07
2.21984e-06
-1.76242e-07
2.21508e-06
-7.49937e-08
2.21417e-06
-5.05801e-10
4.4231e-08
2.21321e-06
2.379e-06
-2.68921e-07
2.35994e-06
-1.10288e-06
2.33482e-06
-9.71451e-07
2.35908e-06
6.22688e-07
2.37895e-06
1.0163e-06
2.4137e-06
8.11736e-07
2.41377e-06
2.0238e-07
2.40468e-06
-6.2746e-07
2.39945e-06
-6.56801e-07
2.37213e-06
-1.19303e-06
2.36594e-06
-8.72013e-07
2.34388e-06
-9.42815e-07
2.34609e-06
-6.40437e-07
2.32686e-06
-5.92077e-07
2.32136e-06
-4.36013e-07
2.31107e-06
-2.86824e-07
2.30577e-06
-1.70942e-07
2.30114e-06
-7.03685e-08
2.30091e-06
-2.71921e-10
4.48322e-08
2.30031e-06
2.46893e-06
-2.69169e-07
2.45058e-06
-1.08454e-06
2.42424e-06
-9.45108e-07
2.44901e-06
5.97917e-07
2.46856e-06
9.96747e-07
2.50281e-06
7.77493e-07
2.50472e-06
2.00464e-07
2.49518e-06
-6.17921e-07
2.49145e-06
-6.53062e-07
2.46182e-06
-1.1634e-06
2.45637e-06
-8.66564e-07
2.43261e-06
-9.19054e-07
2.43426e-06
-6.42089e-07
2.41548e-06
-5.73302e-07
2.40899e-06
-4.29523e-07
2.39997e-06
-2.77802e-07
2.39379e-06
-1.64762e-07
2.3894e-06
-6.59752e-08
2.39055e-06
-1.42187e-09
4.49682e-08
2.39041e-06
2.56219e-06
-2.68957e-07
2.54464e-06
-1.06699e-06
2.51721e-06
-9.17677e-07
2.54226e-06
5.72862e-07
2.56163e-06
9.77383e-07
2.59534e-06
7.43783e-07
2.59924e-06
1.96561e-07
2.58899e-06
-6.07673e-07
2.58676e-06
-6.50828e-07
2.55515e-06
-1.1318e-06
2.55002e-06
-8.61432e-07
2.52496e-06
-8.93987e-07
2.5256e-06
-6.42734e-07
2.50737e-06
-5.55071e-07
2.49962e-06
-4.21778e-07
2.49185e-06
-2.7003e-07
2.48998e-06
-1.62888e-07
2.48822e-06
-6.42169e-08
2.48311e-06
3.687e-09
4.4664e-08
2.48341e-06
2.65893e-06
-2.68204e-07
2.6422e-06
-1.05026e-06
2.61388e-06
-8.89361e-07
2.63902e-06
5.47723e-07
2.65833e-06
9.58068e-07
2.69149e-06
7.1063e-07
2.69749e-06
1.9056e-07
2.68628e-06
-5.96465e-07
2.68542e-06
-6.49968e-07
2.65225e-06
-1.09863e-06
2.64701e-06
-8.56193e-07
2.62112e-06
-8.68097e-07
2.62034e-06
-6.41958e-07
2.60272e-06
-5.37443e-07
2.59416e-06
-4.13225e-07
2.58503e-06
-2.60896e-07
2.57911e-06
-1.56973e-07
2.57559e-06
-6.06978e-08
2.5785e-06
7.80889e-10
4.37149e-08
2.57945e-06
2.7593e-06
-2.66851e-07
2.74335e-06
-1.03431e-06
2.71438e-06
-8.60388e-07
2.73945e-06
5.22648e-07
2.75888e-06
9.38634e-07
2.79143e-06
6.78083e-07
2.79959e-06
1.82402e-07
2.78723e-06
-5.84108e-07
2.78747e-06
-6.50207e-07
2.75327e-06
-1.06443e-06
2.74738e-06
-8.50299e-07
2.72139e-06
-8.42112e-07
2.71855e-06
-6.39112e-07
2.70203e-06
-5.20929e-07
2.69236e-06
-4.03553e-07
2.68252e-06
-2.51055e-07
2.67599e-06
-1.50442e-07
2.67262e-06
-5.7325e-08
2.67747e-06
-4.07319e-09
4.25204e-08
2.67867e-06
2.86347e-06
-2.64863e-07
2.8482e-06
-1.01903e-06
2.81879e-06
-8.30983e-07
2.84371e-06
4.97727e-07
2.86349e-06
9.18855e-07
2.89531e-06
6.46264e-07
2.90566e-06
1.72055e-07
2.89201e-06
-5.70459e-07
2.89303e-06
-6.51233e-07
2.85833e-06
-1.02972e-06
2.85129e-06
-8.43258e-07
2.826e-06
-8.16822e-07
2.82038e-06
-6.33491e-07
2.80536e-06
-5.05913e-07
2.79568e-06
-3.93871e-07
2.79313e-06
-2.48501e-07
2.79162e-06
-1.48936e-07
2.78991e-06
-5.5614e-08
2.78055e-06
5.29074e-09
4.17286e-08
2.78134e-06
2.97162e-06
-2.62235e-07
2.95686e-06
-1.00428e-06
2.92723e-06
-8.01345e-07
2.95196e-06
4.72992e-07
2.97236e-06
8.98457e-07
3.00325e-06
6.1537e-07
3.01576e-06
1.59553e-07
3.00078e-06
-5.55477e-07
3.00224e-06
-6.52695e-07
2.9675e-06
-9.94984e-07
2.95901e-06
-8.34773e-07
2.9349e-06
-7.92711e-07
2.92655e-06
-6.25138e-07
2.91278e-06
-4.92141e-07
2.89788e-06
-3.78976e-07
2.88967e-06
-2.40293e-07
2.88145e-06
-1.40712e-07
2.87838e-06
-5.25421e-08
2.88664e-06
-2.97594e-09
4.0254e-08
2.88812e-06
3.08391e-06
-2.58981e-07
3.0695e-06
-9.89875e-07
3.03979e-06
-7.71633e-07
3.06433e-06
4.4845e-07
3.08567e-06
8.77116e-07
3.11538e-06
5.8566e-07
3.12993e-06
1.44999e-07
3.11371e-06
-5.39251e-07
3.11524e-06
-6.54233e-07
3.08085e-06
-9.60591e-07
3.07092e-06
-8.24843e-07
3.0477e-06
-7.69486e-07
3.03763e-06
-6.15074e-07
3.02479e-06
-4.79301e-07
3.01476e-06
-3.68941e-07
3.01457e-06
-2.40107e-07
3.01294e-06
-1.39084e-07
3.01066e-06
-5.02633e-08
2.99784e-06
9.84486e-09
3.92494e-08
2.99885e-06
3.20052e-06
-2.55144e-07
3.18627e-06
-9.75617e-07
3.15661e-06
-7.41977e-07
3.18092e-06
4.24146e-07
3.20359e-06
8.54444e-07
3.23178e-06
5.57465e-07
3.24828e-06
1.28502e-07
3.23094e-06
-5.21915e-07
3.23227e-06
-6.55561e-07
3.19841e-06
-9.26729e-07
3.18744e-06
-8.13875e-07
3.16355e-06
-7.45595e-07
3.15497e-06
-6.06494e-07
3.14022e-06
-4.64548e-07
3.13031e-06
-3.59035e-07
3.11373e-06
-2.23531e-07
3.10652e-06
-1.31868e-07
3.1046e-06
-4.83493e-08
3.11176e-06
2.68361e-09
3.6523e-08
3.11449e-06
3.32164e-06
-2.50773e-07
3.30738e-06
-9.6136e-07
3.27785e-06
-7.12441e-07
3.30187e-06
4.00128e-07
3.32615e-06
8.3016e-07
3.35275e-06
5.30864e-07
3.37073e-06
1.10522e-07
3.35284e-06
-5.04025e-07
3.3532e-06
-6.55924e-07
3.32105e-06
-8.94578e-07
3.30786e-06
-8.00681e-07
3.28521e-06
-7.22945e-07
3.27528e-06
-5.96569e-07
3.25518e-06
-4.44443e-07
3.24008e-06
-3.43932e-07
3.23169e-06
-2.15141e-07
3.22534e-06
-1.25518e-07
3.22343e-06
-4.6441e-08
3.23156e-06
-5.44543e-09
3.35946e-08
3.23449e-06
3.44744e-06
-2.45932e-07
3.43306e-06
-9.46976e-07
3.40369e-06
-6.83076e-07
3.42726e-06
3.76558e-07
3.45348e-06
8.03939e-07
3.47841e-06
5.0594e-07
3.49748e-06
9.14557e-08
3.47959e-06
-4.86142e-07
3.4782e-06
-6.54533e-07
3.44921e-06
-8.65591e-07
3.43203e-06
-7.83492e-07
3.41233e-06
-7.03251e-07
3.39622e-06
-5.80461e-07
3.39236e-06
-4.40578e-07
3.38137e-06
-3.32948e-07
3.38046e-06
-2.14232e-07
3.37924e-06
-1.24296e-07
3.37626e-06
-4.34614e-08
3.35831e-06
1.25034e-08
3.30746e-08
3.35883e-06
3.5781e-06
-2.40691e-07
3.56349e-06
-9.32357e-07
3.5344e-06
-6.53989e-07
3.55719e-06
3.53763e-07
3.58576e-06
7.7537e-07
3.60873e-06
4.82975e-07
3.62899e-06
7.11905e-08
3.61084e-06
-4.6799e-07
3.60845e-06
-6.52142e-07
3.57991e-06
-8.37056e-07
3.56415e-06
-7.67731e-07
3.54032e-06
-6.79412e-07
3.52872e-06
-5.68868e-07
3.50987e-06
-4.21727e-07
3.49449e-06
-3.17563e-07
3.48333e-06
-2.03078e-07
3.47792e-06
-1.18881e-07
3.47789e-06
-4.34338e-08
3.48617e-06
4.22625e-09
3.00655e-08
3.48918e-06
3.71379e-06
-2.35098e-07
3.69892e-06
-9.17488e-07
3.67012e-06
-6.25188e-07
3.692e-06
3.3189e-07
3.72281e-06
7.44557e-07
3.74433e-06
4.61449e-07
3.76487e-06
5.06561e-08
3.74753e-06
-4.50646e-07
3.74285e-06
-6.47469e-07
3.71681e-06
-8.11011e-07
3.69968e-06
-7.50599e-07
3.67665e-06
-6.56387e-07
3.66667e-06
-5.58888e-07
3.64422e-06
-3.99273e-07
3.62875e-06
-3.02093e-07
3.61753e-06
-1.91865e-07
3.61137e-06
-1.12722e-07
3.61178e-06
-4.38436e-08
3.62136e-06
-5.3537e-09
2.72649e-08
3.62416e-06
3.8547e-06
-2.29206e-07
3.83957e-06
-9.02359e-07
3.81114e-06
-5.96757e-07
3.83189e-06
3.11138e-07
3.86476e-06
7.1169e-07
3.88535e-06
4.40858e-07
3.90532e-06
3.06843e-08
3.88997e-06
-4.35294e-07
3.88123e-06
-6.38737e-07
3.86015e-06
-7.89931e-07
3.83566e-06
-7.26101e-07
3.81821e-06
-6.38937e-07
3.79756e-06
-5.38243e-07
3.80254e-06
-4.04252e-07
3.79331e-06
-2.92856e-07
3.79251e-06
-1.91073e-07
3.79063e-06
-1.10837e-07
3.78705e-06
-4.02702e-08
3.7653e-06
1.63996e-08
2.89308e-08
3.76364e-06
4.00101e-06
-2.23065e-07
3.98558e-06
-8.86928e-07
3.95779e-06
-5.68966e-07
3.97693e-06
2.91998e-07
4.01215e-06
6.7647e-07
4.03121e-06
4.21803e-07
4.05183e-06
1.00639e-08
4.03591e-06
-4.19376e-07
4.02838e-06
-6.31205e-07
4.00356e-06
-7.65112e-07
3.98831e-06
-7.10854e-07
3.96824e-06
-6.18873e-07
3.95598e-06
-5.25983e-07
3.92887e-06
-3.77139e-07
3.91295e-06
-2.76938e-07
3.90154e-06
-1.79656e-07
3.89638e-06
-1.05677e-07
3.89767e-06
-4.15638e-08
3.90774e-06
6.32772e-09
2.63375e-08
3.91033e-06
4.15289e-06
-2.16676e-07
4.13723e-06
-8.71263e-07
4.11012e-06
-5.41857e-07
4.12775e-06
2.74364e-07
4.16453e-06
6.39699e-07
4.18323e-06
4.03093e-07
4.20294e-06
-9.64616e-09
4.18817e-06
-4.04605e-07
4.17965e-06
-6.2268e-07
4.15446e-06
-7.39925e-07
4.14025e-06
-6.96643e-07
4.10706e-06
-5.85684e-07
4.09049e-06
-5.09412e-07
4.07715e-06
-3.63795e-07
4.06396e-06
-2.63749e-07
4.05228e-06
-1.67977e-07
4.04677e-06
-1.00166e-07
4.04786e-06
-4.26607e-08
4.05937e-06
-5.17826e-09
2.391e-08
4.0618e-06
4.31057e-06
-2.10058e-07
4.29471e-06
-8.554e-07
4.26835e-06
-5.155e-07
4.28462e-06
2.58088e-07
4.32214e-06
6.02184e-07
4.34169e-06
3.83547e-07
4.35847e-06
-2.64275e-08
4.34772e-06
-3.93855e-07
4.3338e-06
-6.08765e-07
4.31439e-06
-7.20511e-07
4.28848e-06
-6.70733e-07
4.28265e-06
-5.79852e-07
4.26794e-06
-4.94704e-07
4.26365e-06
-3.59503e-07
4.25416e-06
-2.54263e-07
4.25505e-06
-1.68866e-07
4.25272e-06
-9.78344e-08
4.24671e-06
-3.66563e-08
4.22239e-06
1.91458e-08
2.8536e-08
4.21776e-06
4.47426e-06
-2.03235e-07
4.45808e-06
-8.39221e-07
4.43293e-06
-4.90346e-07
4.44733e-06
2.43687e-07
4.48618e-06
5.63337e-07
4.50489e-06
3.64839e-07
4.52254e-06
-4.40813e-08
4.50893e-06
-3.80246e-07
4.49975e-06
-5.99582e-07
4.47301e-06
-6.93771e-07
4.46181e-06
-6.59531e-07
4.42776e-06
-5.45804e-07
4.41009e-06
-4.77037e-07
4.39434e-06
-3.43754e-07
4.38286e-06
-2.42785e-07
4.37157e-06
-1.57571e-07
4.36741e-06
-9.36712e-08
4.368e-06
-3.72527e-08
4.38018e-06
6.96778e-09
2.63705e-08
4.38235e-06
4.64414e-06
-1.9617e-07
4.62777e-06
-8.22845e-07
4.60365e-06
-4.66225e-07
4.61692e-06
2.30412e-07
4.65543e-06
5.24833e-07
4.67589e-06
3.44378e-07
4.69002e-06
-5.82182e-08
4.67935e-06
-3.69574e-07
4.66757e-06
-5.87797e-07
4.63964e-06
-6.65841e-07
4.62018e-06
-6.40076e-07
4.59648e-06
-5.22105e-07
4.5807e-06
-4.61256e-07
4.56173e-06
-3.24784e-07
4.55201e-06
-2.33058e-07
4.54089e-06
-1.46453e-07
4.53636e-06
-8.91475e-08
4.53662e-06
-3.7506e-08
4.54994e-06
-6.35969e-09
2.44133e-08
4.5519e-06
4.82049e-06
-1.88874e-07
4.80392e-06
-8.06274e-07
4.78082e-06
-4.43123e-07
4.79349e-06
2.17743e-07
4.83031e-06
4.88014e-07
4.85545e-06
3.19232e-07
4.86155e-06
-6.43135e-08
4.86031e-06
-3.68336e-07
4.83637e-06
-5.63857e-07
4.8259e-06
-6.55373e-07
4.79198e-06
-6.06152e-07
4.77892e-06
-5.09043e-07
4.76031e-06
-4.42648e-07
4.77382e-06
-3.38293e-07
4.77155e-06
-2.30788e-07
4.77451e-06
-1.49419e-07
4.7705e-06
-8.51312e-08
4.76136e-06
-2.83709e-08
4.73419e-06
2.08168e-08
3.2858e-08
4.72574e-06
5.00359e-06
-1.81398e-07
4.98658e-06
-7.89263e-07
4.9651e-06
-4.21639e-07
4.97622e-06
2.06617e-07
5.01371e-06
4.50523e-07
5.03663e-06
2.96319e-07
5.04611e-06
-7.37958e-08
5.03834e-06
-3.60566e-07
5.01984e-06
-5.45361e-07
4.99767e-06
-6.33199e-07
4.97564e-06
-5.84126e-07
4.95407e-06
-4.87468e-07
4.93474e-06
-4.23318e-07
4.91977e-06
-3.23325e-07
4.90955e-06
-2.20565e-07
4.90173e-06
-1.416e-07
4.89428e-06
-7.76892e-08
4.89533e-06
-2.94155e-08
4.90878e-06
7.36356e-09
3.14068e-08
4.91023e-06
5.1936e-06
-1.73686e-07
5.17637e-06
-7.72027e-07
5.15604e-06
-4.01315e-07
5.16665e-06
1.96005e-07
5.20322e-06
4.13953e-07
5.22561e-06
2.73936e-07
5.23728e-06
-8.54662e-08
5.22451e-06
-3.478e-07
5.21195e-06
-5.32805e-07
5.18394e-06
-6.05183e-07
5.16626e-06
-5.66449e-07
5.1412e-06
-4.62402e-07
5.12395e-06
-4.06075e-07
5.10836e-06
-3.07728e-07
5.10053e-06
-2.12734e-07
5.09165e-06
-1.32724e-07
5.09069e-06
-7.67275e-08
5.0907e-06
-2.94314e-08
5.09633e-06
1.7323e-09
2.73567e-08
5.10038e-06
5.39089e-06
-1.65794e-07
5.3734e-06
-7.54542e-07
5.3541e-06
-3.82017e-07
5.36482e-06
1.8529e-07
5.39889e-06
3.79876e-07
5.42333e-06
2.49504e-07
5.43199e-06
-9.4133e-08
5.42144e-06
-3.37248e-07
5.40376e-06
-5.15124e-07
5.38018e-06
-5.81607e-07
5.36029e-06
-5.4656e-07
5.33804e-06
-4.40152e-07
5.31903e-06
-3.87061e-07
5.30547e-06
-2.9417e-07
5.29757e-06
-2.04828e-07
5.29052e-06
-1.25678e-07
5.28918e-06
-7.53835e-08
5.29107e-06
-3.13261e-08
5.29276e-06
4.32557e-11
2.28463e-08
5.29727e-06
5.59571e-06
-1.57763e-07
5.57789e-06
-7.36729e-07
5.55973e-06
-3.63856e-07
5.57057e-06
1.74448e-07
5.60255e-06
3.47902e-07
5.62712e-06
2.24929e-07
5.63489e-06
-1.01895e-07
5.62509e-06
-3.2745e-07
5.606e-06
-4.96038e-07
5.58317e-06
-5.58777e-07
5.5627e-06
-5.2609e-07
5.54225e-06
-4.19697e-07
5.52254e-06
-3.67352e-07
5.51006e-06
-2.81693e-07
5.50211e-06
-1.96877e-07
5.49626e-06
-1.1983e-07
5.49331e-06
-7.24301e-08
5.49315e-06
-3.11636e-08
5.49682e-06
-3.63295e-09
1.80356e-08
5.50163e-06
5.80831e-06
-1.49594e-07
5.79038e-06
-7.18801e-07
5.773e-06
-3.46472e-07
5.78484e-06
1.62607e-07
5.814e-06
3.18743e-07
5.83864e-06
2.00286e-07
5.84492e-06
-1.08169e-07
5.83645e-06
-3.18988e-07
5.81643e-06
-4.76016e-07
5.79371e-06
-5.36053e-07
5.77317e-06
-5.05549e-07
5.75424e-06
-4.00771e-07
5.73441e-06
-3.47524e-07
5.72217e-06
-2.69453e-07
5.71421e-06
-1.88918e-07
5.70976e-06
-1.15379e-07
5.70737e-06
-7.00404e-08
5.70859e-06
-3.2376e-08
5.70936e-06
-4.40455e-09
1.37651e-08
5.71363e-06
6.02904e-06
-1.41337e-07
6.01099e-06
-7.00745e-07
5.99438e-06
-3.29869e-07
6.00737e-06
1.49616e-07
6.03414e-06
2.9198e-07
6.0577e-06
1.76721e-07
6.0629e-06
-1.13367e-07
6.05545e-06
-3.11534e-07
6.03518e-06
-4.55748e-07
6.01242e-06
-5.13299e-07
5.99198e-06
-4.85106e-07
5.97403e-06
-3.82819e-07
5.95469e-06
-3.2819e-07
5.94237e-06
-2.57126e-07
5.9348e-06
-1.81349e-07
5.93099e-06
-1.11574e-07
5.92671e-06
-6.57597e-08
5.92552e-06
-3.11829e-08
5.92961e-06
-8.49716e-09
9.66733e-09
5.93371e-06
6.25819e-06
-1.33024e-07
6.24004e-06
-6.82601e-07
6.22422e-06
-3.14046e-07
6.23775e-06
1.36084e-07
6.26305e-06
2.66688e-07
6.28497e-06
1.54793e-07
6.28923e-06
-1.17625e-07
6.28235e-06
-3.04651e-07
6.26256e-06
-4.35962e-07
6.23955e-06
-4.90286e-07
6.21915e-06
-4.64709e-07
6.2022e-06
-3.6586e-07
6.18363e-06
-3.09624e-07
6.17118e-06
-2.44681e-07
6.16347e-06
-1.73635e-07
6.16038e-06
-1.08485e-07
6.15828e-06
-6.3657e-08
6.1596e-06
-3.25101e-08
6.15928e-06
-8.16805e-09
6.90566e-09
6.16204e-06
6.4961e-06
-1.24716e-07
6.47781e-06
-6.64314e-07
6.46288e-06
-2.99115e-07
6.47627e-06
1.22692e-07
6.50101e-06
2.41947e-07
6.52094e-06
1.34859e-07
6.52448e-06
-1.21161e-07
6.51771e-06
-2.97882e-07
6.49859e-06
-4.16839e-07
6.47546e-06
-4.67154e-07
6.4553e-06
-4.44557e-07
6.43907e-06
-3.49626e-07
6.42116e-06
-2.91715e-07
6.40876e-06
-2.32281e-07
6.40126e-06
-1.66137e-07
6.39822e-06
-1.05442e-07
6.39463e-06
-6.00667e-08
6.39352e-06
-3.14011e-08
6.39652e-06
-1.11652e-08
4.05044e-09
6.39937e-06
6.74308e-06
-1.16453e-07
6.72456e-06
-6.45795e-07
6.7107e-06
-2.85259e-07
6.72356e-06
1.09836e-07
6.74815e-06
2.1736e-07
6.76663e-06
1.16376e-07
6.76898e-06
-1.23514e-07
6.76184e-06
-2.90738e-07
6.74364e-06
-3.98645e-07
6.72058e-06
-4.44092e-07
6.70039e-06
-4.24366e-07
6.68485e-06
-3.34083e-07
6.66791e-06
-2.74776e-07
6.65575e-06
-2.20119e-07
6.64799e-06
-1.58376e-07
6.64507e-06
-1.02527e-07
6.64406e-06
-5.90561e-08
6.6446e-06
-3.19426e-08
6.64378e-06
-1.03429e-08
1.98151e-09
6.64585e-06
6.99949e-06
-1.08296e-07
6.98059e-06
-6.26888e-07
6.96809e-06
-2.72765e-07
6.98005e-06
9.78829e-08
7.00481e-06
1.92594e-07
7.02225e-06
9.89327e-08
7.02312e-06
-1.24383e-07
7.01537e-06
-2.82988e-07
6.99789e-06
-3.81159e-07
6.97515e-06
-4.21352e-07
6.95508e-06
-4.04296e-07
6.94019e-06
-3.19194e-07
6.92403e-06
-2.58616e-07
6.912e-06
-2.08093e-07
6.90436e-06
-1.50737e-07
6.90132e-06
-9.94831e-08
6.89894e-06
-5.6678e-08
6.8977e-06
-3.07042e-08
6.8999e-06
-1.25358e-08
8.92177e-12
6.90187e-06
7.26569e-06
-1.00293e-07
7.24624e-06
-6.07441e-07
7.23537e-06
-2.619e-07
7.24628e-06
8.69808e-08
7.27278e-06
1.66089e-07
7.28827e-06
8.34475e-08
7.28737e-06
-1.23485e-07
7.2786e-06
-2.74223e-07
7.26174e-06
-3.64293e-07
7.2396e-06
-3.9921e-07
7.21951e-06
-3.84208e-07
7.20513e-06
-3.04813e-07
7.18994e-06
-2.43429e-07
7.1782e-06
-1.9635e-07
7.17055e-06
-1.43094e-07
7.16734e-06
-9.62725e-08
7.16692e-06
-5.62547e-08
7.16694e-06
-3.0724e-08
7.16635e-06
-1.19517e-08
-1.13531e-09
7.1675e-06
7.54202e-06
-9.24838e-08
7.52206e-06
-5.87478e-07
7.5127e-06
-2.52539e-07
7.5228e-06
7.68797e-08
7.55076e-06
1.38125e-07
7.56374e-06
7.04739e-08
7.56207e-06
-1.21814e-07
7.55209e-06
-2.64242e-07
7.53546e-06
-3.47667e-07
7.51417e-06
-3.77923e-07
7.49426e-06
-3.64299e-07
7.48032e-06
-2.90869e-07
7.46598e-06
-2.29093e-07
7.45445e-06
-1.84822e-07
7.4471e-06
-1.3574e-07
7.44347e-06
-9.26392e-08
7.44188e-06
-5.46642e-08
7.44073e-06
-2.95804e-08
7.44239e-06
-1.36083e-08
-2.32483e-09
7.44358e-06
7.82885e-06
-8.4877e-08
7.80869e-06
-5.67322e-07
7.8e-06
-2.43849e-07
7.81009e-06
6.67889e-08
7.8303e-06
1.17914e-07
7.84786e-06
5.29208e-08
7.84799e-06
-1.21943e-07
7.83605e-06
-2.52307e-07
7.81951e-06
-3.31126e-07
7.79926e-06
-3.57676e-07
7.77951e-06
-3.44546e-07
7.76585e-06
-2.77209e-07
7.75256e-06
-2.158e-07
7.74132e-06
-1.73589e-07
7.73412e-06
-1.28537e-07
7.73023e-06
-8.87467e-08
7.73005e-06
-5.44808e-08
7.73028e-06
-2.98103e-08
7.72948e-06
-1.28133e-08
-2.93294e-09
7.73009e-06
8.1266e-06
-7.75149e-08
8.10608e-06
-5.46804e-07
8.09787e-06
-2.35634e-07
8.10923e-06
5.54207e-08
8.13532e-06
9.18283e-08
8.16044e-06
2.7802e-08
8.14669e-06
-1.08195e-07
8.131e-06
-2.36619e-07
8.11467e-06
-3.14792e-07
8.09542e-06
-3.38427e-07
8.07607e-06
-3.25191e-07
8.06244e-06
-2.63581e-07
8.05011e-06
-2.03468e-07
8.03906e-06
-1.62548e-07
8.03217e-06
-1.21644e-07
8.02789e-06
-8.44621e-08
8.02648e-06
-5.30695e-08
8.02547e-06
-2.88054e-08
8.02685e-06
-1.4192e-08
-3.70398e-09
8.02762e-06
8.43573e-06
-7.04882e-08
8.41417e-06
-5.25236e-07
8.4082e-06
-2.29672e-07
8.41735e-06
4.62704e-08
8.4413e-06
6.78854e-08
8.4537e-06
1.54025e-08
8.45078e-06