/*--------------------------------*- C++ -*----------------------------------*\
| =========                 |                                                 |
| \\      /  F ield         | OpenFOAM: The Open Source CFD Toolbox           |
|  \\    /   O peration     | Version:  v2012                                 |
|   \\  /    A nd           | Website:  www.openfoam.com                      |
|    \\/     M anipulation  |                                                 |
\*---------------------------------------------------------------------------*/
FoamFile
{
    version     2.0;
    format      ascii;
    class       volScalarField;
    location    "8.6";
    object      p;
}
// * * * * * * * * * * * * * * * * * * * * * * * * * * * * * * * * * * * * * //

dimensions      [0 2 -2 0 0 0 0];


internalField   nonuniform List<scalar> 
7000
(
3.67353e-10
0.000503233
-0.000420733
0.00183956
0.00292147
0.0030938
0.00155401
0.00320249
0.00241201
0.00272559
0.00226326
0.00387961
-0.000379137
0.00235873
0.00186083
0.00343531
0.0040152
0.00585703
0.00757574
0.0106184
-3.21003e-06
0.000517564
-0.000415747
0.00183979
0.00291915
0.00307396
0.00155157
0.00320715
0.00241807
0.0027125
0.00229504
0.00386392
-0.000348214
0.00234298
0.00186665
0.0034356
0.00401819
0.00585044
0.00757972
0.0104633
-5.95077e-06
0.000532003
-0.000410415
0.00183744
0.00290977
0.00307522
0.00155537
0.00320609
0.00242989
0.00269184
0.00232927
0.00383192
-0.000294895
0.00230892
0.00189139
0.00342563
0.00403065
0.00583053
0.0075749
0.010219
-7.85052e-06
0.000543378
-0.000405088
0.0018348
0.00289794
0.00309341
0.00156079
0.00320307
0.0024498
0.00266447
0.00236333
0.00378345
-0.000231938
0.00226917
0.0019231
0.00341036
0.00404476
0.00580307
0.00755312
0.00996188
-9.19849e-06
0.000552664
-0.000398419
0.00183261
0.00288538
0.00312245
0.00156821
0.00319762
0.00247541
0.00263437
0.00240011
0.00372008
-0.000159248
0.00222537
0.00195626
0.0033911
0.00406136
0.00576934
0.00751791
0.00971976
-1.02226e-05
0.000560577
-0.000389973
0.00182983
0.00287195
0.00315859
0.00157736
0.00319042
0.00250447
0.00260542
0.00243917
0.00364688
-7.8293e-05
0.00217641
0.00199213
0.00336694
0.00408327
0.00572905
0.00747149
0.00949496
-1.12146e-05
0.000567826
-0.000379631
0.00182623
0.00285766
0.00319877
0.00158847
0.00318129
0.00253535
0.00257864
0.00247935
0.00356839
6.53759e-06
0.00212269
0.00203104
0.00333655
0.00411028
0.00568209
0.00741335
0.00928141
-1.23954e-05
0.000575216
-0.000369881
0.00182294
0.00284231
0.0032414
0.00160151
0.00317022
0.00256774
0.00255335
0.00252026
0.00348647
9.20594e-05
0.00206426
0.00207124
0.00329931
0.00413987
0.00563005
0.00734217
0.00907443
-1.38333e-05
0.000583502
-0.000353337
0.00182149
0.00282538
0.00328554
0.00161612
0.00315719
0.00260177
0.00252855
0.00256171
0.00340143
0.000177767
0.00199983
0.00211165
0.00325563
0.00416905
0.00557574
0.00725653
0.00887182
-1.54859e-05
0.000593226
-0.000331767
0.0018232
0.00280651
0.00333027
0.00163187
0.0031422
0.00263761
0.00250371
0.00260318
0.00331376
0.000264765
0.00192847
0.00215226
0.00320648
0.00419498
0.00552132
0.0071553
0.00867219
-1.72763e-05
0.000604653
-0.000304156
0.00182893
0.00278565
0.00337478
0.00164851
0.00312524
0.00267518
0.00247884
0.00264395
0.00322478
0.000354798
0.00185098
0.00219286
0.00315345
0.00421507
0.00546769
0.00703849
0.00847418
-1.91333e-05
0.000617813
-0.000270092
0.00183892
0.0027631
0.00341833
0.00166612
0.00310623
0.00271423
0.00245428
0.00268336
0.00313657
0.000449688
0.00176985
0.00223295
0.00309897
0.00422706
0.00541491
0.00690793
0.00827686
-2.09983e-05
0.000632574
-0.000229998
0.00185274
0.00273938
0.00346022
0.00168509
0.00308507
0.00275439
0.00243046
0.00272104
0.00305143
0.000550692
0.00168981
0.00227229
0.00304627
0.00422937
0.00536303
0.00676745
0.00808032
-2.28253e-05
0.00064872
-0.000184919
0.00186956
0.0027151
0.00349974
0.00170603
0.00306164
0.00279536
0.0024078
0.00275694
0.00297148
0.000658373
0.00161671
0.00231089
0.00299918
0.00422202
0.0053125
0.00662234
0.00788618
-2.45804e-05
0.000666027
-0.000136149
0.00188841
0.00269089
0.00353612
0.00172962
0.00303582
0.00283684
0.00238674
0.00279126
0.00289824
0.000772441
0.00155607
0.00234875
0.00296179
0.00420692
0.0052643
0.00647833
0.00769721
-2.62378e-05
0.000684316
-8.48823e-05
0.00190846
0.00266729
0.0035686
0.00175645
0.00300752
0.00287851
0.00236775
0.00282438
0.00283229
0.000891539
0.00151224
0.00238578
0.00293772
0.00418721
0.00521994
0.00634076
0.00751651
-2.77726e-05
0.00070347
-3.19913e-05
0.0019291
0.00264471
0.00359659
0.00178693
0.00297671
0.00292015
0.00235137
0.00285673
0.00277343
0.00101334
0.00148746
0.00242206
0.00292938
0.00416582
0.00518088
0.00621395
0.00734669
-2.916e-05
0.000723415
2.20174e-05
0.00194995
0.00262345
0.00361967
0.00182124
0.00294337
0.00296162
0.00233802
0.00288869
0.00272119
0.00113498
0.0014818
0.00245785
0.00294162
0.00414448
0.00514754
0.00610052
0.00718946
-3.0375e-05
0.000744104
7.694e-05
0.00197082
0.00260371
0.00363763
0.00185939
0.00290756
0.00300282
0.00232792
0.00292028
0.00267514
0.00125377
0.00149415
0.00249305
0.00296433
0.00412414
0.00511875
0.00600065
0.00704538
-3.13884e-05
0.0007655
0.00013278
0.00199165
0.00258565
0.00365041
0.00190118
0.0028694
0.00304351
0.00232123
0.00295097
0.00263528
0.0013675
0.00152252
0.00252713
0.00299865
0.00410564
0.00509297
0.00591222
0.00691329
-3.21633e-05
0.000787559
0.000189653
0.00201239
0.00256943
0.00365802
0.00194629
0.00282915
0.00308334
0.00231809
0.00297985
0.00260217
0.00147434
0.00156411
0.00255911
0.00304124
0.00408934
0.00506907
0.00583316
0.00679061
-3.26553e-05
0.000810234
0.000247713
0.00203298
0.00255519
0.00366052
0.00199439
0.00278719
0.00312182
0.00231872
0.00300582
0.0025765
0.00157317
0.00161573
0.002588
0.00308921
0.0040743
0.0050439
0.00576172
0.00667593
-3.28123e-05
0.000833466
0.000307114
0.00205331
0.00254309
0.00365804
0.00204525
0.00274394
0.00315837
0.0023237
0.00302747
0.00255875
0.00166383
0.00167408
0.00261304
0.00313987
0.00405961
0.00501413
0.00569458
0.00656813
-3.25719e-05
0.000857189
0.000367985
0.00207329
0.00253333
0.00365064
0.00209871
0.00269997
0.00319206
0.0023341
0.00304361
0.00254881
0.00174638
0.00173603
0.00263192
0.00318917
0.00404331
0.00497943
0.00563129
0.00646474
-3.18628e-05
0.000881324
0.000430436
0.0020928
0.00252614
0.00363836
0.00215444
0.00265631
0.00322162
0.00235084
0.00305384
0.00254637
0.00182124
0.00179858
0.00265274
0.00323661
0.00402401
0.0049355
0.00557176
0.00636713
-3.06048e-05
0.000905781
0.000494568
0.00211174
0.00252169
0.00362123
0.00221194
0.00261397
0.00324597
0.00237453
0.00305784
0.00255071
0.00188957
0.00186008
0.00266974
0.00328487
0.00400644
0.00488014
0.00550902
0.00627561
-2.87052e-05
0.000930454
0.000560444
0.00213004
0.00252008
0.00359716
0.00227099
0.00257376
0.00326379
0.00240581
0.00305599
0.00256021
0.00195228
0.00191964
0.00268346
0.00332819
0.00399078
0.00481832
0.00544292
0.00618669
-2.60589e-05
0.000955229
0.000628133
0.00214754
0.00252155
0.00357043
0.00233098
0.00253713
0.00327407
0.00244391
0.00304952
0.00257415
0.00201125
0.00197403
0.00269448
0.00336771
0.00397445
0.00474803
0.00537383
0.00610112
-2.25539e-05
0.000979967
0.000697738
0.00216415
0.00252614
0.00353963
0.00239068
0.00250563
0.00327631
0.00248913
0.00303765
0.00259151
0.00206891
0.00202366
0.00269909
0.00340275
0.0039656
0.00467747
0.00529294
0.00601544
-1.80606e-05
0.00100452
0.000769232
0.00217992
0.00253368
0.00350559
0.00244906
0.0024807
0.00326916
0.00254234
0.00302148
0.00260872
0.00212578
0.00207002
0.00269791
0.00342838
0.00395423
0.00460605
0.00522017
0.00593153
-1.24252e-05
0.00102877
0.000842669
0.00219469
0.00254429
0.00346816
0.00250471
0.00246319
0.00325364
0.00259994
0.00300529
0.00262424
0.00218106
0.00211365
0.00269015
0.00344142
0.00394384
0.00452633
0.0051484
0.00585151
-5.57744e-06
0.00105262
0.000918021
0.0022086
0.00255748
0.00342908
0.00255675
0.00245307
0.00323089
0.00266021
0.00299088
0.00263491
0.00223756
0.00215614
0.00267607
0.00345832
0.00394528
0.00445099
0.00503823
0.00576795
2.66244e-06
0.0010758
0.000995256
0.00222182
0.00257293
0.00338861
0.00260505
0.00245022
0.0032014
0.0027224
0.00298162
0.00263573
0.00229707
0.00219467
0.00266028
0.00345042
0.00393655
0.00437519
0.00494029
0.00568705
1.26357e-05
0.0010981
0.00107461
0.00223404
0.00259082
0.00334699
0.0026471
0.00245563
0.00316675
0.00278331
0.00298007
0.00263092
0.00235085
0.00223949
0.00264121
0.00345489
0.00393261
0.00430264
0.00479038
0.00560833
2.42342e-05
0.00111974
0.00115546
0.00224631
0.0026092
0.00330824
0.00268179
0.00246982
0.00312527
0.00284424
0.00298381
0.00262503
0.00239512
0.00228665
0.00261454
0.0034055
0.00392524
0.0042491
0.00468057
0.0055274
3.76105e-05
0.00114025
0.00123796
0.00225875
0.00262779
0.0032715
0.00271158
0.0024885
0.00308294
0.00290029
0.00299451
0.00261347
0.00243494
0.00232548
0.00258228
0.00334328
0.003898
0.00420814
0.00464125
0.00544417
5.34836e-05
0.00115922
0.00132292
0.00227085
0.00264732
0.00323526
0.0027355
0.00251193
0.00304358
0.00294558
0.00301604
0.00259629
0.00246406
0.00237858
0.0025514
0.00327881
0.00387345
0.00417374
0.00450052
0.00536674
7.14607e-05
0.00117728
0.00140833
0.002285
0.0026641
0.00320654
0.00275118
0.00254185
0.00300199
0.00298751
0.00304132
0.00258433
0.00247668
0.00241359
0.00252049
0.003211
0.00383598
0.00415461
0.00444426
0.00529612
9.16928e-05
0.00119393
0.001494
0.0023011
0.00267855
0.00318207
0.00276397
0.00257071
0.00296731
0.00301992
0.00306874
0.00257373
0.00248094
0.00242579
0.00249123
0.00313543
0.0037805
0.0041454
0.00449126
0.00522416
0.000115356
0.00120862
0.00158196
0.00231816
0.00269325
0.00315541
0.00277532
0.00259773
0.00294308
0.00303763
0.00310046
0.00255962
0.00247623
0.00247375
0.00246777
0.00304944
0.00372667
0.00410252
0.00434092
0.005169
0.000141541
0.00122242
0.00166853
0.00234019
0.0027025
0.00313899
0.00277974
0.00262915
0.00291806
0.00305567
0.00313053
0.00255062
0.00245094
0.00248505
0.00244482
0.0029798
0.00365769
0.00406539
0.00432491
0.0051347
0.000170522
0.00123467
0.0017526
0.00236712
0.00270792
0.00312605
0.00278451
0.00265798
0.00289876
0.00306897
0.00315921
0.00254193
0.00240821
0.00247674
0.00242787
0.00290631
0.00356178
0.00404689
0.00446879
0.00510362
0.000203848
0.00124505
0.00183912
0.00239569
0.0027158
0.00310442
0.00279159
0.00268286
0.00288798
0.00307181
0.00318461
0.00254104
0.00237341
0.00247445
0.00241496
0.00281791
0.00347349
0.00396336
0.00428851
0.00508354
0.00023984
0.00125519
0.00191968
0.0024321
0.00271673
0.00309709
0.00279188
0.00271514
0.00287237
0.00307462
0.00320774
0.00253474
0.00233046
0.00245624
0.00239389
0.00274556
0.00336329
0.00388909
0.00428797
0.00508425
0.000279426
0.0012643
0.00199527
0.00247502
0.00271561
0.00308983
0.00279519
0.00274429
0.00286289
0.00306927
0.0032291
0.00253332
0.0022719
0.00241888
0.00236571
0.00266907
0.00321634
0.00384791
0.00449015
0.00508819
0.000324044
0.00127227
0.00207312
0.00251966
0.00272308
0.00306142
0.00280897
0.0027646
0.00286334
0.00305443
0.00324217
0.00255264
0.00223231
0.00238334
0.00234126
0.00257287
0.00307024
0.00365593
0.00421166
0.00509818
0.000371446
0.00128119
0.00213888
0.00257178
0.00272911
0.00303942
0.00281829
0.00278866
0.00286129
0.00303679
0.00324664
0.00257975
0.00220525
0.00232949
0.00230304
0.00245898
0.00290969
0.00344447
0.00406598
0.00514436
0.000423479
0.00129012
0.00219979
0.00262926
0.00273673
0.00301959
0.00282195
0.00281393
0.00286385
0.00301009
0.00324149
0.00261826
0.0021682
0.00226166
0.00225872
0.0023699
0.00275889
0.00328135
0.003982
0.00517163
0.00048032
0.00129962
0.00225491
0.00268961
0.00275107
0.00299621
0.00282204
0.00283851
0.00286628
0.00298
0.00323081
0.00264824
0.00213651
0.0022026
0.00219515
0.00228214
0.0026438
0.00315226
0.00389158
0.00518753
0.000540949
0.00131065
0.00230086
0.002753
0.00277044
0.00297385
0.00281889
0.00285727
0.00287017
0.00295168
0.00320872
0.00267301
0.00211965
0.00213409
0.00211954
0.00222462
0.002552
0.00302669
0.0038206
0.00519875
0.00060649
0.00132311
0.00234043
0.00281673
0.00279599
0.00295294
0.00281202
0.00286948
0.0028783
0.0029208
0.00317638
0.0027017
0.00210279
0.00205904
0.00205842
0.0021557
0.00244988
0.00293814
0.00377602
0.00518604
0.00067655
0.00133751
0.00237255
0.00287964
0.00282833
0.00293392
0.00280205
0.00287728
0.00288369
0.00289223
0.00314105
0.00272037
0.00209097
0.00199564
0.00199033
0.00206555
0.00237032
0.00289019
0.00372926
0.00515167
0.000751235
0.00135396
0.0023983
0.00294063
0.00286558
0.00291828
0.00279073
0.00287758
0.00288881
0.00286723
0.0030975
0.00273578
0.00208738
0.00193037
0.00191217
0.00200176
0.00231622
0.00283289
0.00366261
0.00513342
0.000830374
0.00137315
0.00241796
0.0029979
0.00290639
0.00290785
0.00277825
0.00287238
0.0028907
0.00284508
0.00305029
0.00274443
0.00208676
0.00186826
0.00184235
0.00192959
0.00223878
0.0027604
0.00363734
0.005145
0.000913949
0.00139542
0.00243179
0.00305056
0.00295015
0.00290305
0.0027653
0.00286156
0.0028891
0.00282602
0.00299829
0.0027469
0.00209366
0.00181184
0.00177118
0.0018481
0.00216369
0.00271389
0.0036269
0.00515616
0.00100195
0.00142119
0.00244049
0.00309807
0.00299446
0.00290366
0.00275368
0.00284826
0.00288409
0.00280893
0.00294475
0.00274064
0.00210468
0.00176112
0.00169764
0.00176941
0.00209487
0.00266774
0.00361858
0.00517246
0.00109388
0.00145128
0.00244436
0.00314045
0.00303804
0.00290817
0.00274462
0.00283415
0.00287525
0.00279368
0.00289103
0.00272326
0.00211835
0.00171859
0.00162654
0.00170626
0.0020298
0.0026217
0.00360516
0.00519526
0.00118883
0.001486
0.00244413
0.00317756
0.00314137
0.00291339
0.00273671
0.0028198
0.00286409
0.00278085
0.00283993
0.00269437
0.00213142
0.00168676
0.00155892
0.00162557
0.00195866
0.00257377
0.00359854
0.00522276
0.00128709
0.00152595
0.0024411
0.00320689
0.00316017
0.00292097
0.00272971
0.00280596
0.00285271
0.00276979
0.00279452
0.00265577
0.00213965
0.00166529
0.00149604
0.0015432
0.00188612
0.00253126
0.00358768
0.00524874
0.00138878
0.00157203
0.00243683
0.0032282
0.00320726
0.00293111
0.00271649
0.00279223
0.00284244
0.00275924
0.00275427
0.00261102
0.00214103
0.0016522
0.00144243
0.00146502
0.00180729
0.00248055
0.00357689
0.00527548
0.00149131
0.00162468
0.00243298
0.00324175
0.0032456
0.00293808
0.00270193
0.00277887
0.0028346
0.0027483
0.00271998
0.00256293
0.0021321
0.0016446
0.00140025
0.00139348
0.00172465
0.00242414
0.0035584
0.00530277
0.00159435
0.00168517
0.00242987
0.00324616
0.00327595
0.00294458
0.00268804
0.00276615
0.00283097
0.00273654
0.00268939
0.00251526
0.00211166
0.00163771
0.00136798
0.00133163
0.00164006
0.00235527
0.00353465
0.00532778
0.00169826
0.00175303
0.00242715
0.00324087
0.00329964
0.00295504
0.0026762
0.00275329
0.00283039
0.00272391
0.00266001
0.00246976
0.00208258
0.00162748
0.00134284
0.00128237
0.00155961
0.00227816
0.00349756
0.00534639
0.00180188
0.00182742
0.00242644
0.00322451
0.00332021
0.00297041
0.00266735
0.00273722
0.00283123
0.00271066
0.00262912
0.00242882
0.00204793
0.00161161
0.00132249
0.0012455
0.00148744
0.00219655
0.00344844
0.00535617
0.00190475
0.00190809
0.00242912
0.00320121
0.00333605
0.00299085
0.00266207
0.00271521
0.00283016
0.00269877
0.00259654
0.00239353
0.00201241
0.00159067
0.00130248
0.00121761
0.0014278
0.00211877
0.00338944
0.00535411
0.00200681
0.0019936
0.0024358
0.0031722
0.00334642
0.00301543
0.00265988
0.00268624
0.00282553
0.0026916
0.00256344
0.00236255
0.0019789
0.00156442
0.0012785
0.00119443
0.0013822
0.00205035
0.00332768
0.00534245
0.00210763
0.00208283
0.00244745
0.00313938
0.00335083
0.00304179
0.00266148
0.00265224
0.00281547
0.00269037
0.00253072
0.00233173
0.00194821
0.00153528
0.00125045
0.0011731
0.00135921
0.00199676
0.00327217
0.0053262
0.00220693
0.00217493
0.00246481
0.0031039
0.00334817
0.00306822
0.00266914
0.00261635
0.00279725
0.00269365
0.00249947
0.0022987
0.00192153
0.00150738
0.00121846
0.00114709
0.0013337
0.00195624
0.00322753
0.00530932
0.0023045
0.00226904
0.00248834
0.00306704
0.00333824
0.00309354
0.00268377
0.00258115
0.00276829
0.00269784
0.00247212
0.00226346
0.00189738
0.00148236
0.00118487
0.00111475
0.00131004
0.00192714
0.00319574
0.0052969
0.00240014
0.00236434
0.00251831
0.00303027
0.00332116
0.00311616
0.00270474
0.00254903
0.00272819
0.00269939
0.00245067
0.00222679
0.00187382
0.00146052
0.00115339
0.00107748
0.00128505
0.00190671
0.00317603
0.00529089
0.00249373
0.00245999
0.00255467
0.00299519
0.00329744
0.00313439
0.00273042
0.00252323
0.00267922
0.00269435
0.00243537
0.00219014
0.00184965
0.00144069
0.00112566
0.00103878
0.00125547
0.00188944
0.00316546
0.00529152
0.00258525
0.00255526
0.00259714
0.00296311
0.00326787
0.00314686
0.00275924
0.00250638
0.00262392
0.0026789
0.00242513
0.00215504
0.00182347
0.00142152
0.00110209
0.0010018
0.00122169
0.00187043
0.00315876
0.00529635
0.0026746
0.00264941
0.00264547
0.00293521
0.00323354
0.00315263
0.00278876
0.00249933
0.00256574
0.00265126
0.00241717
0.00212214
0.0017953
0.00140309
0.00108197
0.000968081
0.00118538
0.00184615
0.0031493
0.00530157
0.00276185
0.00274184
0.00269891
0.00291245
0.00319573
0.00315138
0.0028164
0.0025017
0.00250963
0.00261126
0.00240751
0.00209229
0.0017657
0.00138423
0.00106371
0.000938159
0.00114792
0.00181547
0.00313341
0.00530403
0.00284702
0.00283209
0.0027567
0.00289561
0.0031556
0.00314294
0.00284023
0.0025123
0.0024593
0.00255984
0.00239255
0.00206606
0.00173469
0.0013633
0.00104648
0.000911764
0.00111058
0.00177986
0.00311053
0.00530138
0.00293017
0.00291966
0.00281788
0.00288525
0.00311445
0.0031279
0.00285868
0.0025286
0.00241726
0.00249944
0.00236965
0.00204228
0.0017025
0.00133976
0.00102912
0.000887615
0.00107429
0.0017414
0.00308159
0.00529253
0.00301138
0.00300431
0.0028814
0.0028816
0.00307333
0.00310702
0.00287074
0.00254727
0.00238538
0.00243439
0.00233672
0.00201877
0.00167012
0.00131271
0.0010092
0.000864683
0.00103976
0.00170148
0.00304763
0.00527721
0.0030907
0.0030857
0.00294623
0.00288477
0.00303369
0.00308112
0.00287574
0.00256554
0.00236397
0.00236866
0.0022923
0.00199274
0.00163804
0.00128174
0.00098544
0.000841816
0.00100648
0.0016614
0.0030105
0.00525606
0.00316821
0.00316378
0.00301126
0.00289446
0.00299658
0.00305106
0.0028738
0.00258098
0.00235166
0.00230574
0.00223701
0.00196123
0.00160596
0.00124835
0.000956972
0.000816573
0.000971691
0.00162249
0.00297216
0.00523006
0.00324382
0.00323839
0.00307563
0.00291039
0.00296314
0.00301751
0.00286533
0.00259141
0.00234521
0.00224911
0.00217358
0.00192113
0.00157208
0.00121352
0.000923491
0.000788678
0.000949145
0.00158775
0.00293441
0.00520036
0.00331761
0.00330957
0.00313821
0.00293161
0.0029344
0.00298157
0.00285113
0.00259551
0.00234113
0.00220057
0.00210573
0.00187113
0.00153346
0.00117624
0.000884854
0.00075173
0.000912633
0.00155017
0.00289556
0.00516676
0.00338941
0.0033774
0.0031986
0.00295724
0.00291078
0.00294436
0.00283194
0.00259309
0.00233592
0.00215895
0.00203662
0.00181156
0.00148735
0.00113537
0.000843558
0.000714603
0.000871956
0.00150872
0.00285348
0.00512802
0.00345915
0.00344182
0.00325619
0.00298643
0.00289277
0.00290673
0.00280745
0.00258481
0.00232774
0.00212236
0.00197007
0.00174416
0.00143037
0.00108675
0.000796109
0.000666108
0.000825033
0.00146199
0.00280687
0.0050838
0.00352658
0.00350321
0.00331046
0.00301835
0.00288093
0.00286984
0.00277769
0.00256947
0.00231412
0.00208737
0.00190824
0.00167466
0.00136544
0.00102803
0.00074031
0.000609644
0.000769003
0.00140601
0.00275167
0.00503089
0.00359132
0.00356141
0.00336127
0.00305131
0.00287471
0.002837
0.00274601
0.00254852
0.00229297
0.00204649
0.00184412
0.00160249
0.00129587
0.000961842
0.000679022
0.000547369
0.000705302
0.00134072
0.00268612
0.0049669
0.00365308
0.00361722
0.00340937
0.00308462
0.00287197
0.00280555
0.00271187
0.00252482
0.00227145
0.00200379
0.00177535
0.00152163
0.00121685
0.000892941
0.000608941
0.000476985
0.000633274
0.00126625
0.00261017
0.00489135
0.0037114
0.0036696
0.00345463
0.00311972
0.00287538
0.0027766
0.00267125
0.00249058
0.00224553
0.00196325
0.0017107
0.00143949
0.00112756
0.000801273
0.000522787
0.000391016
0.000545381
0.00117598
0.00251778
0.00479807
0.00376507
0.00371956
0.00349675
0.00315458
0.00288442
0.0027555
0.00263195
0.00244501
0.0022061
0.00191528
0.00164322
0.001362
0.0010421
0.000710897
0.000428411
0.000292255
0.000441945
0.00106904
0.00240909
0.00468811
0.00381598
0.00376242
0.00353147
0.00318484
0.00289369
0.00273395
0.00259155
0.00239281
0.00215699
0.00185988
0.00156412
0.00126879
0.000946519
0.000613381
0.000325327
0.000181342
0.000322446
0.000941504
0.00227506
0.00455017
0.00386275
0.00381778
0.00358301
0.0032343
0.002922
0.00272356
0.00255292
0.00233194
0.0020931
0.00180088
0.00149195
0.00118375
0.000851925
0.000512667
0.00021585
6.01058e-05
0.0001876
0.000793277
0.00211637
0.00438737
0.00387939
0.00382315
0.00359114
0.00326197
0.00294567
0.00273017
0.00253686
0.00228559
0.00202251
0.00172123
0.00140035
0.0010778
0.000740885
0.000394682
8.85146e-05
-8.1943e-05
2.61258e-05
0.000610049
0.00191338
0.00416877
0.00397094
0.0039266
0.00367029
0.00330344
0.00293319
0.00264934
0.00242247
0.00219279
0.00197099
0.00171069
0.0013928
0.00104213
0.000677736
0.000310489
-1.24942e-05
-0.000198349
-0.000108967
0.000451942
0.00172851
0.00395207
0.00384177
0.0038331
0.00371389
0.003447
0.00312188
0.00275507
0.00235908
0.00199457
0.00174691
0.00152165
0.00123042
0.000891146
0.000516526
0.000136554
-0.000189144
-0.000370564
-0.000268021
0.000306254
0.00158938
0.00381229
0.00407625
0.00400689
0.00372658
0.00331779
0.0029051
0.00258763
0.00237723
0.00216439
0.00192856
0.00167069
0.0013497
0.000954692
0.000510984
5.06227e-05
-0.000387111
-0.000708022
-0.000753981
-0.000313741
0.000861363
0.00299956
0.00394611
0.00398408
0.00370291
0.00341549
0.00305759
0.00257471
0.00214609
0.00186101
0.00161025
0.00136537
0.00107385
0.000755189
0.000438274
0.000192494
2.01709e-05
-3.52885e-05
8.69535e-05
0.000562976
0.00165605
0.00364412
0.00418321
0.00403046
0.00371345
0.00328227
0.0028747
0.00258248
0.00243409
0.00226074
0.00198895
0.00168432
0.00127838
0.000765578
0.000158007
-0.000518055
-0.00118447
-0.00172916
-0.00198276
-0.00173991
-0.000761744
0.00118916
0.00438408
0.00392483
0.00355873
0.00314065
0.00277542
0.00234407
0.00198292
0.00178039
0.00155539
0.00122176
0.000898904
0.000659356
0.00064862
0.0009281
0.0015449
0.00241494
0.00335885
0.00409658
0.00429644
0.00363588
0.00439358
0.00399714
0.00359701
0.00322756
0.00296298
0.00274655
0.00259599
0.00241108
0.00212961
0.00170952
0.00114905
0.000404778
-0.000493823
-0.00146433
-0.0023912
-0.00318315
-0.00369941
-0.00373075
-0.00301688
-0.00132048
0.00455622
0.00396138
0.00351985
0.00314631
0.00290391
0.00256518
0.0021823
0.00168655
0.0012628
0.00103009
0.000791371
0.000434464
0.000135253
5.30946e-05
0.000276696
0.000781129
0.00147268
0.00207604
0.00221195
0.00152641
0.0045556
0.00395085
0.00352976
0.00325065
0.00316473
0.0030906
0.0030179
0.00283049
0.00249907
0.00188623
0.000969082
-0.000298116
-0.00185195
-0.00351126
-0.00503816
-0.00623726
-0.00694782
-0.00700141
-0.00617942
-0.0042865
0.0154013
0.00423839
0.000815688
0.00219485
0.00377257
0.00510417
0.00612954
0.00669281
0.00727109
0.00844962
0.00999017
0.0113769
0.0125956
0.0137427
0.0148207
0.0159883
0.0172904
0.0185807
0.0198548
0.0212296
0.0226587
0.0241012
0.0255984
0.0272345
0.0288993
0.0304664
0.0321151
0.0339594
0.0358626
0.0378372
0.0398633
0.0418387
0.0439169
0.0461341
0.0484405
0.0507502
0.053185
0.0557047
0.058325
0.0610533
0.0638278
0.066785
0.0697423
0.0729428
0.0761244
0.079444
0.0828381
0.0861491
0.0895958
0.0928073
0.0150429
0.00429617
0.000866921
0.00221716
0.0037844
0.00511149
0.00613502
0.00669721
0.00727445
0.00845224
0.00999237
0.0113787
0.0125971
0.0137439
0.0148218
0.0159892
0.0172912
0.0185815
0.0198555
0.0212302
0.0226593
0.0241017
0.0255988
0.027235
0.0288997
0.0304668
0.0321155
0.0339598
0.0358629
0.0378375
0.0398636
0.041839
0.0439171
0.0461343
0.0484407
0.0507504
0.0531852
0.0557048
0.0583251
0.0610535
0.063828
0.0667851
0.0697424
0.0729429
0.0761245
0.0794441
0.0828382
0.0861491
0.0895958
0.0928073
0.0146587
0.00439808
0.000950051
0.00224443
0.00379756
0.00511958
0.00614051
0.00670128
0.00727741
0.00845461
0.00999449
0.0113805
0.0125985
0.0137451
0.0148228
0.01599
0.0172919
0.0185821
0.0198561
0.0212307
0.0226598
0.0241022
0.0255993
0.0272354
0.0289001
0.0304671
0.0321158
0.0339601
0.0358632
0.0378377
0.0398638
0.0418392
0.0439173
0.0461345
0.0484409
0.0507506
0.0531853
0.0557049
0.0583252
0.0610536
0.0638281
0.0667852
0.0697425
0.0729429
0.0761246
0.0794441
0.0828383
0.0861492
0.0895958
0.0928074
0.0143053
0.00453911
0.00107122
0.00228261
0.00381532
0.00513061
0.00614729
0.00670585
0.00728061
0.00845725
0.00999694
0.0113825
0.0126001
0.0137464
0.0148239
0.0159909
0.0172926
0.0185827
0.0198566
0.0212312
0.0226603
0.0241027
0.0255997
0.0272358
0.0289005
0.0304675
0.0321161
0.0339604
0.0358635
0.037838
0.039864
0.0418394
0.0439175
0.0461347
0.048441
0.0507507
0.0531854
0.0557051
0.0583253
0.0610537
0.0638282
0.0667853
0.0697426
0.072943
0.0761247
0.0794442
0.0828383
0.0861492
0.0895959
0.0928075
0.013962
0.00470023
0.00122028
0.00233112
0.0038388
0.00514608
0.00615655
0.00671169
0.0072846
0.00846062
0.0100001
0.0113852
0.0126022
0.013748
0.0148252
0.0159919
0.0172935
0.0185835
0.0198572
0.0212317
0.0226608
0.0241032
0.0256001
0.0272362
0.0289009
0.0304679
0.0321164
0.0339607
0.0358638
0.0378382
0.0398643
0.0418397
0.0439177
0.0461348
0.0484412
0.0507509
0.0531856
0.0557052
0.0583255
0.0610538
0.0638283
0.0667854
0.0697427
0.0729431
0.0761248
0.0794443
0.0828384
0.0861493
0.089596
0.0928076
0.0136067
0.00486691
0.0013842
0.00238538
0.00386641
0.00516567
0.0061687
0.00671931
0.00728973
0.00846497
0.0100043
0.0113886
0.0126048
0.0137501
0.0148269
0.0159933
0.0172946
0.0185844
0.0198579
0.0212323
0.0226613
0.0241037
0.0256006
0.0272366
0.0289014
0.0304683
0.0321167
0.033961
0.0358641
0.0378385
0.0398646
0.0418399
0.0439179
0.046135
0.0484414
0.050751
0.0531857
0.0557053
0.0583256
0.0610539
0.0638284
0.0667855
0.0697428
0.0729432
0.0761249
0.0794444
0.0828385
0.0861494
0.0895961
0.0928078
0.0132349
0.00503329
0.00155667
0.00244224
0.00389603
0.005188
0.00618337
0.00672882
0.00729613
0.00847037
0.0100094
0.011393
0.0126081
0.0137527
0.014829
0.0159951
0.017296
0.0185854
0.0198588
0.021233
0.0226619
0.0241042
0.0256011
0.0272371
0.0289019
0.0304687
0.032117
0.0339613
0.0358644
0.0378388
0.0398649
0.0418402
0.0439181
0.0461353
0.0484416
0.0507512
0.0531859
0.0557055
0.0583257
0.0610541
0.0638285
0.0667857
0.0697429
0.0729433
0.076125
0.0794445
0.0828386
0.0861495
0.0895963
0.092808
0.0128494
0.00519755
0.00173529
0.00250024
0.00392623
0.00521178
0.00619985
0.00673998
0.00730369
0.00847671
0.0100157
0.0113984
0.0126122
0.0137559
0.0148318
0.0159974
0.0172978
0.0185868
0.0198598
0.0212338
0.0226625
0.0241047
0.0256016
0.0272377
0.0289025
0.0304692
0.0321173
0.0339617
0.0358648
0.0378392
0.0398652
0.0418405
0.0439184
0.0461355
0.0484418
0.0507514
0.0531861
0.0557057
0.0583259
0.0610542
0.0638286
0.0667858
0.069743
0.0729434
0.0761251
0.0794446
0.0828387
0.0861497
0.0895965
0.0928084
0.0124537
0.00535806
0.00191863
0.00255872
0.00395625
0.00523635
0.00621759
0.00675239
0.00731212
0.00848376
0.0100227
0.0114046
0.0126171
0.0137598
0.0148351
0.0160003
0.0172999
0.0185884
0.0198611
0.0212349
0.0226632
0.0241052
0.0256021
0.0272382
0.0289032
0.0304698
0.0321177
0.0339621
0.0358651
0.0378395
0.0398656
0.0418408
0.0439186
0.0461358
0.0484421
0.0507516
0.0531863
0.0557058
0.058326
0.0610544
0.0638288
0.0667859
0.0697432
0.0729435
0.0761252
0.0794447
0.0828388
0.0861499
0.0895968
0.0928088
0.0120508
0.00551288
0.00210558
0.00261752
0.0039858
0.00526143
0.00623632
0.00676573
0.0073211
0.00849125
0.0100304
0.0114116
0.0126228
0.0137642
0.0148389
0.0160035
0.0173024
0.0185902
0.0198628
0.0212362
0.0226642
0.0241059
0.0256027
0.0272388
0.0289039
0.0304704
0.0321182
0.0339625
0.0358655
0.0378399
0.039866
0.0418412
0.0439189
0.0461361
0.0484424
0.0507519
0.0531865
0.055706
0.0583262
0.0610545
0.0638289
0.066786
0.0697433
0.0729437
0.0761253
0.0794448
0.082839
0.0861501
0.0895971
0.0928092
0.0116449
0.00566065
0.00229529
0.00267672
0.00401472
0.00528689
0.00625588
0.00677975
0.00733039
0.00849898
0.0100385
0.0114192
0.0126289
0.013769
0.0148431
0.0160071
0.017305
0.0185923
0.0198647
0.0212379
0.0226653
0.0241067
0.0256032
0.0272393
0.0289047
0.0304713
0.0321188
0.033963
0.0358658
0.0378402
0.0398664
0.0418416
0.0439193
0.0461365
0.0484427
0.0507522
0.0531868
0.0557063
0.0583264
0.0610547
0.0638291
0.0667862
0.0697434
0.0729438
0.0761255
0.079445
0.0828392
0.0861504
0.0895976
0.0928098
0.0112415
0.00580101
0.00248688
0.00273632
0.00404286
0.0053125
0.00627602
0.00679422
0.00733979
0.00850677
0.0100469
0.0114273
0.0126355
0.0137742
0.0148476
0.0160109
0.0173078
0.0185944
0.0198668
0.0212398
0.0226668
0.0241077
0.0256039
0.0272397
0.0289053
0.0304721
0.0321197
0.0339636
0.0358662
0.0378405
0.0398667
0.041842
0.0439197
0.0461368
0.0484431
0.0507525
0.0531871
0.0557066
0.0583267
0.0610549
0.0638293
0.0667864
0.0697436
0.072944
0.0761256
0.0794452
0.0828394
0.0861507
0.0895982
0.0928106
0.0108475
0.00593435
0.00267927
0.00279626
0.00407003
0.00533795
0.00629632
0.00680874
0.00734907
0.00851446
0.0100554
0.0114356
0.0126425
0.0137797
0.0148523
0.016015
0.0173107
0.0185965
0.0198689
0.0212419
0.0226685
0.024109
0.0256048
0.0272401
0.0289059
0.030473
0.0321206
0.0339644
0.0358666
0.0378407
0.0398671
0.0418424
0.0439201
0.0461373
0.0484435
0.0507529
0.0531874
0.0557069
0.058327
0.0610552
0.0638295
0.0667865
0.0697437
0.0729441
0.0761258
0.0794454
0.0828397
0.0861512
0.0895989
0.0928114
0.0104698
0.0060616
0.00287144
0.00285653
0.00409604
0.00536289
0.00631619
0.00682274
0.00735795
0.00852185
0.0100638
0.011444
0.0126496
0.0137853
0.0148572
0.0160192
0.0173136
0.0185986
0.0198711
0.0212441
0.0226703
0.0241106
0.0256058
0.0272405
0.0289062
0.0304738
0.0321218
0.0339655
0.0358671
0.0378408
0.0398673
0.0418427
0.0439205
0.0461377
0.048444
0.0507534
0.0531879
0.0557073
0.0583273
0.0610555
0.0638297
0.0667868
0.0697439
0.0729443
0.076126
0.0794456