/*--------------------------------*- C++ -*----------------------------------*\
| =========                 |                                                 |
| \\      /  F ield         | OpenFOAM: The Open Source CFD Toolbox           |
|  \\    /   O peration     | Version:  v2012                                 |
|   \\  /    A nd           | Website:  www.openfoam.com                      |
|    \\/     M anipulation  |                                                 |
\*---------------------------------------------------------------------------*/
FoamFile
{
    version     2.0;
    format      ascii;
    class       volScalarField;
    location    "0.4";
    object      p;
}
// * * * * * * * * * * * * * * * * * * * * * * * * * * * * * * * * * * * * * //

dimensions      [0 2 -2 0 0 0 0];


internalField   nonuniform List<scalar> 
7000
(
2.55859e-10
0.000707612
0.00037731
0.000821325
0.00190101
0.00477769
0.00247569
0.0053241
0.00685354
0.00854284
0.0089232
0.0106602
0.0114103
0.0136501
0.0144108
0.0177497
0.0194178
0.0234289
0.0269209
0.0337616
-1.46217e-06
0.000703677
0.000380904
0.000831867
0.00190116
0.00473934
0.00248561
0.00532842
0.0068487
0.00853918
0.00891397
0.0106657
0.0114054
0.0136442
0.0144167
0.0177287
0.019441
0.023381
0.0269617
0.0334927
-3.5072e-06
0.000700627
0.000385137
0.00084185
0.00190058
0.00470238
0.00250332
0.00532889
0.00683697
0.00853629
0.00889214
0.0106801
0.0113976
0.0136428
0.0144238
0.0177033
0.0194671
0.023311
0.0269957
0.0330162
-5.27265e-06
0.000701101
0.000389056
0.000850655
0.00190292
0.00466418
0.00252173
0.00532587
0.00682312
0.00853927
0.00887644
0.0106984
0.0113908
0.0136384
0.0144327
0.0176704
0.0194943
0.0232312
0.0269942
0.0325133
-6.71121e-06
0.000704818
0.000392657
0.000859104
0.00190949
0.00462348
0.00254041
0.00532142
0.00681008
0.00854517
0.00886251
0.0107162
0.0113876
0.0136291
0.0144453
0.0176294
0.0195235
0.0231386
0.0269626
0.032032
-8.01931e-06
0.000711408
0.000396372
0.000868063
0.00192039
0.00458055
0.00256039
0.00531564
0.00679796
0.00855148
0.00885126
0.0107319
0.0113892
0.0136143
0.0144622
0.0175803
0.0195528
0.0230354
0.0269049
0.0315768
-9.3433e-06
0.000720707
0.000400835
0.000878295
0.00193507
0.00453633
0.00258155
0.00530812
0.00678647
0.0085574
0.00884303
0.0107449
0.0113956
0.0135935
0.0144831
0.0175228
0.0195805
0.0229235
0.0268212
0.0311415
-1.07718e-05
0.000732587
0.000406733
0.000890226
0.00195264
0.00449133
0.00260341
0.00529922
0.0067756
0.0085624
0.00883751
0.0107541
0.0114062
0.0135662
0.0145071
0.0174577
0.0196042
0.0228042
0.0267104
0.0307196
-1.23562e-05
0.000746945
0.000414611
0.000903935
0.00197218
0.0044455
0.00262612
0.00528959
0.00676539
0.00856566
0.00883414
0.0107585
0.0114204
0.0135323
0.0145334
0.0173857
0.0196212
0.0226793
0.0265713
0.0303067
-1.41043e-05
0.00076365
0.000424715
0.000919314
0.001993
0.00439964
0.00265033
0.00527995
0.0067559
0.00856609
0.00883238
0.0107572
0.0114378
0.0134916
0.0145609
0.0173082
0.0196287
0.0225499
0.0264036
0.0298988
-1.59848e-05
0.000782466
0.000436975
0.000936219
0.0020148
0.00435387
0.00267695
0.00527114
0.00674738
0.00856253
0.00883171
0.010749
0.011458
0.013444
0.014588
0.0172266
0.0196237
0.0224166
0.0262075
0.0294926
-1.79449e-05
0.000803043
0.000451117
0.00095454
0.00203749
0.00430868
0.00270699
0.00526421
0.00674034
0.0085538
0.00883163
0.0107334
0.0114807
0.01339
0.0146129
0.0171427
0.0196039
0.0222794
0.0259844
0.0290845
-1.99302e-05
0.000824956
0.000466817
0.000974172
0.00206106
0.00426453
0.00274134
0.00526017
0.0067353
0.00853887
0.00883193
0.0107098
0.0115055
0.0133303
0.0146335
0.017058
0.0195672
0.0221372
0.0257359
0.0286712
-2.18979e-05
0.000847783
0.000483817
0.000994976
0.00208549
0.00422171
0.00278048
0.00525963
0.00673278
0.00851716
0.00883271
0.0106783
0.0115318
0.0132664
0.0146472
0.0169739
0.0195122
0.0219885
0.0254638
0.02825
-2.38179e-05
0.000871164
0.000501982
0.00101676
0.00211067
0.00418022
0.00282436
0.00526249
0.00673312
0.00848854
0.0088343
0.0106394
0.0115586
0.0132
0.0146517
0.0168911
0.0194385
0.0218314
0.02517
0.0278188
-2.56676e-05
0.000894831
0.000521282
0.00103932
0.00213649
0.00413981
0.00287247
0.00526805
0.00673641
0.00845325
0.00883721
0.010594
0.0115847
0.0131332
0.0146449
0.0168095
0.0193461
0.0216638
0.0248565
0.0273759
-2.74228e-05
0.000918602
0.000541749
0.00106245
0.00216281
0.00410002
0.00292402
0.00527511
0.00674248
0.00841176
0.00884183
0.0105434
0.011608
0.0130678
0.0146251
0.0167285
0.0192358
0.0214834
0.024525
0.0269209
-2.90568e-05
0.000942363
0.000563438
0.001086
0.00218955
0.00406037
0.00297821
0.0052824
0.00675103
0.00836468
0.00884816
0.0104893
0.0116267
0.0130054
0.0145913
0.0166468
0.0191089
0.0212882
0.0241768
0.0264537
-3.05397e-05
0.000966044
0.000586409
0.00110983
0.00221667
0.00402042
0.00303439
0.0052888
0.00676177
0.00831266
0.00885565
0.0104337
0.0116388
0.0129467
0.0145433
0.0165623
0.0189669
0.0210768
0.0238128
0.0259749
-3.18361e-05
0.0009896
0.000610711
0.00113387
0.00224418
0.00397983
0.00309216
0.00529358
0.00677434
0.00825638
0.00886324
0.0103783
0.0116426
0.0128921
0.0144812
0.0164723
0.0188113
0.0208483
0.0234334
0.0254852
-3.29042e-05
0.00101299
0.000636382
0.00115806
0.0022721
0.00393841
0.00315128
0.00529635
0.0067884
0.00819669
0.00886944
0.0103249
0.0116366
0.0128411
0.014406
0.0163742
0.0186433
0.0206029
0.0230393
0.0249854
-3.36964e-05
0.00103617
0.000663457
0.00118236
0.00230047
0.00389606
0.00321166
0.005297
0.0068036
0.00813459
0.00887242
0.0102747
0.0116201
0.0127927
0.014319
0.0162652
0.0184632
0.0203409
0.0226313
0.0244763
-3.416e-05
0.00105908
0.000691977
0.00120674
0.00232935
0.00385275
0.0032732
0.00529568
0.00681943
0.00807118
0.00887043
0.0102287
0.0115929
0.012745
0.0142219
0.0161428
0.0182705
0.020063
0.0222102
0.0239591
-3.42363e-05
0.00108164
0.000721987
0.00123117
0.00235876
0.00380851
0.00333579
0.00529277
0.00683501
0.00800774
0.00886211
0.0101874
0.011555
0.0126962
0.0141165
0.0160052
0.0180645
0.0197702
0.021777
0.0234346
-3.38615e-05
0.00110378
0.000753533
0.00125563
0.00238877
0.00376342
0.00339924
0.00528879
0.00684931
0.00794561
0.00884643
0.0101505
0.0115074
0.0126436
0.0140041
0.0158512
0.017844
0.0194637
0.0213329
0.0229038
-3.29681e-05
0.00112539
0.000786672
0.00128009
0.00241939
0.00371757
0.00346326
0.00528453
0.00686121
0.00788567
0.00882251
0.0101182
0.0114512
0.0125844
0.0138857
0.0156807
0.0176079
0.0191439
0.0208791
0.022368
-3.1483e-05
0.00114634
0.000821469
0.00130454
0.00245064
0.00367118
0.00352739
0.00528088
0.00686962
0.00782865
0.00878999
0.0100892
0.0113882
0.0125158
0.013761
0.0154944
0.017355
0.0188109
0.0204169
0.0218286
-2.93243e-05
0.00116649
0.000857983
0.00132895
0.00248246
0.00362454
0.00359092
0.00527883
0.00687353
0.00777518
0.00874887
0.010062
0.0113207
0.012436
0.0136288
0.015293
0.0170847
0.0184645
0.019948
0.0212872
-2.64038e-05
0.00118569
0.000896258
0.00135334
0.00251475
0.00357804
0.00365303
0.00527934
0.00687219
0.00772546
0.00869931
0.0100347
0.0112507
0.0123441
0.0134873
0.015077
0.0167967
0.0181044
0.0194735
0.0207459
-2.26316e-05
0.00120378
0.000936335
0.00137775
0.00254738
0.00353215
0.0037128
0.00528323
0.00686498
0.00767954
0.00864209
0.0100047
0.0111798
0.0122397
0.0133346
0.0148464
0.0164912
0.0177299
0.0189945
0.0202067
-1.79079e-05
0.0012206
0.000978241
0.0014022
0.00258017
0.00348744
0.00376924
0.0052911
0.00685164
0.00763703
0.0085785
0.00996898
0.0111086
0.0121234
0.0131692
0.0146012
0.0161682
0.0173413
0.0185117
0.0196715
-1.21205e-05
0.00123598
0.00102196
0.00142679
0.00261286
0.0034446
0.00382143
0.00530336
0.00683213
0.0075968
0.00851065
0.00992555
0.0110364
0.0119965
0.0129901
0.0143409
0.0158274
0.0169394
0.0180266
0.0191414
-5.15568e-06
0.00124974
0.00106744
0.00145165
0.00264507
0.00340447
0.00386855
0.00532018
0.00680637
0.00755758
0.00844117
0.00987301
0.0109612
0.0118602
0.012797
0.0140656
0.0154699
0.0165247
0.0175401
0.0186175
3.10405e-06
0.00126171
0.00111466
0.001477
0.00267631
0.00336786
0.00390997
0.00534134
0.00677481
0.00751824
0.00837173
0.00981027
0.0108806
0.0117144
0.0125895
0.0137758
0.0150971
0.0160976
0.0170524
0.0181007
1.27822e-05
0.00127172
0.00116348
0.00150313
0.00270604
0.00333545
0.0039452
0.00536632
0.00673875
0.00747698
0.00830294
0.00973759
0.0107925
0.0115581
0.0123677
0.0134724
0.0147108
0.0156596
0.0165638
0.0175912
2.39988e-05
0.00127962
0.0012137
0.00153039
0.00273373
0.00330777
0.00397404
0.00539435
0.00669984
0.00743173
0.00823485
0.00965619
0.0106957
0.0113904
0.0121313
0.0131569
0.0143133
0.0152126
0.016074
0.0170879
3.68817e-05
0.00128529
0.00126509
0.00155921
0.00275876
0.00328518
0.00399658
0.00542418
0.00666016
0.0073812
0.00816656
0.00956678
0.0105894
0.0112117
0.0118803
0.0128298
0.013907
0.0147579
0.0155825
0.0165905
5.15686e-05
0.00128861
0.00131737
0.0015901
0.00278061
0.0032679
0.00401318
0.00545399
0.0066215
0.00732463
0.00809578
0.00946943
0.0104736
0.0110231
0.011615
0.0124911
0.0134934
0.0142976
0.015089
0.0160983
6.817e-05
0.00128951
0.00137014
0.00162364
0.00279886
0.00325597
0.0040246
0.00548156
0.00658503
0.00726172
0.00802184
0.00936401
0.0103485
0.0108253
0.0113367
0.0121415
0.0130727
0.0138342
0.0145951
0.0156104
8.68142e-05
0.00128795
0.00142283
0.00166043
0.00281321
0.00324904
0.0040321
0.00550476
0.00655158
0.00719379
0.00794226
0.00924921
0.0102135
0.0106195
0.011047
0.0117822
0.0126454
0.0133693
0.0141031
0.0151263
0.000107667
0.00128396
0.00147479
0.00170093
0.00282361
0.00324646
0.00403708
0.00552204
0.00652082
0.00712272
0.00784984
0.00912293
0.0100678
0.010407
0.0107469
0.0114141
0.0122122
0.0129029
0.0136157
0.0146469
0.000130827
0.00127767
0.00152531
0.00174539
0.00283047
0.00324717
0.00404131
0.00553248
0.00649093
0.00704976
0.00774747
0.00898406
0.00991087
0.0101892
0.010437
0.0110383
0.0117741
0.0124351
0.0131354
0.0141736
0.00015637
0.00126928
0.00157364
0.00179397
0.00283425
0.00324985
0.00404638
0.00553573
0.00645998
0.00697523
0.00763945
0.00883232
0.00974171
0.00996726
0.0101185
0.0106547
0.0113325
0.0119662
0.0126631
0.0137079
0.0001844
0.00125904
0.00161897
0.00184667
0.00283581
0.00325291
0.00405301
0.0055326
0.00642642
0.0068986
0.00752686
0.00866866
0.00955951
0.00974231
0.00979312
0.0102622
0.0108893
0.0114966
0.0121983
0.0132512
0.000215003
0.00124725
0.00166053
0.00190323
0.00283629
0.00325478
0.00406145
0.00552432
0.00638889
0.00681865
0.0074084
0.00849459
0.00936406
0.00951471
0.00946308
0.00985973
0.0104463
0.0110273
0.0117393
0.0128042
0.000248285
0.00123414
0.00169752
0.00196316
0.00283687
0.0032546
0.00407176
0.00551178
0.00634637
0.00673436
0.00728367
0.00831105
0.00915538
0.00928438
0.00913156
0.00944598
0.0100021
0.0105606
0.0112845
0.0123663
0.00028432
0.001218
0.00172928
0.00202581
0.00283892
0.00325193
0.00408213
0.00549558
0.00629872
0.00664542
0.00715199
0.00811846
0.0089338
0.00905067
0.00880269
0.00902164
0.00955429
0.0100977
0.010833
0.0119363
0.000323117
0.00120312
0.00175523
0.00209031
0.0028437
0.00324648
0.00409091
0.00547626
0.00624638
0.00655171
0.00701278
0.00791711
0.00869969
0.00881208
0.00848059
0.00859058
0.00909982
0.00963714
0.0103843
0.0115136
0.000364704
0.00118858
0.00177488
0.00215557
0.00285217
0.00323872
0.00409615
0.00545376
0.00618985
0.00645345
0.00686563
0.00770703
0.00845314
0.00856629
0.00816793
0.00815777
0.00863624
0.00917775
0.00993914
0.0110972
0.000409079
0.00117437
0.00178807
0.00222034
0.00286493
0.00322956
0.00409639
0.00542735
0.00612942
0.00635128
0.00671089
0.00748803
0.00819479
0.00831092
0.00786505
0.00772863
0.00816259
0.00871847
0.00949751
0.0106852
0.000456169
0.00116085
0.00179488
0.00228319
0.0028821
0.00322021
0.0040913
0.0053959
0.00606479
0.00624606
0.00654975
0.00726036
0.0079256
0.00804413
0.00757013
0.00730893
0.00768086
0.00825745
0.00905918
0.0102765
0.000505907
0.00114827
0.00179545
0.00234272
0.00290332
0.00321211
0.00407973
0.00535838
0.00599532
0.00613834
0.00638424
0.00702432
0.00764614
0.00776486
0.00727927
0.00690487
0.00719668
0.00778963
0.00862179
0.00987191
0.00055814
0.00113706
0.00179004
0.00239765
0.00292777
0.00320648
0.00406382
0.00531406
0.00592006
0.00602751
0.00621722
0.00678111
0.00735654
0.00747312
0.00698827
0.0065199
0.00671718
0.00731191
0.00818201
0.00947243
0.000612576
0.00112775
0.00177925
0.0024467
0.00295404
0.00320407
0.00404408
0.00526253
0.00583858
0.00591254
0.0060499
0.00653273
0.00705735
0.00717007
0.00669447
0.00615209
0.00624735
0.00682761
0.00773853
0.00907619
0.00066871
0.00112099
0.00176408
0.00248862
0.00298051
0.00320515
0.0040213
0.00520377
0.00575106
0.00579216
0.00588164
0.00628163
0.00674971
0.00685663
0.00639673
0.00579842
0.00579079
0.00634246
0.00728978
0.00867977
0.000725963
0.00111739
0.00174549
0.00252233
0.00300587
0.00320925
0.00399669
0.00513811
0.00565681
0.00566569
0.00571139
0.00603091
0.00643419
0.00653302
0.00609494
0.00545649
0.0053514
0.0058614
0.00683518
0.00828066
0.00078379
0.00111751
0.00172452
0.00254692
0.0030289
0.00321497
0.0039712
0.00506683
0.00555585
0.00553318
0.00553741
0.00578198
0.0061126
0.0061995
0.00578928
0.00512617
0.00493206
0.00538663
0.0063743
0.00787825
0.000841611
0.00112192
0.00170233
0.00256171
0.00304809
0.00322101
0.00394518
0.00499134
0.00544947
0.00539478
0.005357
0.00553446
0.0057885
0.00585557
0.00547934
0.00480793
0.00453172
0.00492226
0.00591079
0.00747131
0.000898959
0.00113092
0.00167985
0.00256642
0.00306199
0.00322624
0.00391876
0.00491207
0.00533927
0.00523941
0.00516844
0.00528743
0.00546516
0.00550139
0.00516289
0.00450002
0.00415107
0.00447596
0.00545134
0.00705765
0.000955496
0.00114436
0.00165812
0.00256159
0.00306927
0.00322881
0.00389155
0.0048298
0.00522639
0.00508951
0.00497158
0.00503926
0.00514495
0.00513905
0.00483621
0.00420084
0.00379378
0.0040514
0.00499983
0.00663913
0.00101092
0.00116192
0.00163806
0.00254788
0.00306912
0.00322686
0.00386235
0.00474554
0.00511053
0.00494412
0.00476866
0.00478846
0.00482905
0.00477162
0.00449683
0.00390723
0.00346015
0.00364859
0.00456347
0.00622307
0.00106495
0.00118307
0.00162071
0.00252597
0.00306089
0.00321931
0.00382911
0.00465981
0.00499102
0.00480277
0.00456416
0.00453381
0.00451896
0.00440444
0.00414234
0.00361258
0.00314913
0.00326976
0.0041459
0.00581424
0.00111738
0.00120698
0.00160665
0.00249731
0.00304408
0.00320498
0.00378998
0.00457281
0.00487574
0.00466359
0.00436267
0.00427574
0.00421492
0.00404213
0.00377417
0.00330914
0.00285821
0.00292155
0.00374996
0.00541263
0.001168
0.00123293
0.00159616
0.00246346
0.00301858
0.00318296
0.00374252
0.00448496
0.00474872
0.00452597
0.00416579
0.00401496
0.00391588
0.00368985
0.00339953
0.00299075
0.00257944
0.00260652
0.00338004
0.00502028
0.00121653
0.00126044
0.00158944
0.00242582
0.00298409
0.00315355
0.00368491
0.00439473
0.0046186
0.00438812
0.00397614
0.00375207
0.00361942
0.00335147
0.00302631
0.00265576
0.00230188
0.00231827
0.00304136
0.00464504
0.00126278
0.00128904
0.00158591
0.00238634
0.0029403
0.00311743
0.00361684
0.0042962
0.00448687
0.00425027
0.00379749
0.00348996
0.00332195
0.00302622
0.00266203
0.00230905
0.00201668
0.00204813
0.00273628
0.0042946
0.00130649
0.00131845
0.00158463
0.00234646
0.00288774
0.00307434
0.00353896
0.00418549
0.00435322
0.00411247
0.00363225
0.0032336
0.00302168
0.0027089
0.00231362
0.00195937
0.00171871
0.00179034
0.00246472
0.00397208
0.00134746
0.00134833
0.00158497
0.0023068
0.0028276
0.00302297
0.00345402
0.00406255
0.00421348
0.00397297
0.00348127
0.00298968
0.00271902
0.00239412
0.00198038
0.00161676
0.00141452
0.00153683
0.00221709
0.00367549
0.00138558
0.00137821
0.00158625
0.00226732
0.00276176
0.00296175
0.00336452
0.00392699
0.00406327
0.00382877
0.00334351
0.00276419
0.00241814
0.00207989
0.00165817
0.00128873
0.00111213
0.00128206
0.00198283
0.00339868
0.0014207
0.00140762
0.00158834
0.00222709
0.00269325
0.00288912
0.00327002
0.00378428
0.00389969
0.00367348
0.00321595
0.00256363
0.00212573
0.00176657
0.00134305
0.000975544
0.000817713
0.00102817
0.00175215
0.00313142
0.0014529
0.00143576
0.00159154
0.00218458
0.00262513
0.00280536
0.00316833
0.00364057
0.00372356
0.00350029
0.0030926
0.00239279
0.00185012
0.00145752
0.00103256
0.000672811
0.000532293
0.000775944
0.0015207
0.00286822
0.00148224
0.00146182
0.00159613
0.00213839
0.00255841
0.00271294
0.00305597
0.00349672
0.00353753
0.0033065
0.00296072
0.00224966
0.00160116
0.0011593
0.000728341
0.000376168
0.000252611
0.000523739
0.00128647
0.00260553
0.00150877
0.0014851
0.00160236
0.00208794
0.0024915
0.00261669
0.0029291
0.00334983
0.00335601
0.00309554
0.00280558
0.00213033
0.00138804
0.000880014
0.000434086
8.22843e-05
-2.77247e-05
0.000266022
0.00104504
0.00233992
0.00153266
0.00150478
0.00161001
0.00203438
0.00242173
0.00252205
0.0027895
0.00319584
0.00318582
0.00287261
0.00261693
0.00202199
0.00121443
0.000628533
0.000156796
-0.000206813
-0.000317862
-1.06866e-05
0.000785006
0.00206587
0.00155412
0.00152007
0.00161811
0.00197993
0.00234548
0.00243147
0.0026415
0.00302696
0.00302113
0.00265427
0.00239789
0.00190415
0.00107971
0.000411287
-9.63486e-05
-0.000485867
-0.000618093
-0.000321021
0.000482037
0.0017688
0.00157337
0.00153044
0.00162504
0.00192721
0.00226018
0.00234355
0.00249281
0.00284131
0.00285607
0.00245608
0.00215643
0.00175549
0.000972051
0.000232943
-0.000323392
-0.000749043
-0.000925357
-0.000665077
0.000129183
0.00143849
0.00159054
0.00153578
0.00162891
0.00187861
0.00216545
0.00225549
0.00235008
0.00264458
0.00267735
0.00227397
0.00191943
0.00157316
0.000866162
8.92377e-05
-0.000523464
-0.000992561
-0.00123338
-0.00103842
-0.000271624
0.00107268
0.00160561
0.00153653
0.00162772
0.00183574
0.00206338
0.00216313
0.00221478
0.00244351
0.00248175
0.00210087
0.00170212
0.00136579
0.0007383
-4.02636e-05
-0.000701581
-0.00121609
-0.00152608
-0.0014177
-0.000701662
0.000677706
0.00161831
0.00153354
0.00161911
0.00179904
0.0019573
0.00206114
0.00208599
0.00224685
0.00227403
0.00192525
0.00150096
0.00115505
0.000587786
-0.000174525
-0.000873327
-0.00142478
-0.00179019
-0.00176649
-0.00111727
0.000274827
0.00162815
0.00152794
0.00160136
0.00176706
0.00185169
0.00194631
0.00196139
0.00206058
0.00205938
0.0017384
0.00131096
0.000948169
0.000419554
-0.000318824
-0.00104743
-0.00162923
-0.00202808
-0.00206445
-0.00148069
-0.000106168
0.00163447
0.00152116
0.00157393
0.00173704
0.00175183
0.00181911
0.00183606
0.0018873
0.00184674
0.00154128
0.00112256
0.000743859
0.000241807
-0.000472404
-0.00122168
-0.00183387
-0.00224653
-0.0023172
-0.00178452
-0.000447905
0.00163641
0.00151473
0.00153757
0.00170522
0.0016623
0.00168273
0.00170317
0.00172514
0.00164329
0.00133644
0.000932191
0.000538515
5.42091e-05
-0.000630816
-0.00139178
-0.00203174
-0.00245319
-0.00253197
-0.00203343
-0.000746479
0.00163316
0.00150969
0.00149415
0.00166692
0.00158499
0.00154157
0.00155775
0.00157048
0.00145581
0.00112687
0.00073715
0.000334987
-0.000142445
-0.000793944
-0.00154846
-0.00221185
-0.00264528
-0.00272533
-0.0022467
-0.00101037
0.00162408
0.00150621
0.00144654
0.00161746
0.00151848
0.00140349
0.00139911
0.00141492
0.00128721
0.000919693
0.000532801
0.00013424
-0.000344398
-0.000962678
-0.00169371
-0.00236294
-0.00281127
-0.00290024
-0.00244285
-0.00125573
0.0016091
0.00150336
0.00139843
0.00155449
0.00145944
0.00127689
0.0012314
0.001247
0.00113378
0.000726415
0.000318119
-6.51921e-05
-0.000546506
-0.00113628
-0.00183011
-0.00248857
-0.00294174
-0.0030445
-0.00261665
-0.00148722
0.00158845
0.00150061
0.00135352
0.00147903
0.00140251
0.00116572
0.00106119
0.00106037
0.000987186
0.000558596
9.86754e-05
-0.000269016
-0.000738815
-0.00131103
-0.00196283
-0.00259222
-0.00303754
-0.00315173
-0.00276094
-0.00170102
0.00156299
0.00149404
0.00131415
0.00139355
0.00134026
0.0010684
0.00090004
0.000858731
0.000827529
0.000419174
-0.000110645
-0.000482605
-0.000921495
-0.00147883
-0.00209226
-0.00268293
-0.00310567
-0.00322247
-0.00286878
-0.00189007
0.00153387
0.00148274
0.00128125
0.00130241
0.00126756
0.000981776
0.000756269
0.000650374
0.000638533
0.00029735
-0.000290181
-0.000702522
-0.00110306
-0.00162982
-0.00221116
-0.0027618
-0.00315442
-0.00326077
-0.00294058
-0.00205228
0.00150244
0.00146541
0.00125411
0.0012108
0.0011834
0.000900559
0.000630513
0.000450276
0.000422125
0.00017397
-0.000428924
-0.000913208
-0.00128974
-0.00176649
-0.00231273
-0.00282478
-0.00318465
-0.00327379
-0.00298028
-0.00218825
0.00147009
0.0014415
0.001231
0.00112367
0.00108964
0.000818564
0.00051838
0.000272087
0.000187858
2.19079e-05
-0.000537967
-0.00109316
-0.00147954
-0.00189712
-0.00239225
-0.00286562
-0.00319699
-0.00327162
-0.00300174
-0.00230583
0.00143808
0.0014114
0.00120975
0.00104434
0.000988177
0.000732562
0.000415481
0.000120079
-4.53022e-05
-0.000166657
-0.000635084
-0.00122738
-0.00165679
-0.00202886
-0.00245676
-0.00288247
-0.00318842
-0.00326063
-0.00302061
-0.00241754
0.0014075
0.00137538
0.0011877
0.000975075
0.000884119
0.000642733
0.00031526
-9.2998e-06
-0.000257196
-0.000383655
-0.000742318
-0.00132316
-0.00180056
-0.00215671
-0.00251773
-0.00288533
-0.00316337
-0.00324315
-0.00304418
-0.00253144
0.00137891
0.00133695
0.00116145
0.000916554
0.000782939
0.000550316
0.000215434
-0.000122264
-0.000434466
-0.000608364
-0.000888135
-0.00140603
-0.00190526
-0.00227136
-0.00258172
-0.00288628
-0.00313132
-0.00322119
-0.00307626
-0.00266463
0.00135305
0.00129704
0.00113146
0.000867904
0.000690637
0.000456679
0.000119278
-0.000229708
-0.000581863
-0.000811906
-0.0010454
-0.00144765
-0.00194772
-0.00234158
-0.0026265
-0.00287584
-0.00308053
-0.00318163
-0.00310624
-0.00282802
0.0013286
0.00125886
0.00109786
0.000829586
0.00060583
0.000368289
2.7544e-05
-0.000323387
-0.000709697
-0.00102568
-0.00127005
-0.00164226
-0.00205632
-0.00243679
-0.00269887
-0.00290175
-0.0030485
-0.00310758
-0.0030251
-0.00276412
0.00130906
0.00122203
0.00106473
0.000794532
0.000539156
0.000283496
-6.30895e-05
-0.000415479
-0.000755962
-0.00106828
-0.00129895
-0.00160317
-0.00204175
-0.00249303
-0.00288222
-0.00318048
-0.00341119
-0.00355099
-0.00355133
-0.00337
0.00129246
0.00119097
0.00103206
0.00076485
0.000485962
0.000212451
-0.000118543
-0.000522668
-0.000975106
-0.00142275
-0.00178397
-0.00205658
-0.00226427
-0.00238911
-0.00240896
-0.00234011
-0.00224746
-0.00223003
-0.00238353
-0.00274954
0.00127477
0.00116843
0.00100114
0.000748104
0.000442152
0.0001516
-0.000181616
-0.000510884
-0.000826164
-0.00114867
-0.00144559
-0.00176314
-0.00220351
-0.00276485
-0.00334094
-0.00384158
-0.00423611
-0.00444484
-0.00436867
-0.00394421
0.00126804
0.00114683
0.000979013
0.000723628
0.000420179
0.000115298
-0.000215668
-0.000621954
-0.00106386
-0.00151926
-0.00192091
-0.00222292
-0.00242525
-0.00253078
-0.00257576
-0.00258621
-0.00257681
-0.00262734
-0.00282612
-0.00322598
0.00126149
0.0011378
0.00096455
0.000709887
0.000407291
8.58724e-05
-0.000216019
-0.000542105
-0.000873729
-0.00122912
-0.00161373
-0.00202937
-0.00248622
-0.00299237
-0.00349877
-0.00394982
-0.0043074
-0.00452743
-0.00458327
-0.00446811
0.0448815
0.0167938
0.00520673
0.00256333
0.00145088
0.000197199
-0.00112776
-0.00243238
-0.00371447
-0.0049501
-0.00610827
-0.00728938
-0.00864881
-0.00997369
-0.0111357
-0.0123789
-0.0136934
-0.0148942
-0.0160975
-0.0174292
-0.0187862
-0.0201486
-0.0215774
-0.0230142
-0.0244349
-0.0258685
-0.0273149
-0.0288176
-0.0304112
-0.0320607
-0.0337535
-0.0355169
-0.0373537
-0.0392576
-0.0412282
-0.0432774
-0.0453987
-0.0475958
-0.0498719
-0.0522288
-0.0546802
-0.0572134
-0.0598604
-0.0625851
-0.0654441
-0.0683861
-0.0714595
-0.0746812
-0.0779767
-0.0815142
0.043792
0.0168394
0.00524991
0.00258025
0.00145996
0.000203416
-0.001123
-0.00242854
-0.00371132
-0.00494752
-0.00610613
-0.00728755
-0.00864728
-0.00997244
-0.0111346
-0.0123779
-0.0136925
-0.0148935
-0.0160968
-0.0174286
-0.0187857
-0.0201483
-0.0215771
-0.0230139
-0.0244347
-0.0258683
-0.0273147
-0.0288175
-0.0304111
-0.0320607
-0.0337534
-0.0355169
-0.0373537
-0.0392575
-0.0412282
-0.0432774
-0.0453987
-0.0475958
-0.0498719
-0.0522288
-0.0546802
-0.0572134
-0.0598604
-0.0625851
-0.0654441
-0.0683861
-0.0714595
-0.0746812
-0.0779767
-0.0815143
0.0428793
0.0169349
0.00532016
0.00260253
0.00147015
0.000209754
-0.00111846
-0.00242499
-0.00370843
-0.00494515
-0.00610416
-0.00728585
-0.00864589
-0.00997134
-0.0111336
-0.012377
-0.0136918
-0.0148928
-0.0160962
-0.0174281
-0.0187853
-0.0201479
-0.0215768
-0.0230137
-0.0244345
-0.0258682
-0.0273146
-0.0288174
-0.030411
-0.0320606
-0.0337534
-0.0355168
-0.0373537
-0.0392575
-0.0412281
-0.0432774
-0.0453987
-0.0475958
-0.0498719
-0.0522288
-0.0546802
-0.0572134
-0.0598604
-0.0625851
-0.0654441
-0.0683861
-0.0714595
-0.0746812
-0.0779768
-0.0815144
0.0420533
0.0170553
0.00542302
0.00263688
0.00148454
0.000217746
-0.00111321
-0.00242105
-0.00370528
-0.00494259
-0.00610202
-0.00728397
-0.00864439
-0.00997019
-0.0111326
-0.0123761
-0.013691
-0.0148921
-0.0160956
-0.0174276
-0.0187849
-0.0201475
-0.0215765
-0.0230135
-0.0244343
-0.025868
-0.0273145
-0.0288173
-0.0304109
-0.0320605
-0.0337534
-0.0355168
-0.0373536
-0.0392575
-0.0412281
-0.0432774
-0.0453987
-0.0475958
-0.0498719
-0.0522288
-0.0546802
-0.0572134
-0.0598604
-0.0625851
-0.0654441
-0.0683861
-0.0714595
-0.0746812
-0.0779768
-0.0815145
0.0412316
0.0171831
0.00555195
0.00268374
0.00150441
0.000228398
-0.0011065
-0.00241615
-0.0037014
-0.00493948
-0.00609944
-0.00728168
-0.00864252
-0.00996879
-0.0111314
-0.012375
-0.0136901
-0.0148913
-0.0160949
-0.017427
-0.0187843
-0.0201471
-0.0215761
-0.0230132
-0.0244341
-0.0258679
-0.0273143
-0.0288172
-0.0304108
-0.0320605
-0.0337533
-0.0355168
-0.0373536
-0.0392575
-0.0412281
-0.0432774
-0.0453987
-0.0475957
-0.0498719
-0.0522288
-0.0546802
-0.0572134
-0.0598604
-0.0625851
-0.0654441
-0.0683861
-0.0714595
-0.0746812
-0.0779768
-0.0815147
0.0403982
0.0173116
0.00569555
0.00273829
0.00152837
0.000241468
-0.00109825
-0.00241003
-0.00369654
-0.00493565
-0.00609632
-0.00727886
-0.00864013
-0.00996698
-0.0111299
-0.0123737
-0.0136889
-0.0148903
-0.016094
-0.0174262
-0.0187836
-0.0201464
-0.0215756
-0.0230128
-0.0244337
-0.0258676
-0.0273141
-0.028817
-0.0304107
-0.0320604
-0.0337532
-0.0355167
-0.0373536
-0.0392574
-0.0412281
-0.0432773
-0.0453987
-0.0475957
-0.0498718
-0.0522288
-0.0546802
-0.0572134
-0.0598604
-0.0625851
-0.065444
-0.0683861
-0.0714595
-0.0746812
-0.0779768
-0.081515
0.0395562
0.0174373
0.00584678
0.00279633
0.00155436
0.000256052
-0.00108882
-0.00240275
-0.00369055
-0.00493099
-0.00609266
-0.00727551
-0.00863712
-0.00996463
-0.0111282
-0.0123722
-0.0136875
-0.014889
-0.0160929
-0.0174252
-0.0187827
-0.0201456
-0.0215749
-0.0230122
-0.0244333
-0.0258672
-0.0273138
-0.0288168
-0.0304105
-0.0320602
-0.0337531
-0.0355166
-0.0373535
-0.0392574
-0.041228
-0.0432773
-0.0453987
-0.0475957
-0.0498718
-0.0522288
-0.0546802
-0.0572134
-0.0598604
-0.0625851
-0.065444
-0.0683861
-0.0714595
-0.0746812
-0.0779769
-0.0815153
0.0387095
0.0175577
0.00600298
0.00285593
0.00158104
0.000271382
-0.00107871
-0.00239461
-0.00368351
-0.00492547
-0.00608851
-0.00727176
-0.00863354
-0.00996167
-0.0111259
-0.0123702
-0.0136856
-0.0148874
-0.0160916
-0.017424
-0.0187814
-0.0201444
-0.0215739
-0.0230114
-0.0244326
-0.0258667
-0.0273134
-0.0288164
-0.0304102
-0.03206
-0.0337529
-0.0355164
-0.0373534
-0.0392573
-0.041228
-0.0432773
-0.0453986
-0.0475957
-0.0498718
-0.0522288
-0.0546802
-0.0572134
-0.0598604
-0.0625851
-0.065444
-0.068386
-0.0714595
-0.0746812
-0.0779769
-0.0815157
0.0378604
0.0176713
0.00616359
0.0029165
0.00160775
0.000287038
-0.00106824
-0.00238599
-0.00367569
-0.00491918
-0.00608396
-0.00726776
-0.00862956
-0.00995818
-0.0111232
-0.0123678
-0.0136832
-0.0148853
-0.01609
-0.0174225
-0.0187798
-0.0201429
-0.0215726
-0.0230103
-0.0244317
-0.0258661
-0.0273129
-0.028816
-0.0304098
-0.0320597
-0.0337527
-0.0355163
-0.0373532
-0.0392572
-0.0412279
-0.0432772
-0.0453986
-0.0475957
-0.0498718
-0.0522288
-0.0546802
-0.0572134
-0.0598604
-0.0625851
-0.065444
-0.068386
-0.0714595
-0.0746812
-0.077977
-0.0815162
0.0370104
0.0177771
0.00632848
0.00297789
0.00163416
0.000302832
-0.00105757
-0.00237717
-0.00366747
-0.00491236
-0.00607913
-0.00726368
-0.00862541
-0.00995432
-0.0111201
-0.012365
-0.0136803
-0.0148829
-0.0160881
-0.0174207
-0.0187779
-0.0201409
-0.0215708
-0.0230087
-0.0244305
-0.0258652
-0.0273122
-0.0288154
-0.0304094
-0.0320593
-0.0337524
-0.035516
-0.037353
-0.039257
-0.0412277
-0.0432771
-0.0453985
-0.0475956
-0.0498718
-0.0522288
-0.0546802
-0.0572134
-0.0598604
-0.0625851
-0.065444
-0.068386
-0.0714595
-0.0746811
-0.077977
-0.0815167
0.0361605
0.0178738
0.00649736
0.00304006
0.00166002
0.000318667
-0.0010467
-0.00236831
-0.00365919
-0.00490531
-0.00607418
-0.00725963
-0.00862124
-0.00995027
-0.0111167
-0.0123619
-0.0136769
-0.0148799
-0.0160859
-0.0174188
-0.0187758
-0.0201387
-0.0215686
-0.0230068
-0.0244289
-0.025864
-0.0273113
-0.0288146
-0.0304087
-0.0320588
-0.033752
-0.0355157
-0.0373527
-0.0392567
-0.0412275
-0.0432769
-0.0453984
-0.0475955
-0.0498717
-0.0522288
-0.0546802
-0.0572134
-0.0598604
-0.0625851
-0.065444
-0.068386
-0.0714595
-0.0746811
-0.0779771
-0.0815172
0.035312
0.0179604
0.00666983
0.00310297
0.00168514
0.000334467
-0.0010356
-0.00235943
-0.00365107
-0.00489833
-0.00606931
-0.00725572
-0.00861711
-0.00994616
-0.0111131
-0.0123584
-0.0136732
-0.0148766
-0.0160835
-0.0174166
-0.0187735
-0.0201362
-0.021566
-0.0230043
-0.0244269
-0.0258626
-0.0273102
-0.0288138
-0.030408
-0.0320582
-0.0337515
-0.0355153
-0.0373524
-0.0392565
-0.0412273
-0.0432767
-0.0453983
-0.0475954
-0.0498717
-0.0522287
-0.0546801
-0.0572134
-0.0598604
-0.0625851
-0.065444
-0.068386
-0.0714594
-0.074681
-0.0779771
-0.0815178
0.0344665
0.0180357
0.00684555
0.00316673
0.00170937
0.000350152
-0.00102422
-0.00235048
-0.00364318
-0.0048916
-0.00606465
-0.00725206
-0.00861304
-0.00994202
-0.0111094
-0.0123548
-0.0136692
-0.014873
-0.0160807
-0.0174143
-0.0187711
-0.0201336
-0.0215632
-0.0230015
-0.0244245
-0.0258608
-0.027309
-0.0288128
-0.0304072
-0.0320575
-0.033751
-0.0355148
-0.037352
-0.0392561
-0.041227
-0.0432765
-0.0453981
-0.0475953
-0.0498716
-0.0522287
-0.0546801
-0.0572134
-0.0598604
-0.0625851
-0.065444
-0.068386
-0.0714594