/*--------------------------------*- C++ -*----------------------------------*\
| =========                 |                                                 |
| \\      /  F ield         | OpenFOAM: The Open Source CFD Toolbox           |
|  \\    /   O peration     | Version:  v2012                                 |
|   \\  /    A nd           | Website:  www.openfoam.com                      |
|    \\/     M anipulation  |                                                 |
\*---------------------------------------------------------------------------*/
FoamFile
{
    version     2.0;
    format      ascii;
    class       surfaceScalarField;
    location    "0.4";
    object      phi;
}
// * * * * * * * * * * * * * * * * * * * * * * * * * * * * * * * * * * * * * //

dimensions      [0 3 -1 0 0 0 0];
oriented        oriented;


internalField   nonuniform List<scalar> 
13830
(
9.22674e-07
1.29598e-07
8.91153e-07
5.99308e-07
9.38895e-07
-1.92893e-06
1.00617e-06
-1.33329e-06
9.91638e-07
-3.00849e-07
9.66177e-07
1.0636e-08
1.00441e-06
4.73727e-07
9.95025e-07
7.00487e-07
9.77282e-07
6.89787e-07
9.59441e-07
4.64409e-07
9.51711e-07
7.10319e-09
9.4501e-07
-1.54438e-07
9.37603e-07
-5.70818e-07
9.24952e-07
-5.68545e-07
9.30128e-07
-7.31107e-07
9.1989e-07
-5.97447e-07
9.33479e-07
-5.57377e-07
9.22459e-07
-4.6642e-07
9.35562e-07
-3.06003e-07
-3.11588e-07
9.1097e-07
9.56335e-07
1.45796e-07
9.31029e-07
6.24613e-07
9.76144e-07
-1.97405e-06
1.03914e-06
-1.39629e-06
1.0281e-06
-2.89811e-07
1.00542e-06
3.33179e-08
1.04163e-06
4.37519e-07
1.03626e-06
7.05851e-07
1.0103e-06
7.15754e-07
1.00443e-06
4.70275e-07
9.87646e-07
2.38866e-08
9.91877e-07
-1.58669e-07
9.73147e-07
-5.52088e-07
9.70106e-07
-5.65504e-07
9.60242e-07
-7.21244e-07
9.61768e-07
-5.98973e-07
9.60181e-07
-5.5579e-07
9.63071e-07
-4.6931e-07
9.61208e-07
-3.04139e-07
-3.05878e-07
9.55498e-07
9.90735e-07
1.64515e-07
9.71652e-07
6.43696e-07
1.01056e-06
-2.01295e-06
1.0702e-06
-1.45593e-06
1.06461e-06
-2.84222e-07
1.04855e-06
4.93797e-08
1.07781e-06
4.08258e-07
1.08028e-06
7.03381e-07
1.04851e-06
7.47518e-07
1.04665e-06
4.72137e-07
1.03061e-06
3.99242e-08
1.03218e-06
-1.60235e-07
1.01084e-06
-5.30746e-07
1.00781e-06
-5.62478e-07
9.91555e-07
-7.04985e-07
9.96525e-07
-6.03943e-07
9.88934e-07
-5.48199e-07
9.96798e-07
-4.77173e-07
9.91737e-07
-2.99079e-07
-3.06012e-07
9.91871e-07
1.02747e-06
1.84817e-07
1.0133e-06
6.57867e-07
1.04284e-06
-2.04248e-06
1.09926e-06
-1.51236e-06
1.10118e-06
-2.86139e-07
1.09441e-06
5.61502e-08
1.11647e-06
3.86197e-07
1.12268e-06
6.97167e-07
1.09302e-06
7.77181e-07
1.08852e-06
4.76641e-07
1.07592e-06
5.25184e-08
1.07388e-06
-1.58195e-07
1.05232e-06
-5.09187e-07
1.04767e-06
-5.57824e-07
1.02932e-06
-6.86636e-07
1.03332e-06
-6.07945e-07
1.02344e-06
-5.38313e-07
1.03128e-06
-4.8502e-07
1.0258e-06
-2.93598e-07
-3.07144e-07
1.02693e-06
1.06757e-06
2.04804e-07
1.05663e-06
6.68804e-07
1.07486e-06
-2.06071e-06
1.12696e-06
-1.56446e-06
1.13824e-06
-2.97418e-07
1.14116e-06
5.32316e-08
1.15845e-06
3.68907e-07
1.16448e-06
6.91139e-07
1.14062e-06
8.01034e-07
1.13225e-06
4.85014e-07
1.12163e-06
6.31377e-08
1.1176e-06
-1.5416e-07
1.09585e-06
-4.87437e-07
1.09001e-06
-5.5199e-07
1.07071e-06
-6.67339e-07
1.07271e-06
-6.09943e-07
1.06167e-06
-5.27274e-07
1.06763e-06
-4.90974e-07
1.06251e-06
-2.88479e-07
-3.07323e-07
1.06269e-06
1.1114e-06
2.22246e-07
1.10233e-06
6.77879e-07
1.10909e-06
-2.06747e-06
1.15481e-06
-1.61018e-06
1.17599e-06
-3.18598e-07
1.18792e-06
4.12961e-08
1.20299e-06
3.53839e-07
1.2075e-06
6.86635e-07
1.18882e-06
8.19709e-07
1.17787e-06
4.95961e-07
1.16712e-06
7.38857e-08
1.16268e-06
-1.49716e-07
1.14042e-06
-4.65177e-07
1.13415e-06
-5.45719e-07
1.1141e-06
-6.47292e-07
1.11409e-06
-6.09934e-07
1.10211e-06
-5.15285e-07
1.10569e-06
-4.94562e-07
1.10088e-06
-2.83667e-07
-3.06074e-07
1.09963e-06
1.15861e-06
2.35331e-07
1.15089e-06
6.85605e-07
1.14744e-06
-2.06403e-06
1.18476e-06
-1.64749e-06
1.21437e-06
-3.48211e-07
1.23443e-06
2.12357e-08
1.24876e-06
3.39513e-07
1.25236e-06
6.83037e-07
1.23678e-06
8.35286e-07
1.22462e-06
5.0812e-07
1.21248e-06
8.60204e-08
1.2084e-06
-1.45634e-07
1.18579e-06
-4.42567e-07
1.17969e-06
-5.39619e-07
1.15907e-06
-6.26672e-07
1.15733e-06
-6.0819e-07
1.14446e-06
-5.02418e-07
1.14566e-06
-4.95765e-07
1.14091e-06
-2.78912e-07
-3.03395e-07
1.13823e-06
1.20829e-06
2.43227e-07
1.20228e-06
6.91609e-07
1.19056e-06
-2.05231e-06
1.21837e-06
-1.6753e-06
1.25331e-06
-3.83154e-07
1.28032e-06
-5.77378e-09
1.29454e-06
3.25287e-07
1.29846e-06
6.79117e-07
1.28445e-06
8.49298e-07
1.27181e-06
5.2076e-07
1.25791e-06
9.99282e-08
1.25446e-06
-1.42188e-07
1.23202e-06
-4.20123e-07
1.22649e-06
-5.34097e-07
1.20563e-06
-6.0581e-07
1.20238e-06
-6.04941e-07
1.18886e-06
-4.8889e-07
1.1877e-06
-4.94612e-07
1.18286e-06
-2.74074e-07
-2.99346e-07
1.17882e-06
1.25937e-06
2.46207e-07
1.25594e-06
6.95046e-07
1.23799e-06
-2.03436e-06
1.25626e-06
-1.69357e-06
1.29277e-06
-4.19663e-07
1.32493e-06
-3.79383e-08
1.33935e-06
3.1087e-07
1.34466e-06
6.73803e-07
1.33171e-06
8.62255e-07
1.31901e-06
5.33452e-07
1.30351e-06
1.15433e-07
1.30089e-06
-1.39575e-07
1.27924e-06
-3.98469e-07
1.27452e-06
-5.29382e-07
1.25383e-06
-5.85116e-07
1.24922e-06
-6.00336e-07
1.23537e-06
-4.75031e-07
1.23185e-06
-4.911e-07
1.22691e-06
-2.6913e-07
-2.93974e-07
1.22154e-06
1.31115e-06
2.45335e-07
1.31104e-06
6.95159e-07
1.28879e-06
-2.01212e-06
1.29815e-06
-1.70292e-06
1.33268e-06
-4.54194e-07
1.36756e-06
-7.28187e-08
1.38223e-06
2.96204e-07
1.38966e-06
6.66369e-07
1.37807e-06
8.73845e-07
1.36595e-06
5.45574e-07
1.34943e-06
1.31959e-07
1.34795e-06
-1.38103e-07
1.32764e-06
-3.78159e-07
1.32381e-06
-5.25545e-07
1.30367e-06
-5.64981e-07
1.29781e-06
-5.94474e-07
1.28398e-06
-4.61204e-07
1.27813e-06
-4.85244e-07
1.2731e-06
-2.64104e-07
-2.87335e-07
1.26646e-06
1.36339e-06
2.41963e-07
1.3669e-06
6.91652e-07
1.34204e-06
-1.98726e-06
1.34335e-06
-1.70423e-06
1.3731e-06
-4.83947e-07
1.40794e-06
-1.07655e-07
1.42251e-06
2.81632e-07
1.43245e-06
6.56428e-07
1.42307e-06
8.83224e-07
1.4126e-06
5.56043e-07
1.39594e-06
1.48618e-07
1.39602e-06
-1.38177e-07
1.37744e-06
-3.59584e-07
1.3744e-06
-5.22506e-07
1.35515e-06
-5.45731e-07
1.3481e-06
-5.87426e-07
1.33464e-06
-4.47743e-07
1.32654e-06
-4.77141e-07
1.32146e-06
-2.59018e-07
-2.79524e-07
1.31364e-06
1.41632e-06
2.37293e-07
1.4232e-06
6.84777e-07
1.39706e-06
-1.96112e-06
1.39122e-06
-1.69839e-06
1.41441e-06
-5.07139e-07
1.44659e-06
-1.39831e-07
1.46024e-06
2.67986e-07
1.47274e-06
6.43926e-07
1.46666e-06
8.893e-07
1.4593e-06
5.63403e-07
1.44357e-06
1.6435e-07
1.44554e-06
-1.40152e-07
1.42888e-06
-3.42925e-07
1.42641e-06
-5.20028e-07
1.40829e-06
-5.27616e-07
1.40009e-06
-5.79223e-07
1.38727e-06
-4.34926e-07
1.37714e-06
-4.67009e-07
1.37199e-06
-2.5387e-07
-2.70689e-07
1.36316e-06
1.4704e-06
2.32142e-07
1.47999e-06
6.75179e-07
1.45344e-06
-1.93457e-06
1.44153e-06
-1.68647e-06
1.45749e-06
-5.23104e-07
1.48498e-06
-1.67323e-07
1.49657e-06
2.56393e-07
1.51138e-06
6.29125e-07
1.50961e-06
8.9107e-07
1.50682e-06
5.66189e-07
1.49299e-06
1.78183e-07
1.497e-06
-1.44164e-07
1.48223e-06
-3.28152e-07
1.47994e-06
-5.1774e-07
1.46315e-06
-5.10827e-07
1.45376e-06
-5.69835e-07
1.44178e-06
-4.22946e-07
1.42994e-06
-4.55165e-07
1.42472e-06
-2.48651e-07
-2.61034e-07
1.41506e-06
1.52609e-06
2.26925e-07
1.53762e-06
6.63654e-07
1.51105e-06
-1.90801e-06
1.49433e-06
-1.66975e-06
1.50344e-06
-5.32214e-07
1.52513e-06
-1.89017e-07
1.53366e-06
2.47862e-07
1.5503e-06
6.12492e-07
1.5534e-06
8.87966e-07
1.5562e-06
5.63386e-07
1.54492e-06
1.89468e-07
1.55077e-06
-1.50015e-07
1.5377e-06
-3.15079e-07
1.53514e-06
-5.15187e-07
1.51983e-06
-4.95514e-07
1.50918e-06
-5.59186e-07
1.49814e-06
-4.11901e-07
1.48495e-06
-4.41975e-07
1.47965e-06
-2.4335e-07
-2.50789e-07
1.4694e-06
1.58379e-06
2.21751e-07
1.59651e-06
6.50933e-07
1.56995e-06
-1.88145e-06
1.54983e-06
-1.64963e-06
1.5532e-06
-5.35581e-07
1.56901e-06
-2.04825e-07
1.574e-06
2.4287e-07
1.59196e-06
5.94535e-07
1.59985e-06
8.8007e-07
1.60847e-06
5.5477e-07
1.59993e-06
1.98009e-07
1.60709e-06
-1.57174e-07
1.59547e-06
-3.03462e-07
1.59217e-06
-5.11882e-07
1.57842e-06
-4.81771e-07
1.56648e-06
-5.47243e-07
1.55635e-06
-4.0177e-07
1.54218e-06
-4.27805e-07
1.53678e-06
-2.37954e-07
-2.40183e-07
1.52618e-06
1.64372e-06
2.16571e-07
1.6571e-06
6.37558e-07
1.63033e-06
-1.85468e-06
1.60819e-06
-1.62749e-06
1.60726e-06
-5.34658e-07
1.61797e-06
-2.15529e-07
1.61964e-06
2.41195e-07
1.63851e-06
5.75662e-07
1.6505e-06
8.68088e-07
1.66431e-06
5.40956e-07
1.65831e-06
2.0401e-07
1.66602e-06
-1.64882e-07
1.65567e-06
-2.93113e-07
1.65115e-06
-5.07364e-07
1.63899e-06
-4.69609e-07
1.62582e-06
-5.34081e-07
1.61648e-06
-3.92428e-07
1.60166e-06
-4.12987e-07
1.59615e-06
-2.32438e-07
-2.29412e-07
1.58538e-06
1.70603e-06
2.11291e-07
1.71974e-06
6.23851e-07
1.69245e-06
-1.82739e-06
1.66942e-06
-1.60447e-06
1.66562e-06
-5.30853e-07
1.6725e-06
-2.22416e-07
1.67165e-06
2.42054e-07
1.69117e-06
5.56134e-07
1.70616e-06
8.53102e-07
1.72395e-06
5.23161e-07
1.72007e-06
2.07896e-07
1.72749e-06
-1.72304e-07
1.71835e-06
-2.83974e-07
1.71224e-06
-5.01249e-07
1.7016e-06
-4.58968e-07
1.68737e-06
-5.19855e-07
1.67863e-06
-3.83689e-07
1.66344e-06
-3.97797e-07
1.65779e-06
-2.2679e-07
-2.18621e-07
1.647e-06
1.77076e-06
2.05846e-07
1.78466e-06
6.09951e-07
1.75658e-06
-1.79931e-06
1.73348e-06
-1.58137e-06
1.72794e-06
-5.25306e-07
1.73238e-06
-2.26863e-07
1.72999e-06
2.44444e-07
1.75003e-06
5.36097e-07
1.76689e-06
8.36241e-07
1.78723e-06
5.0282e-07
1.78503e-06
2.10101e-07
1.79139e-06
-1.78667e-07
1.78356e-06
-2.76141e-07
1.77561e-06
-4.93302e-07
1.76635e-06
-4.49709e-07
1.75126e-06
-5.04767e-07
1.7429e-06
-3.75327e-07
1.72757e-06
-3.82464e-07
1.72177e-06
-2.20998e-07
-2.07913e-07
1.71107e-06
1.83796e-06
2.00218e-07
1.85204e-06
5.9587e-07
1.82298e-06
-1.77024e-06
1.80028e-06
-1.55867e-06
1.79378e-06
-5.18806e-07
1.79694e-06
-2.30021e-07
1.79392e-06
2.47462e-07
1.81436e-06
5.15662e-07
1.83219e-06
8.18408e-07
1.85376e-06
4.81255e-07
1.85295e-06
2.10904e-07
1.85762e-06
-1.83337e-07
1.85127e-06
-2.69784e-07
1.84147e-06
-4.83503e-07
1.83334e-06
-4.41577e-07
1.81762e-06
-4.89055e-07
1.8094e-06
-3.67106e-07
1.79411e-06
-3.67173e-07
1.78818e-06
-2.15061e-07
-1.97362e-07
1.77762e-06
1.90768e-06
1.94436e-07
1.922e-06
5.81552e-07
1.89186e-06
-1.7401e-06
1.86976e-06
-1.53658e-06
1.86279e-06
-5.11838e-07
1.86545e-06
-2.32679e-07
1.86242e-06
2.50495e-07
1.88311e-06
4.94975e-07
1.90136e-06
8.00154e-07
1.92312e-06
4.59497e-07
1.92368e-06
2.10346e-07
1.92619e-06
-1.85851e-07
1.92144e-06
-2.6503e-07
1.90995e-06
-4.72018e-07
1.90266e-06
-4.34283e-07
1.88657e-06
-4.72963e-07
1.87828e-06
-3.58814e-07
1.86316e-06
-3.52061e-07
1.85709e-06
-2.08989e-07
-1.87031e-07
1.84676e-06
1.97998e-06
1.88561e-07
1.99463e-06
5.66904e-07
1.96338e-06
-1.70885e-06
1.9419e-06
-1.5151e-06
1.93472e-06
-5.04657e-07
1.93733e-06
-2.35291e-07
1.93461e-06
2.5322e-07
1.95534e-06
4.74243e-07
1.97381e-06
7.81681e-07
1.99504e-06
4.38269e-07
1.99714e-06
2.08251e-07
1.99723e-06
-1.85943e-07
1.99412e-06
-2.61923e-07
1.98119e-06
-4.59089e-07
1.97442e-06
-4.27512e-07
1.95819e-06
-4.56733e-07
1.94966e-06
-3.5028e-07
1.93481e-06
-3.37211e-07
1.92863e-06
-2.02812e-07
-1.76978e-07
1.91858e-06
2.05494e-06
1.82668e-07
2.07002e-06
5.51825e-07
2.03768e-06
-1.67651e-06
2.01674e-06
-1.49416e-06
2.00944e-06
-4.97364e-07
2.01222e-06
-2.38066e-07
2.00993e-06
2.55514e-07
2.03045e-06
4.53716e-07
2.04922e-06
7.62916e-07
2.0694e-06
4.18084e-07
2.07328e-06
2.04373e-07
2.07097e-06
-1.83637e-07
2.06941e-06
-2.60356e-07
2.05533e-06
-4.45008e-07
2.04875e-06
-4.20936e-07
2.0326e-06
-4.40586e-07
2.02371e-06
-3.41387e-07
2.00916e-06
-3.22657e-07
2.00291e-06
-1.96568e-07
-1.67259e-07
1.99319e-06
2.13268e-06
1.76833e-07
2.14828e-06
5.36217e-07
2.11488e-06
-1.64311e-06
2.09433e-06
-1.47361e-06
2.08693e-06
-4.89961e-07
2.08993e-06
-2.41071e-07
2.08812e-06
2.57326e-07
2.10817e-06
4.33666e-07
2.12749e-06
7.43597e-07
2.14622e-06
3.99359e-07
2.15211e-06
1.98478e-07
2.14766e-06
-1.79188e-07
2.14739e-06
-2.6008e-07
2.13248e-06
-4.30104e-07
2.12579e-06
-4.14241e-07
2.1099e-06
-4.24695e-07
2.10058e-06
-3.32074e-07
2.08633e-06
-3.08401e-07
2.08005e-06
-1.9029e-07
-1.57921e-07
2.07071e-06
2.21329e-06
1.71122e-07
2.22952e-06
5.19993e-07
2.19509e-06
-1.60868e-06
2.17478e-06
-1.4533e-06
2.16721e-06
-4.82393e-07
2.17043e-06
-2.44294e-07
2.16917e-06
2.5859e-07
2.18847e-06
4.1436e-07
2.20873e-06
7.2334e-07
2.22569e-06
3.82395e-07
2.23372e-06
1.90452e-07
2.22748e-06
-1.72943e-07
2.22816e-06
-2.60763e-07
2.21279e-06
-4.14741e-07
2.20569e-06
-4.07134e-07
2.19018e-06
-4.09186e-07
2.18044e-06
-3.22334e-07
2.16646e-06
-2.94419e-07
2.16016e-06
-1.83996e-07
-1.48996e-07
2.15124e-06
2.29693e-06
1.65591e-07
2.31384e-06
5.03081e-07
2.2784e-06
-1.57325e-06
2.25819e-06
-1.43309e-06
2.25038e-06
-4.74583e-07
2.25376e-06
-2.47669e-07
2.25317e-06
2.59183e-07
2.27146e-06
3.96065e-07
2.29308e-06
7.01721e-07
2.30813e-06
3.67345e-07
2.31823e-06
1.80354e-07
2.31058e-06
-1.65292e-07
2.31182e-06
-2.62009e-07
2.29638e-06
-3.99294e-07
2.28861e-06
-3.99369e-07
2.27356e-06
-3.94134e-07
2.26343e-06
-3.12203e-07
2.24969e-06
-2.80686e-07
2.24337e-06
-1.77676e-07
-1.40501e-07
2.23488e-06
2.3837e-06
1.60274e-07
2.40135e-06
4.8543e-07
2.36492e-06
-1.53682e-06
2.34471e-06
-1.41287e-06
2.33659e-06
-4.66465e-07
2.34001e-06
-2.5109e-07
2.34026e-06
2.58929e-07
2.3573e-06
3.79027e-07
2.38061e-06
6.78408e-07
2.39375e-06
3.54208e-07
2.40573e-06
1.68371e-07
2.3971e-06
-1.56653e-07
2.39848e-06
-2.63395e-07
2.38332e-06
-3.84127e-07
2.37473e-06
-3.90781e-07
2.36013e-06
-3.79531e-07
2.34972e-06
-3.01798e-07
2.33619e-06
-2.67156e-07
2.32981e-06
-1.71294e-07
-1.32433e-07
2.32174e-06
2.47375e-06
1.55198e-07
2.49218e-06
4.67009e-07
2.45477e-06
-1.49941e-06
2.43446e-06
-1.39256e-06
2.426e-06
-4.58005e-07
2.42932e-06
-2.54412e-07
2.43064e-06
2.57609e-07
2.44619e-06
3.63481e-07
2.47138e-06
6.53213e-07
2.48276e-06
3.42825e-07
2.49633e-06
1.54802e-07
2.48715e-06
-1.47473e-07
2.48825e-06
-2.6449e-07
2.4737e-06
-3.69577e-07
2.4642e-06
-3.81283e-07
2.44998e-06
-3.65313e-07
2.43945e-06
-2.91266e-07
2.42611e-06
-2.53812e-07
2.41959e-06
-1.64773e-07
-1.24777e-07
2.41193e-06
2.56722e-06
1.50376e-07
2.58643e-06
4.47801e-07
2.54806e-06
-1.46104e-06
2.52759e-06
-1.3721e-06
2.5188e-06
-4.49216e-07
2.52185e-06
-2.57459e-07
2.52448e-06
2.54979e-07
2.53834e-06
3.49619e-07
2.56548e-06
6.26077e-07
2.57533e-06
3.3297e-07
2.59012e-06
1.40015e-07
2.58085e-06
-1.38197e-07
2.58126e-06
-2.64899e-07
2.56758e-06
-3.55903e-07
2.55716e-06
-3.70867e-07
2.54325e-06
-3.51403e-07
2.53267e-06
-2.8068e-07
2.51959e-06
-2.40734e-07
2.51283e-06
-1.58017e-07
-1.17509e-07
2.50557e-06
2.66423e-06
1.45822e-07
2.68423e-06
4.27807e-07
2.64493e-06
-1.42174e-06
2.62425e-06
-1.35142e-06
2.61519e-06
-4.40163e-07
2.61777e-06
-2.60035e-07
2.62195e-06
2.50797e-07
2.63405e-06
3.37524e-07
2.663e-06
5.9712e-07
2.67164e-06
3.24336e-07
2.68719e-06
1.24465e-07
2.67828e-06
-1.2929e-07
2.67765e-06
-2.64269e-07
2.665e-06
-3.43256e-07
2.65377e-06
-3.59635e-07
2.64004e-06
-3.37668e-07
2.62943e-06
-2.70076e-07
2.61665e-06
-2.27953e-07
2.60968e-06
-1.51047e-07
-1.10607e-07
2.60278e-06
2.76493e-06
1.41545e-07
2.7857e-06
4.07037e-07
2.74551e-06
-1.38155e-06
2.72456e-06
-1.33047e-06
2.71535e-06
-4.30957e-07
2.71725e-06
-2.61928e-07
2.72321e-06
2.44835e-07
2.73353e-06
3.272e-07
2.76406e-06
5.66589e-07
2.77183e-06
3.16569e-07
2.78767e-06
1.08628e-07
2.77956e-06
-1.2118e-07
2.77761e-06
-2.62324e-07
2.76599e-06
-3.3163e-07
2.75413e-06
-3.47784e-07
2.74043e-06
-3.2396e-07
2.72973e-06
-2.59383e-07
2.71731e-06
-2.15533e-07
2.71025e-06
-1.43987e-07
-1.04053e-07
2.7037e-06
2.86945e-06
1.37557e-07
2.89097e-06
3.85511e-07
2.84996e-06
-1.34053e-06
2.82866e-06
-1.30917e-06
2.81945e-06
-4.21747e-07
2.82043e-06
-2.62905e-07
2.82836e-06
2.36903e-07
2.83699e-06
3.18569e-07
2.86875e-06
5.34828e-07
2.87606e-06
3.09259e-07
2.8917e-06
9.29974e-08
2.88476e-06
-1.14245e-07
2.88134e-06
-2.58902e-07
2.87054e-06
-3.2083e-07
2.85832e-06
-3.35567e-07
2.84457e-06
-3.10214e-07
2.83368e-06
-2.48492e-07
2.82175e-06
-2.03598e-07
2.81468e-06
-1.36914e-07
-9.78408e-08
2.80846e-06
2.97793e-06
1.33866e-07
3.00018e-06
3.63261e-07
2.95842e-06
-1.29877e-06
2.9367e-06
-1.28745e-06
2.92766e-06
-4.12716e-07
2.92747e-06
-2.62707e-07
2.93749e-06
2.26884e-07
2.94462e-06
3.11433e-07
2.97719e-06
5.02262e-07
2.9845e-06
3.01947e-07
2.99944e-06
7.80527e-08
2.99398e-06
-1.08779e-07
2.98903e-06
-2.53959e-07
2.97869e-06
-3.10484e-07
2.96636e-06
-3.23243e-07
2.95256e-06
-2.96408e-07
2.94157e-06
-2.37508e-07
2.93006e-06
-1.92084e-07
2.92309e-06
-1.29943e-07
-9.19638e-08
2.91721e-06
3.09054e-06
1.30482e-07
3.11348e-06
3.40327e-07
3.07108e-06
-1.25637e-06
3.0488e-06
-1.26517e-06
3.04015e-06
-4.04073e-07
3.03854e-06
-2.61093e-07
3.05064e-06
2.14784e-07
3.0566e-06
3.05476e-07
3.08949e-06
4.69369e-07
3.09726e-06
2.94178e-07
3.11108e-06
6.42313e-08
3.10722e-06
-1.0492e-07
3.10088e-06
-2.47621e-07
3.09058e-06
-3.00183e-07
3.07817e-06
-3.10826e-07
3.06449e-06
-2.82733e-07
3.05345e-06
-2.26469e-07
3.04246e-06
-1.81087e-07
3.03564e-06
-1.23132e-07
-8.64075e-08
3.03009e-06
3.20743e-06
1.2741e-07
3.231e-06
3.16759e-07
3.18808e-06
-1.21345e-06
3.16511e-06
-1.2422e-06
3.15708e-06
-3.96047e-07
3.15387e-06
-2.57882e-07
3.16792e-06
2.00739e-07
3.17311e-06
3.00287e-07
3.2058e-06
4.36678e-07
3.21448e-06
2.85495e-07
3.2268e-06
5.19085e-08
3.22447e-06
-1.02589e-07
3.21701e-06
-2.40155e-07
3.20649e-06
-2.89665e-07
3.19385e-06
-2.9819e-07
3.18048e-06
-2.69359e-07
3.1696e-06
-2.15587e-07
3.15906e-06
-1.70549e-07
3.15251e-06
-1.16579e-07
-8.1151e-08
3.14725e-06
3.32877e-06
1.24651e-07
3.35291e-06
2.92621e-07
3.30962e-06
-1.17016e-06
3.28579e-06
-1.21837e-06
3.27861e-06
-3.88873e-07
3.2737e-06
-2.5297e-07
3.28945e-06
1.84991e-07
3.29433e-06
2.95414e-07
3.32625e-06
4.04753e-07
3.33629e-06
2.75453e-07
3.34681e-06
4.13906e-08
3.3457e-06
-1.01478e-07
3.33754e-06
-2.31993e-07
3.32662e-06
-2.78753e-07
3.31382e-06
-2.85388e-07
3.30073e-06
-2.5627e-07
3.29016e-06
-2.05011e-07
3.28033e-06
-1.6072e-07
3.27383e-06
-1.10077e-07
-7.61821e-08
3.26886e-06
3.45473e-06
1.22203e-07
3.47937e-06
2.67984e-07
3.43587e-06
-1.12666e-06
3.41099e-06
-1.19348e-06
3.4049e-06
-3.82781e-07
3.3983e-06
-2.46369e-07
3.4154e-06
1.67886e-07
3.42043e-06
2.90381e-07
3.45102e-06
3.7417e-07
3.4628e-06
2.63673e-07
3.47139e-06
3.27998e-08
3.47102e-06
-1.01106e-07
3.46252e-06
-2.23496e-07
3.4513e-06
-2.67533e-07
3.4384e-06
-2.72492e-07
3.42558e-06
-2.43444e-07
3.41531e-06
-1.94744e-07
3.40605e-06
-1.51457e-07
3.39977e-06
-1.03798e-07
-7.15031e-08
3.39509e-06
3.58549e-06
1.20059e-07
3.61054e-06
2.42933e-07
3.56704e-06
-1.08316e-06
3.54089e-06
-1.16733e-06
3.53607e-06
-3.77961e-07
3.52791e-06
-2.38205e-07
3.54593e-06
1.49863e-07
3.55161e-06
2.84704e-07
3.58029e-06
3.45489e-07
3.59402e-06
2.49939e-07
3.60088e-06
2.59415e-08
3.60069e-06
-1.00915e-07
3.59197e-06
-2.14773e-07
3.58069e-06
-2.56254e-07
3.56783e-06
-2.59632e-07
3.55525e-06
-2.30871e-07
3.54523e-06
-1.84724e-07
3.53631e-06
-1.42529e-07
3.5305e-06
-9.79917e-08
-6.71243e-08
3.52612e-06
3.72124e-06
1.18207e-07
3.74661e-06
2.17561e-07
3.70333e-06
-1.03989e-06
3.67568e-06
-1.13969e-06
3.67224e-06
-3.74522e-07
3.66276e-06
-2.28721e-07
3.68121e-06
1.31413e-07
3.688e-06
2.77915e-07
3.71428e-06
3.19206e-07
3.72986e-06
2.34368e-07
3.73556e-06
2.02399e-08
3.73506e-06
-1.00419e-07
3.72601e-06
-2.05718e-07
3.71491e-06
-2.45162e-07
3.70225e-06
-2.46964e-07
3.68995e-06
-2.18579e-07
3.68014e-06
-1.74905e-07
3.67196e-06
-1.34351e-07
3.6662e-06
-9.22304e-08
-6.3059e-08
3.66213e-06
3.86216e-06
1.16633e-07
3.88775e-06
1.91973e-07
3.84496e-06
-9.9709e-07
3.81559e-06
-1.11032e-06
3.81352e-06
-3.72457e-07
3.80308e-06
-2.18277e-07
3.82143e-06
1.13061e-07
3.82976e-06
2.69585e-07
3.85341e-06
2.95551e-07
3.87032e-06
2.17462e-07
3.87549e-06
1.50724e-08
3.87446e-06
-9.93954e-08
3.86508e-06
-1.96334e-07
3.85411e-06
-2.34188e-07
3.84185e-06
-2.3471e-07
3.82984e-06
-2.06567e-07
3.82027e-06
-1.65335e-07
3.81249e-06
-1.26569e-07
3.80702e-06
-8.67593e-08
-5.93578e-08
3.80332e-06
4.00847e-06
1.15314e-07
4.03416e-06
1.66282e-07
3.99214e-06
-9.55071e-07
3.96084e-06
-1.07901e-06
3.96002e-06
-3.71638e-07
3.94906e-06
-2.07322e-07
3.96677e-06
9.535e-08
3.97701e-06
2.59344e-07
3.99816e-06
2.74404e-07
4.01563e-06
1.99995e-07
4.02067e-06
1.00331e-08
4.01921e-06
-9.79355e-08
4.00958e-06
-1.86707e-07
3.99852e-06
-2.23131e-07
3.98678e-06
-2.22972e-07
3.97515e-06
-1.94929e-07
3.96576e-06
-1.55945e-07
3.95795e-06
-1.18761e-07
3.95317e-06
-8.1979e-08
-5.6045e-08
3.94986e-06
4.16037e-06
1.14226e-07
4.18604e-06
1.4061e-07
4.14512e-06
-9.1415e-07
4.11171e-06
-1.0456e-06
4.11187e-06
-3.71792e-07
4.10093e-06
-1.96383e-07
4.11741e-06
7.8869e-08
4.1298e-06
2.46949e-07
4.14887e-06
2.55337e-07
4.16609e-06
1.82775e-07
4.17112e-06
5.00634e-09
4.1695e-06
-9.63196e-08
4.15976e-06
-1.76967e-07
4.14849e-06
-2.11864e-07
4.13724e-06
-2.11721e-07
4.12604e-06
-1.83726e-07
4.11691e-06
-1.4682e-07
4.10969e-06
-1.11538e-07
4.1049e-06
-7.71859e-08
-5.30817e-08
4.10193e-06
4.31807e-06
1.13342e-07
4.3436e-06
1.15084e-07
4.30409e-06
-8.74642e-07
4.2685e-06
-1.01001e-06
4.26926e-06
-3.7255e-07
4.25886e-06
-1.85983e-07
4.27359e-06
6.41421e-08
4.28811e-06
2.32423e-07
4.30568e-06
2.37775e-07
4.32209e-06
1.66363e-07
4.32698e-06
1.15672e-10
4.32543e-06
-9.47738e-08
4.31581e-06
-1.67342e-07
4.30433e-06
-2.00386e-07
4.29343e-06
-2.00825e-07
4.28275e-06
-1.7304e-07
4.27394e-06
-1.38012e-07
4.26725e-06
-1.04844e-07
4.26244e-06
-7.23802e-08
-5.03819e-08
4.25974e-06
4.4818e-06
1.12629e-07
4.50704e-06
8.98399e-08
4.46914e-06
-8.36743e-07
4.43151e-06
-9.72373e-07
4.43243e-06
-3.73471e-07
4.42306e-06
-1.7661e-07
4.43576e-06
5.14377e-08
4.45196e-06
2.16219e-07
4.46867e-06
2.21064e-07
4.48398e-06
1.51058e-07
4.48856e-06
-4.46394e-09
4.48713e-06
-9.33453e-08
4.47786e-06
-1.58076e-07
4.46625e-06
-1.88767e-07
4.45564e-06
-1.90224e-07
4.44556e-06
-1.62957e-07
4.43695e-06
-1.29401e-07
4.43054e-06
-9.84359e-08
4.42603e-06
-6.7865e-08
-4.7858e-08
4.4235e-06
4.65179e-06
1.1205e-07
4.67661e-06
6.50142e-08
4.64042e-06
-8.00556e-07
4.601e-06
-9.32952e-07
4.60161e-06
-3.74079e-07
4.59368e-06
-1.68681e-07
4.60437e-06
4.07492e-08
4.62152e-06
1.9907e-07
4.63793e-06
2.04651e-07
4.65214e-06
1.36853e-07
4.65622e-06
-8.5439e-09
4.65479e-06
-9.19208e-08
4.64611e-06
-1.49391e-07
4.63448e-06
-1.7714e-07
4.62409e-06
-1.79834e-07
4.61471e-06
-1.53575e-07
4.60625e-06
-1.20939e-07
4.60035e-06
-9.25448e-08
4.59591e-06
-6.34158e-08
-4.53973e-08
4.59344e-06
4.82827e-06
1.11566e-07
4.85254e-06
4.07487e-08
4.81809e-06
-7.66104e-07
4.77727e-06
-8.92138e-07
4.77708e-06
-3.73888e-07
4.7709e-06
-1.62496e-07
4.77979e-06
3.18605e-08
4.79712e-06
1.81736e-07
4.8135e-06
1.88272e-07
4.82685e-06
1.23505e-07
4.83031e-06
-1.20094e-08
4.82875e-06
-9.03568e-08
4.82069e-06
-1.41334e-07
4.80929e-06
-1.65744e-07
4.79899e-06
-1.69525e-07
4.79035e-06
-1.44937e-07
4.78215e-06
-1.12745e-07
4.77684e-06
-8.7228e-08
4.77231e-06
-5.88887e-08
-4.29121e-08
4.76982e-06
5.0115e-06
1.11135e-07
5.03507e-06
1.71769e-08
5.00231e-06
-7.33343e-07
4.96059e-06
-8.50419e-07
4.95915e-06
-3.72441e-07
4.95482e-06
-1.58175e-07
4.96232e-06
2.43633e-08
4.97916e-06
1.64896e-07
4.99554e-06
1.71896e-07
5.00829e-06
1.10754e-07
5.0112e-06
-1.49192e-08
5.00936e-06
-8.85129e-08
5.00187e-06
-1.33851e-07
4.9909e-06
-1.54772e-07
4.98061e-06
-1.59231e-07
4.97269e-06
-1.37023e-07
4.96477e-06
-1.04818e-07
4.95953e-06
-8.19955e-08
4.95546e-06
-5.48121e-08
-4.03686e-08
4.95291e-06
5.20173e-06
1.10715e-07
5.22448e-06
-5.56695e-09
5.19333e-06
-7.02193e-07
5.15126e-06
-8.08358e-07
5.1481e-06
-3.6928e-07
5.1456e-06
-1.55674e-07
5.15218e-06
1.77872e-08
5.16814e-06
1.48938e-07
5.18428e-06
1.55757e-07
5.19656e-06
9.84698e-08
5.19919e-06
-1.75461e-08
5.19698e-06
-8.63098e-08
5.18996e-06
-1.26828e-07
5.17956e-06
-1.44374e-07
5.1692e-06
-1.48872e-07
5.16192e-06
-1.29742e-07
5.15439e-06
-9.72905e-08
5.14933e-06
-7.69351e-08
5.14559e-06
-5.10634e-08
-3.7782e-08
5.143e-06
5.39923e-06
1.10263e-07
5.42101e-06
-2.7349e-08
5.39138e-06
-6.72561e-07
5.34958e-06
-7.66561e-07
5.34432e-06
-3.64017e-07
5.34338e-06
-1.54739e-07
5.34953e-06
1.16444e-08
5.36443e-06
1.34032e-07
5.38006e-06
1.40127e-07
5.39183e-06
8.66998e-08
5.39443e-06
-2.01409e-08
5.39196e-06
-8.38393e-08
5.38526e-06
-1.20129e-07
5.37552e-06
-1.34637e-07
5.36507e-06
-1.3842e-07
5.35833e-06
-1.23004e-07
5.35134e-06
-9.03018e-08
5.34603e-06
-7.16171e-08
5.34295e-06
-4.79894e-08
-3.51817e-08
5.34035e-06
5.60427e-06
1.09732e-07
5.62495e-06
-4.80259e-08
5.59674e-06
-6.44357e-07
5.55585e-06
-7.25668e-07
5.54818e-06
-3.5635e-07
5.54837e-06
-1.54924e-07
5.55451e-06
5.50155e-09
5.5684e-06
1.2014e-07
5.58321e-06
1.25316e-07
5.59442e-06
7.54908e-08
5.59704e-06
-2.27581e-08
5.59458e-06
-8.13751e-08
5.58805e-06
-1.13608e-07
5.57902e-06
-1.25602e-07
5.56857e-06
-1.27975e-07
5.56217e-06
-1.16596e-07
5.55604e-06
-8.41728e-08
5.551e-06
-6.65747e-08
5.54785e-06
-4.48421e-08
-3.25855e-08
5.54525e-06
5.81714e-06
1.09072e-07
5.83653e-06
-6.7419e-08
5.8097e-06
-6.17528e-07
5.77025e-06
-6.86215e-07
5.7601e-06
-3.46203e-07
5.76083e-06
-1.55646e-07
5.76729e-06
-9.65769e-10
5.78033e-06
1.071e-07
5.79414e-06
1.11509e-07
5.80469e-06
6.49456e-08
5.80728e-06
-2.5348e-08
5.80503e-06
-7.91281e-08
5.79865e-06
-1.07233e-07
5.7903e-06
-1.17247e-07
5.78006e-06
-1.17733e-07
5.77368e-06
-1.10221e-07
5.76843e-06
-7.8917e-08
5.76378e-06
-6.19296e-08
5.76051e-06
-4.15718e-08
-3.00556e-08
5.75798e-06
6.03814e-06
1.08233e-07
6.05601e-06
-8.52901e-08
6.03057e-06
-5.92089e-07
5.9929e-06
-6.48545e-07
5.98052e-06
-3.3382e-07
5.98109e-06
-1.56214e-07
5.98809e-06
-7.97556e-09
6.00044e-06
9.475e-08
6.01327e-06
9.86814e-08
6.02304e-06
5.51821e-08
6.02551e-06
-2.7826e-08
6.02352e-06
-7.71362e-08
6.01736e-06
-1.01074e-07
6.00965e-06
-1.09535e-07
5.9998e-06
-1.07884e-07
5.99314e-06
-1.03565e-07
5.98857e-06
-7.43415e-08
5.98394e-06
-5.72985e-08
5.98123e-06
-3.88614e-08
-2.76614e-08
5.97883e-06
6.26757e-06
1.07162e-07
6.28361e-06
-1.01325e-07
6.25966e-06
-5.68143e-07
6.22393e-06
-6.12816e-07
6.2098e-06
-3.19691e-07
6.20961e-06
-1.56018e-07
6.21711e-06
-1.54778e-08
6.22897e-06
8.28891e-08
6.24093e-06
8.67191e-08
6.24994e-06
4.61791e-08
6.252e-06
-2.98932e-08
6.25035e-06
-7.54817e-08
6.2445e-06
-9.52221e-08
6.23733e-06
-1.0237e-07
6.22807e-06
-9.86245e-08
6.22106e-06
-9.65548e-08
6.21702e-06
-7.03028e-08
6.21282e-06
-5.30909e-08
6.21034e-06
-3.6388e-08
-2.54225e-08
6.2081e-06
6.50576e-06
1.05808e-07
6.51957e-06
-1.15134e-07
6.49731e-06
-5.45884e-07
6.46356e-06
-5.79065e-07
6.44828e-06
-3.04419e-07
6.44693e-06
-1.54661e-07
6.45453e-06
-2.30802e-08
6.4662e-06
7.12212e-08
6.47736e-06
7.55583e-08
6.48575e-06
3.77932e-08
6.48725e-06
-3.14011e-08
6.48579e-06
-7.40198e-08
6.4804e-06
-8.98263e-08
6.47366e-06
-9.56362e-08
6.46512e-06
-9.0082e-08
6.45792e-06
-8.93567e-08
6.45425e-06
-6.66283e-08
6.45032e-06
-4.91608e-08
6.4482e-06
-3.42741e-08
-2.33282e-08
6.44611e-06
6.75302e-06
1.04127e-07
6.7642e-06
-1.26319e-07
6.74384e-06
-5.25519e-07
6.71208e-06
-5.47306e-07
6.69623e-06
-2.8857e-07
6.69358e-06
-1.52008e-07
6.70067e-06
-3.01701e-08
6.71241e-06
5.94834e-08
6.72285e-06
6.51133e-08
6.73072e-06
2.99208e-08
6.73174e-06
-3.24146e-08
6.73019e-06
-7.24678e-08
6.72537e-06
-8.50064e-08
6.71898e-06
-8.92537e-08
6.71123e-06
-8.23328e-08
6.70408e-06
-8.22037e-08
6.70062e-06
-6.31687e-08
6.6975e-06
-4.60399e-08
6.69515e-06
-3.19258e-08
-2.13622e-08
6.69319e-06
7.00969e-06
1.02082e-07
7.01804e-06
-1.34665e-07
6.9996e-06
-5.07079e-07
6.96984e-06
-5.17544e-07
6.95387e-06
-2.72602e-07
6.95005e-06
-1.48188e-07
6.95604e-06
-3.61624e-08
6.9678e-06
4.77318e-08
6.97772e-06
5.51885e-08
6.98515e-06
2.24861e-08
6.9858e-06
-3.30568e-08
6.98392e-06
-7.05913e-08
6.9797e-06
-8.07907e-08
6.97372e-06
-8.32672e-08
6.96673e-06
-7.53477e-08
6.95975e-06
-7.52172e-08
6.95627e-06
-5.96896e-08
6.9533e-06
-4.30706e-08
6.95145e-06
-3.00777e-08
-1.96059e-08
6.94969e-06
7.27612e-06
9.96521e-08
7.28176e-06
-1.40306e-07
7.26493e-06
-4.90247e-07
7.23718e-06
-4.89793e-07
7.2214e-06
-2.56822e-07
7.21673e-06
-1.43516e-07
7.22122e-06
-4.06564e-08
7.23277e-06
3.61817e-08
7.24221e-06
4.57498e-08
7.24935e-06
1.53448e-08
7.24984e-06
-3.35449e-08
7.24753e-06
-6.82816e-08
7.24377e-06
-7.70283e-08
7.23827e-06
-7.77717e-08
7.23198e-06
-6.90595e-08
7.22524e-06
-6.84779e-08
7.22158e-06
-5.60302e-08
7.21889e-06
-4.03737e-08
7.21748e-06
-2.86748e-08
-1.81181e-08
7.216e-06
7.55265e-06
9.68312e-08
7.55589e-06
-1.43539e-07
7.54015e-06
-4.74513e-07
7.51443e-06
-4.64068e-07
7.49908e-06
-2.41471e-07
7.49384e-06
-1.38285e-07
7.49688e-06
-4.36893e-08
7.50775e-06
2.53126e-08
7.51669e-06
3.68028e-08
7.52361e-06
8.43221e-09
7.52417e-06
-3.41096e-08
7.52146e-06
-6.55744e-08
7.51795e-06
-7.35194e-08
7.51297e-06
-7.27887e-08
7.50734e-06
-6.34235e-08
7.50102e-06
-6.21644e-08
7.49755e-06
-5.25612e-08
7.49514e-06
-3.79558e-08
7.49369e-06
-2.72342e-08
-1.68777e-08
7.49245e-06
7.83965e-06
9.36319e-08
7.84086e-06
-1.44741e-07
7.82557e-06
-4.59229e-07
7.80194e-06
-4.40436e-07
7.78727e-06
-2.26803e-07
7.78166e-06
-1.32673e-07
7.78353e-06
-4.55589e-08
7.79327e-06
1.55702e-08
7.80162e-06
2.84519e-08
7.80818e-06
1.87105e-09
7.80909e-06
-3.50192e-08
7.80607e-06
-6.25467e-08
7.80266e-06
-7.01089e-08
7.79824e-06
-6.83678e-08
7.7932e-06
-5.83851e-08
7.78736e-06
-5.63284e-08
7.78391e-06
-4.91119e-08
7.78159e-06
-3.56326e-08
7.78037e-06
-2.60194e-08
-1.59449e-08
7.77944e-06
8.13751e-06
9.00842e-08
8.13706e-06
-1.44289e-07
8.12153e-06
-4.43704e-07
8.10009e-06
-4.18997e-07
8.08631e-06
-2.1302e-07
8.08056e-06
-1.2692e-07
8.08149e-06
-4.64982e-08
8.08989e-06
7.17243e-09
8.09758e-06
2.07648e-08
8.10345e-06
-4.00375e-09
8.10488e-06
-3.64496e-08
8.10185e-06
-5.95148e-08
8.09843e-06
-6.66865e-08
8.09447e-06
-6.44091e-08
8.08999e-06
-5.39037e-08
8.08452e-06
-5.08546e-08
8.08116e-06
-4.57517e-08
8.07908e-06
-3.35537e-08
8.07792e-06
-2.48578e-08
-1.53612e-08
8.07733e-06
8.44662e-06
8.62255e-08
8.44486e-06
-1.42525e-07
8.42859e-06
-4.27436e-07
8.40931e-06
-3.99721e-07
8.39648e-06
-2.00183e-07
8.39093e-06
-1.21371e-07
8.3911e-06
-4.66733e-08
8.39805e-06
2.25123e-10
8.40511e-06
1.37075e-08