/*--------------------------------*- C++ -*----------------------------------*\
| =========                 |                                                 |
| \\      /  F ield         | OpenFOAM: The Open Source CFD Toolbox           |
|  \\    /   O peration     | Version:  v2012                                 |
|   \\  /    A nd           | Website:  www.openfoam.com                      |
|    \\/     M anipulation  |                                                 |
\*---------------------------------------------------------------------------*/
FoamFile
{
    version     2.0;
    format      ascii;
    class       volVectorField;
    location    "0.4";
    object      U;
}
// * * * * * * * * * * * * * * * * * * * * * * * * * * * * * * * * * * * * * //

dimensions      [0 1 -1 0 0 0 0];


internalField   nonuniform List<vector> 
7000
(
(0.901324 0.000960781 0)
(1.05956 0.00520074 0)
(0.853567 -0.0192627 0)
(1.13458 -0.01474 0)
(1.01963 -0.00401645 0)
(1.09269 -0.000168035 0)
(0.975851 0.00818883 0)
(1.16188 0.0130565 0)
(0.970045 0.0143668 0)
(1.10916 0.010753 0)
(0.945903 4.7467e-05 0)
(1.0807 -0.00485125 0)
(0.941509 -0.0197895 0)
(1.05653 -0.0222353 0)
(0.921245 -0.0318631 0)
(1.0611 -0.0295299 0)
(0.904951 -0.0306443 0)
(1.08307 -0.0292945 0)
(0.887243 -0.0213213 0)
(1.1034 -0.0249794 0)
(0.909235 0.00107724 0)
(1.04947 0.00550432 0)
(0.874608 -0.0198689 0)
(1.1188 -0.0156687 0)
(1.02391 -0.00384302 0)
(1.08687 0.000337059 0)
(0.985126 0.00762854 0)
(1.14935 0.0130765 0)
(0.99026 0.0146758 0)
(1.08256 0.0111061 0)
(0.986809 0.000373341 0)
(1.04381 -0.00470006 0)
(0.994997 -0.0192246 0)
(1.0099 -0.0218158 0)
(0.981012 -0.0316907 0)
(0.998793 -0.0293973 0)
(0.973424 -0.0309121 0)
(1.00483 -0.0294465 0)
(0.969789 -0.0212249 0)
(1.01015 -0.0256808 0)
(0.923906 0.00123486 0)
(1.03295 0.00573499 0)
(0.898986 -0.0203199 0)
(1.09237 -0.0164099 0)
(1.03163 -0.00371048 0)
(1.07529 0.000663432 0)
(1.00464 0.00694781 0)
(1.12589 0.0131353 0)
(1.01966 0.0153575 0)
(1.05638 0.0112494 0)
(1.01744 0.000862333 0)
(1.02721 -0.00479939 0)
(1.01427 -0.01851 0)
(0.994568 -0.0217967 0)
(0.995923 -0.0310448 0)
(0.976181 -0.0296333 0)
(0.990043 -0.0306139 0)
(0.975621 -0.0296826 0)
(0.991063 -0.0213763 0)
(0.979488 -0.0248107 0)
(0.942399 0.00139703 0)
(1.01504 0.00587952 0)
(0.9233 -0.0206769 0)
(1.05999 -0.0170753 0)
(1.03947 -0.00366984 0)
(1.06138 0.000806794 0)
(1.02785 0.00650454 0)
(1.10138 0.0130882 0)
(1.04374 0.0160762 0)
(1.04365 0.0112903 0)
(1.0323 0.00125055 0)
(1.02551 -0.00482404 0)
(1.01992 -0.0177686 0)
(0.995477 -0.0216459 0)
(0.997734 -0.0302926 0)
(0.974912 -0.0298576 0)
(0.989292 -0.0301277 0)
(0.970596 -0.0302395 0)
(0.990317 -0.0210063 0)
(0.972874 -0.0245588 0)
(0.961352 0.00155979 0)
(1.00018 0.00598832 0)
(0.944753 -0.020915 0)
(1.02797 -0.0177026 0)
(1.04347 -0.00374802 0)
(1.04957 0.000819059 0)
(1.04734 0.00622259 0)
(1.08352 0.0129586 0)
(1.05796 0.0166498 0)
(1.04181 0.0114245 0)
(1.03784 0.00155729 0)
(1.02938 -0.00473192 0)
(1.02123 -0.0170227 0)
(1.00079 -0.0214351 0)
(0.997288 -0.0294782 0)
(0.979356 -0.0299918 0)
(0.985731 -0.029567 0)
(0.972357 -0.030657 0)
(0.98479 -0.0206138 0)
(0.973095 -0.0245127 0)
(0.977983 0.00171233 0)
(0.991016 0.0060775 0)
(0.962052 -0.0210322 0)
(1.0018 -0.0182684 0)
(1.04168 -0.00395846 0)
(1.04199 0.000712086 0)
(1.05983 0.00597281 0)
(1.07351 0.0128425 0)
(1.06467 0.0170896 0)
(1.04423 0.0116581 0)
(1.03983 0.00184214 0)
(1.03281 -0.00459658 0)
(1.02228 -0.0162685 0)
(1.00506 -0.0211898 0)
(0.997993 -0.0286213 0)
(0.983246 -0.030034 0)
(0.983594 -0.0289243 0)
(0.974036 -0.0309494 0)
(0.980134 -0.0202581 0)
(0.973219 -0.0244604 0)
(0.990625 0.00183688 0)
(0.987951 0.00615313 0)
(0.975421 -0.0210391 0)
(0.984049 -0.0187443 0)
(1.03501 -0.00429339 0)
(1.03777 0.000478488 0)
(1.06586 0.00572622 0)
(1.06843 0.0127689 0)
(1.06741 0.0174433 0)
(1.04655 0.0119413 0)
(1.04078 0.00214674 0)
(1.03399 -0.00446387 0)
(1.02348 -0.0154978 0)
(1.0075 -0.0209441 0)
(0.999791 -0.0277312 0)
(0.985791 -0.0299868 0)
(0.98318 -0.0282269 0)
(0.974701 -0.0310984 0)
(0.977311 -0.0199185 0)
(0.972239 -0.0243168 0)
(0.998854 0.00192126 0)
(0.989539 0.0062163 0)
(0.985803 -0.0209536 0)
(0.974299 -0.0191143 0)
(1.02598 -0.00472448 0)
(1.03461 0.00012831 0)
(1.06717 0.00548589 0)
(1.06487 0.0127073 0)
(1.06816 0.0177514 0)
(1.04721 0.0122381 0)
(1.04102 0.00249489 0)
(1.03312 -0.0043496 0)
(1.02428 -0.0147225 0)
(1.00876 -0.0207187 0)
(1.00186 -0.0268211 0)
(0.987642 -0.029865 0)
(0.983726 -0.0274877 0)
(0.975051 -0.0310963 0)
(0.975776 -0.0195826 0)
(0.970929 -0.0240577 0)
(1.00323 0.00196331 0)
(0.993518 0.00626119 0)
(0.994085 -0.0207958 0)
(0.970436 -0.0193754 0)
(1.01686 -0.00520429 0)
(1.03051 -0.000312242 0)
(1.06486 0.00524679 0)
(1.06052 0.0126259 0)
(1.06719 0.0180337 0)
(1.04602 0.0125411 0)
(1.0402 0.00289248 0)
(1.03088 -0.00425838 0)
(1.02429 -0.0139636 0)
(1.00943 -0.0205235 0)
(1.00362 -0.025908 0)
(0.989304 -0.0296771 0)
(0.984609 -0.0267212 0)
(0.975609 -0.0309416 0)
(0.974934 -0.0192437 0)
(0.969912 -0.0236833 0)
(1.00485 0.00196921 0)
(0.997866 0.00627923 0)
(1.00075 -0.0205855 0)
(0.970151 -0.0195315 0)
(1.00872 -0.00568004 0)
(1.02451 -0.000814315 0)
(1.05918 0.00500423 0)
(1.0542 0.0125077 0)
(1.0639 0.0182919 0)
(1.04311 0.0128412 0)
(1.03804 0.00332645 0)
(1.02786 -0.00419706 0)
(1.0235 -0.0132424 0)
(1.00981 -0.0203625 0)
(1.00485 -0.0250114 0)
(0.99091 -0.029422 0)
(0.985542 -0.0259526 0)
(0.976475 -0.0306337 0)
(0.974492 -0.0188987 0)
(0.969364 -0.0232026 0)
(1.00482 0.00194956 0)
(1.00138 0.0062644 0)
(1.00591 -0.0203408 0)
(0.971714 -0.0195896 0)
(1.0016 -0.00610643 0)
(1.01668 -0.00133682 0)
(1.05013 0.00476118 0)
(1.04539 0.0123442 0)
(1.05768 0.0185144 0)
(1.03866 0.0131134 0)
(1.03457 0.00377623 0)
(1.02455 -0.00417683 0)
(1.02209 -0.0125746 0)
(1.01002 -0.0202354 0)
(1.00553 -0.0241472 0)
(0.992403 -0.0291016 0)
(0.986426 -0.0252021 0)
(0.977539 -0.0301777 0)
(0.974359 -0.0185477 0)
(0.969232 -0.0226245 0)
(1.00402 0.00191532 0)
(1.00373 0.00621599 0)
(1.00955 -0.0200775 0)
(0.974064 -0.0195587 0)
(0.995272 -0.00645249 0)
(1.00783 -0.00183242 0)
(1.03823 0.00452857 0)
(1.03428 0.012133 0)
(1.04851 0.0186791 0)
(1.03302 0.0133276 0)
(1.03016 0.00421609 0)
(1.02135 -0.00421032 0)
(1.02034 -0.0119695 0)
(1.0101 -0.0201362 0)
(1.00574 -0.023329 0)
(0.993689 -0.0287182 0)
(0.987227 -0.0244836 0)
(0.978652 -0.0295864 0)
(0.974501 -0.0181894 0)
(0.969414 -0.0219587 0)
(1.00298 0.0018748 0)
(1.00513 0.00613902 0)
(1.0117 -0.0198073 0)
(0.976607 -0.0194504 0)
(0.989703 -0.00670339 0)
(0.999108 -0.00227035 0)
(1.02471 0.00432211 0)
(1.02176 0.011877 0)
(1.0372 0.0187627 0)
(1.02679 0.0134503 0)
(1.02543 0.00461772 0)
(1.0186 -0.0043051 0)
(1.01854 -0.0114301 0)
(1.01007 -0.0200522 0)
(1.00562 -0.0225683 0)
(0.9947 -0.0282712 0)
(0.987925 -0.0238092 0)
(0.979698 -0.0288801 0)
(0.974875 -0.0178203 0)
(0.969814 -0.0212188 0)
(1.00193 0.00183284 0)
(1.00599 0.00604094 0)
(1.01254 -0.0195372 0)
(0.979012 -0.0192792 0)
(0.985097 -0.00686103 0)
(0.991582 -0.00262702 0)
(1.01128 0.0041593 0)
(1.00927 0.0115831 0)
(1.02522 0.0187491 0)
(1.02076 0.0134482 0)
(1.02105 0.00495749 0)
(1.0165 -0.00446108 0)
(1.0169 -0.0109527 0)
(1.00993 -0.019965 0)
(1.00528 -0.0218733 0)
(0.995408 -0.0277626 0)
(0.988518 -0.0231837 0)
(0.980608 -0.0280832 0)
(0.97542 -0.0174418 0)
(0.970351 -0.0204224 0)
(1.00097 0.00179121 0)
(1.00666 0.0059294 0)
(1.01241 -0.019269 0)
(0.981098 -0.0190626 0)
(0.981677 -0.00693595 0)
(0.985919 -0.00289609 0)
(0.999549 0.00405124 0)
(0.998354 0.0112598 0)
(1.01422 0.0186332 0)
(1.01561 0.013305 0)
(1.01751 0.00522448 0)
(1.01508 -0.00466807 0)
(1.01552 -0.0105298 0)
(1.0097 -0.019853 0)
(1.00486 -0.0212512 0)
(0.995825 -0.0271934 0)
(0.989015 -0.0226065 0)
(0.981357 -0.0272193 0)
(0.97607 -0.0170572 0)
(0.970963 -0.0195892 0)
(1.00011 0.00174994 0)
(1.0073 0.00581005 0)
(1.01165 -0.0190007 0)
(0.982791 -0.018817 0)
(0.979504 -0.00694591 0)
(0.982266 -0.00308485 0)
(0.990579 0.00399917 0)
(0.990098 0.0109154 0)
(1.00546 0.018421 0)
(1.01178 0.0130304 0)
(1.01502 0.00541913 0)
(1.01424 -0.0049043 0)
(1.0144 -0.0101552 0)
(1.00938 -0.0196958 0)
(1.00443 -0.0207048 0)
(0.995999 -0.026562 0)
(0.989432 -0.0220756 0)
(0.981956 -0.0263087 0)
(0.976761 -0.0166651 0)
(0.971608 -0.0187372 0)
(0.99938 0.0017083 0)
(1.00795 0.00568632 0)
(1.0106 -0.0187289 0)
(0.984092 -0.0185561 0)
(0.978429 -0.00691183 0)
(0.980348 -0.00320884 0)
(0.984644 0.00399476 0)
(0.984861 0.0105557 0)
(0.999449 0.0181332 0)
(1.0093 0.012646 0)
(1.0135 0.00555208 0)
(1.01381 -0.00514382 0)
(1.01349 -0.00982588 0)
(1.00898 -0.0194792 0)
(1.00404 -0.0202255 0)
(0.995992 -0.0258763 0)
(0.989776 -0.0215826 0)
(0.982436 -0.0253708 0)
(0.977444 -0.0162634 0)
(0.972265 -0.0178781 0)
(0.998783 0.00166548 0)
(1.00855 0.00556084 0)
(1.00951 -0.0184499 0)
(0.985052 -0.0182909 0)
(0.978176 -0.00684937 0)
(0.97969 -0.00328929 0)
(0.981363 0.004023 0)
(0.982301 0.0101844 0)
(0.995986 0.0177951 0)
(1.00794 0.0121829 0)
(1.01271 0.00563697 0)
(1.01357 -0.00535887 0)
(1.01271 -0.00954356 0)
(1.00854 -0.0191944 0)
(1.00367 -0.0198045 0)
(0.995872 -0.0251479 0)
(0.99005 -0.0211118 0)
(0.982835 -0.024423 0)
(0.978083 -0.0158519 0)
(0.972924 -0.0170199 0)
(0.998328 0.00162117 0)
(1.00905 0.00543426 0)
(1.00852 -0.018161 0)
(0.985745 -0.0180282 0)
(0.978442 -0.00677038 0)
(0.979818 -0.00334335 0)
(0.980009 0.00406873 0)
(0.981667 0.00980373 0)
(0.994408 0.0174294 0)
(1.00732 0.0116759 0)
(1.01232 0.00567889 0)
(1.01335 -0.00552388 0)
(1.01201 -0.00931278 0)
(1.00807 -0.0188382 0)
(1.00332 -0.0194382 0)
(0.995696 -0.0243856 0)
(0.990248 -0.0206494 0)
(0.983186 -0.0234778 0)
(0.978664 -0.0154308 0)
(0.973584 -0.0161696 0)
(0.99801 0.00157546 0)
(1.00939 0.00530615 0)
(1.0077 -0.0178607 0)
(0.986251 -0.0177717 0)
(0.978975 -0.00668237 0)
(0.980363 -0.00338632 0)
(0.979829 0.00411948 0)
(0.982143 0.00941644 0)
(0.993951 0.017049 0)
(1.00707 0.0111575 0)
(1.01208 0.00568293 0)
(1.01305 -0.00562346 0)
(1.01136 -0.00913422 0)
(1.00758 -0.0184149 0)
(1.00297 -0.0191141 0)
(0.995508 -0.0236011 0)
(0.990372 -0.0201841 0)
(0.983515 -0.0225405 0)
(0.979189 -0.0150042 0)
(0.974247 -0.0153351 0)
(0.99782 0.00152874 0)
(1.00957 0.00517573 0)
(1.00705 -0.0175488 0)
(0.986632 -0.0175225 0)
(0.979599 -0.00659028 0)
(0.981078 -0.00342606 0)
(0.980235 0.00416782 0)
(0.983081 0.00902656 0)
(0.993997 0.0166636 0)
(1.00692 0.0106421 0)
(1.01185 0.00564484 0)
(1.01264 -0.00565127 0)
(1.01075 -0.00901086 0)
(1.00709 -0.0179322 0)
(1.00262 -0.0188149 0)
(0.995334 -0.0228076 0)
(0.990427 -0.0197065 0)
(0.983838 -0.021613 0)
(0.979667 -0.0145729 0)
(0.974917 -0.0145213 0)
(0.997738 0.00148154 0)
(1.00958 0.00504207 0)
(1.00657 -0.0172254 0)
(0.986931 -0.0172798 0)
(0.980215 -0.00649642 0)
(0.981812 -0.00346619 0)
(0.980861 0.00420957 0)
(0.984076 0.00863797 0)
(0.994169 0.016276 0)
(1.00672 0.0101426 0)
(1.01155 0.00555956 0)
(1.01214 -0.00560401 0)
(1.01019 -0.00894363 0)
(1.00661 -0.0174016 0)
(1.00227 -0.0185251 0)
(0.99519 -0.0220201 0)
(0.990431 -0.0192113 0)
(0.984165 -0.0206957 0)
(0.980116 -0.0141341 0)
(0.975596 -0.0137301 0)
(0.997742 0.00143453 0)
(1.00946 0.00490411 0)
(1.00623 -0.0168909 0)
(0.987177 -0.0170425 0)
(0.980774 -0.00640099 0)
(0.982478 -0.00350915 0)
(0.981516 0.00424484 0)
(0.984941 0.0082567 0)
(0.994303 0.0158771 0)
(1.00644 0.00967981 0)
(1.01118 0.00542293 0)
(1.0116 -0.00548765 0)
(1.00968 -0.00892397 0)
(1.00614 -0.0168342 0)
(1.00194 -0.0182345 0)
(0.995082 -0.0212493 0)
(0.990408 -0.0186953 0)
(0.984501 -0.0197908 0)
(0.980552 -0.0136916 0)
(0.976283 -0.0129673 0)
(0.997807 0.0013883 0)
(1.00923 0.00476088 0)
(1.00599 -0.0165455 0)
(0.987388 -0.0168089 0)
(0.98126 -0.00630341 0)
(0.983034 -0.00355569 0)
(0.982118 0.00427167 0)
(0.985622 0.00788721 0)
(0.994366 0.0154634 0)
(1.00607 0.00926225 0)
(1.01078 0.00522534 0)
(1.01105 -0.00531407 0)
(1.00923 -0.00894036 0)
(1.00571 -0.016245 0)
(1.00162 -0.0179311 0)
(0.995014 -0.0204971 0)
(0.990385 -0.018158 0)
(0.984843 -0.0189013 0)
(0.980988 -0.0132494 0)
(0.976974 -0.0122392 0)
(0.997905 0.00134334 0)
(1.00895 0.00461173 0)
(1.00582 -0.0161898 0)
(0.987581 -0.0165767 0)
(0.981676 -0.00620323 0)
(0.983471 -0.00360545 0)
(0.98264 0.00428986 0)
(0.986139 0.00753321 0)
(0.994376 0.015024 0)
(1.00565 0.00889181 0)
(1.01035 0.00497172 0)
(1.01052 -0.00509189 0)
(1.00881 -0.00898526 0)
(1.00531 -0.0156497 0)
(1.00134 -0.0175985 0)
(0.994982 -0.0197627 0)
(0.990383 -0.0176034 0)
(0.985193 -0.0180273 0)
(0.981438 -0.0128038 0)
(0.977666 -0.011545 0)
(0.998014 0.00129996 0)
(1.00865 0.00445622 0)
(1.00568 -0.0158239 0)
(0.987769 -0.016345 0)
(0.982033 -0.00609931 0)
(0.983807 -0.00365693 0)
(0.983079 0.00429817 0)
(0.986532 0.00719924 0)
(0.994362 0.0145484 0)
(1.00522 0.00856551 0)
(1.00992 0.00467702 0)
(1.01002 -0.00483141 0)
(1.00842 -0.00904135 0)
(1.00494 -0.0150633 0)
(1.00109 -0.0172248 0)
(0.99498 -0.0190455 0)
(0.990418 -0.0170378 0)
(0.985548 -0.0171681 0)
(0.981909 -0.0123512 0)
(0.978353 -0.0108834 0)
(0.998118 0.0012584 0)
(1.00835 0.00429384 0)
(1.00555 -0.0154475 0)
(0.987963 -0.016113 0)
(0.98235 -0.00599056 0)
(0.984075 -0.00370765 0)
(0.983446 0.00428805 0)
(0.986844 0.00689549 0)
(0.994345 0.014032 0)
(1.00479 0.00828356 0)
(1.0095 0.0043284 0)
(1.00955 -0.00455623 0)
(1.00803 -0.00908513 0)
(1.0046 -0.0145052 0)
(1.00086 -0.0168087 0)
(0.995003 -0.0183416 0)
(0.990496 -0.0164656 0)
(0.985909 -0.0163243 0)
(0.982403 -0.0118915 0)
(0.979035 -0.0102569 0)
(0.998208 0.00121893 0)
(1.00806 0.00412396 0)
(1.00542 -0.0150608 0)
(0.988167 -0.0158798 0)
(0.982642 -0.00587698 0)
(0.984308 -0.00375677 0)
(0.98376 0.00425813 0)
(0.98711 0.00662425 0)
(0.994337 0.0134729 0)
(1.00437 0.00803811 0)
(1.00907 0.00394335 0)
(1.0091 -0.00426987 0)
(1.00763 -0.00910376 0)
(1.00428 -0.0139844 0)
(1.00065 -0.0163617 0)
(0.995044 -0.0176452 0)
(0.990618 -0.0158874 0)
(0.986277 -0.015496 0)
(0.982919 -0.0114202 0)
(0.979711 -0.0096637 0)
(0.998284 0.00118156 0)
(1.0078 0.00394698 0)
(1.00527 -0.0146648 0)
(0.988384 -0.0156443 0)
(0.982924 -0.0057607 0)
(0.984533 -0.00379846 0)
(0.98404 0.00420205 0)
(0.987352 0.00638852 0)
(0.99434 0.0128731 0)
(1.00399 0.00782255 0)
(1.00865 0.00353039 0)
(1.00864 -0.00398731 0)
(1.00723 -0.00909049 0)
(1.00397 -0.0134969 0)
(1.00046 -0.0158918 0)
(0.9951 -0.0169511 0)
(0.990778 -0.0153007 0)
(0.986654 -0.0146877 0)
(0.983449 -0.0109346 0)
(0.98038 -0.00909794 0)
(0.998349 0.00114624 0)
(1.00755 0.00376338 0)
(1.0051 -0.0142598 0)
(0.98861 -0.0154061 0)
(0.983207 -0.00564161 0)
(0.984766 -0.00383156 0)
(0.984306 0.00411534 0)
(0.987584 0.00618985 0)
(0.994356 0.0122367 0)
(1.00362 0.00763237 0)
(1.00823 0.00309454 0)
(1.00819 -0.00373403 0)
(1.00681 -0.00902593 0)
(1.00367 -0.0130452 0)
(1.00029 -0.0153944 0)
(0.995166 -0.0162654 0)
(0.990966 -0.0147076 0)
(0.987041 -0.0139036 0)
(0.983987 -0.0104366 0)
(0.981042 -0.00855752 0)
(0.998405 0.00111321 0)
(1.0073 0.0035723 0)
(1.00492 -0.0138452 0)
(0.988843 -0.015165 0)
(0.983495 -0.00551975 0)
(0.985015 -0.00385511 0)
(0.984571 0.00399982 0)
(0.987811 0.00602201 0)
(0.994382 0.0115778 0)
(1.00328 0.00744872 0)
(1.00781 0.00266932 0)
(1.00773 -0.00351678 0)
(1.00639 -0.00890352 0)
(1.00337 -0.0126241 0)
(1.00012 -0.0148801 0)
(0.995243 -0.015595 0)
(0.991177 -0.0141064 0)
(0.987437 -0.0131411 0)
(0.984527 -0.00993531 0)
(0.981696 -0.00804572 0)
(0.998456 0.0010827 0)
(1.00707 0.00337403 0)
(1.00473 -0.0134232 0)
(0.989081 -0.0149182 0)
(0.98379 -0.00540001 0)
(0.985279 -0.00386116 0)
(0.984843 0.00384543 0)
(0.988036 0.00588549 0)
(0.994418 0.0108932 0)
(1.00296 0.00727813 0)
(1.00739 0.00226809 0)
(1.00726 -0.00335233 0)
(1.00597 -0.00873683 0)
(1.00308 -0.0122105 0)
(0.999974 -0.0143623 0)
(0.995329 -0.0149326 0)
(0.991404 -0.0135011 0)
(0.987839 -0.0124043 0)
(0.985061 -0.00943921 0)
(0.982338 -0.0075651 0)
(0.998504 0.00105453 0)
(1.00684 0.00316967 0)
(1.00453 -0.0129942 0)
(0.989324 -0.0146671 0)
(0.984092 -0.00528463 0)
(0.985558 -0.00384737 0)
(0.985126 0.00365137 0)
(0.988259 0.00576921 0)
(0.994462 0.0101938 0)
(1.00266 0.00711403 0)
(1.00698 0.00188402 0)
(1.0068 -0.00324141 0)
(1.00555 -0.00853253 0)
(1.0028 -0.0117937 0)
(0.999835 -0.0138347 0)
(0.995426 -0.01427 0)
(0.991645 -0.0129021 0)
(0.988248 -0.0116986 0)
(0.985587 -0.0089452 0)
(0.982967 -0.00710793 0)
(0.99855 0.00102881 0)
(1.00661 0.00295914 0)
(1.00433 -0.0125585 0)
(0.98957 -0.0144099 0)
(0.984401 -0.0051757 0)
(0.985847 -0.00380888 0)
(0.98542 0.00342602 0)
(0.988481 0.00566988 0)
(0.994512 0.00949816 0)
(1.00236 0.00692211 0)
(1.00656 0.00153619 0)
(1.00634 -0.00316693 0)
(1.00513 -0.00830296 0)
(1.00252 -0.0113755 0)
(0.999709 -0.0132895 0)
(0.995531 -0.013608 0)
(0.991896 -0.0123024 0)
(0.988662 -0.0110202 0)
(0.986105 -0.00845559 0)
(0.983581 -0.00667173 0)
(0.998596 0.00100576 0)
(1.00639 0.00274315 0)
(1.00412 -0.0121183 0)
(0.989818 -0.0141414 0)
(0.984717 -0.00507677 0)
(0.986145 -0.00374553 0)
(0.985728 0.00317197 0)
(0.9887 0.00558096 0)
(0.994567 0.00881317 0)
(1.00208 0.00669702 0)
(1.00615 0.00124115 0)
(1.00589 -0.0031208 0)
(1.00472 -0.00805926 0)
(1.00225 -0.0109565 0)
(0.999595 -0.0127269 0)
(0.995646 -0.0129536 0)
(0.992157 -0.0117047 0)
(0.98908 -0.0103787 0)
(0.986614 -0.00798757 0)
(0.98418 -0.00626336 0)
(0.99864 0.000984901 0)
(1.00617 0.00252318 0)
(1.0039 -0.0116756 0)
(0.990067 -0.0138606 0)
(0.98504 -0.00499066 0)
(0.986449 -0.00365676 0)
(0.986048 0.00289838 0)
(0.988918 0.00549238 0)
(0.994626 0.00815301 0)
(1.0018 0.00642588 0)
(1.00574 0.000997917 0)
(1.00545 -0.00309649 0)
(1.00431 -0.00779924 0)
(1.00199 -0.0105387 0)
(0.999493 -0.0121597 0)
(0.995767 -0.0123087 0)
(0.992425 -0.0111211 0)
(0.989499 -0.00977938 0)
(0.987117 -0.00754286 0)
(0.984764 -0.00588127 0)
(0.998684 0.000966682 0)
(1.00595 0.00229831 0)
(1.00369 -0.0112316 0)
(0.990318 -0.0135683 0)
(0.98537 -0.00492234 0)
(0.986756 -0.00354425 0)
(0.986381 0.00260718 0)
(0.989135 0.00539836 0)
(0.994686 0.0075354 0)
(1.00154 0.00610281 0)
(1.00533 0.000790771 0)
(1.00502 -0.00307654 0)
(1.00392 -0.00751781 0)
(1.00175 -0.0101222 0)
(0.999406 -0.011606 0)
(0.995894 -0.0116728 0)
(0.992699 -0.0105492 0)
(0.98992 -0.00921479 0)
(0.987613 -0.00711611 0)
(0.985335 -0.00551775 0)
(0.998728 0.000951173 0)
(1.00574 0.00206978 0)
(1.00347 -0.0107884 0)
(0.990568 -0.0132621 0)
(0.985707 -0.00487147 0)
(0.987066 -0.00341488 0)
(0.986726 0.00230044 0)
(0.989354 0.00528294 0)
(0.994745 0.0069659 0)
(1.00128 0.00574496 0)
(1.00493 0.000625826 0)
(1.00461 -0.00304661 0)
(1.00353 -0.00721429 0)
(1.00151 -0.00970524 0)
(0.999331 -0.0110564 0)
(0.996028 -0.0110568 0)
(0.992976 -0.00998317 0)
(0.990339 -0.00867735 0)
(0.988106 -0.00671172 0)
(0.985892 -0.00517978 0)
(0.998771 0.000937476 0)
(1.00553 0.00184168 0)
(1.00326 -0.0103493 0)
(0.990817 -0.0129328 0)
(0.986053 -0.00483954 0)
(0.987377 -0.00326712 0)
(0.98708 0.00199276 0)
(0.989575 0.00513617 0)
(0.994801 0.00645925 0)
(1.00105 0.00535286 0)
(1.00453 0.000492337 0)
(1.0042 -0.00300992 0)
(1.00315 -0.0068911 0)
(1.00128 -0.00928264 0)
(0.999269 -0.0105056 0)
(0.996169 -0.0104635 0)
(0.993256 -0.00943024 0)
(0.990755 -0.00816097 0)
(0.98859 -0.00633255 0)
(0.986436 -0.004871 0)
(0.998813 0.000926115 0)
(1.00532 0.00160896 0)
(1.00304 -0.00991554 0)
(0.991065 -0.0125813 0)
(0.986408 -0.00482788 0)
(0.987689 -0.00310252 0)
(0.987442 0.00168955 0)
(0.989802 0.00495533 0)
(0.994854 0.0060015 0)
(1.00081 0.00493462 0)
(1.00415 0.000338527 0)
(1.00382 -0.00297191 0)
(1.00279 -0.00656282 0)
(1.00105 -0.00884606 0)
(0.999219 -0.00997784 0)
(0.996315 -0.0098846 0)
(0.993539 -0.00890182 0)
(0.991165 -0.00766814 0)
(0.989066 -0.00597138 0)
(0.986969 -0.00459441 0)
(0.998855 0.000917034 0)
(1.00512 0.00137404 0)
(1.00283 -0.00949292 0)
(0.991311 -0.0122073 0)
(0.986773 -0.00482735 0)
(0.988 -0.00294239 0)
(0.987807 0.00140462 0)
(0.990035 0.00472873 0)
(0.994902 0.00558395 0)
(1.00059 0.00452533 0)
(1.00378 0.000185819 0)
(1.00344 -0.00293297 0)
(1.00244 -0.00622996 0)
(1.00084 -0.00840562 0)
(0.999179 -0.00946947 0)
(0.996468 -0.00931959 0)
(0.993824 -0.00839832 0)
(0.991572 -0.00719758 0)
(0.98953 -0.00562047 0)
(0.987489 -0.00434861 0)
(0.998896 0.000909114 0)
(1.00493 0.00114426 0)
(1.00263 -0.00908484 0)
(0.991554 -0.0118061 0)
(0.987146 -0.00483456 0)
(0.988313 -0.0027866 0)
(0.988174 0.00115305 0)
(0.990275 0.00445953 0)
(0.994949 0.00520546 0)
(1.00038 0.00413921 0)
(1.00342 4.45958e-05 0)
(1.00309 -0.00290275 0)
(1.0021 -0.00589319 0)
(1.00063 -0.00796961 0)
(0.999148 -0.00897206 0)
(0.996625 -0.00877464 0)
(0.99411 -0.00790922 0)
(0.991974 -0.00675285 0)
(0.989979 -0.00527769 0)
(0.987993 -0.00412629 0)
(0.998936 0.000902511 0)
(1.00474 0.000915413 0)
(1.00243 -0.00869172 0)
(0.991794 -0.0113787 0)
(0.987527 -0.00484813 0)
(0.988629 -0.00263495 0)
(0.988538 0.000933514 0)
(0.99052 0.00416698 0)
(0.994995 0.00484068 0)
(1.00017 0.003774 0)
(1.00308 -8.06717e-05 0)
(1.00276 -0.00287021 0)
(1.00179 -0.00556709 0)
(1.00043 -0.00752449 0)
(0.999126 -0.00850004 0)
(0.996788 -0.00825287 0)
(0.994394 -0.0074278 0)
(0.992372 -0.00634195 0)
(0.990411 -0.00494079 0)
(0.98848 -0.00391998 0)
(0.998976 0.000898461 0)
(1.00455 0.000690489 0)
(1.00224 -0.00831447 0)
(0.992029 -0.0109322 0)
(0.987915 -0.0048595 0)
(0.988951 -0.00251089 0)
(0.988901 0.000756786 0)
(0.99077 0.00385555 0)
(0.995043 0.00448442 0)
(0.999962 0.00342515 0)
(1.00275 -0.000185948 0)
(1.00244 -0.00282437 0)
(1.00149 -0.0052615 0)
(1.00023 -0.00707355 0)
(0.99911 -0.00805017 0)
(0.99696 -0.00775587 0)
(0.994676 -0.00695237 0)
(0.992766 -0.0059675 0)
(0.990829 -0.00461119 0)
(0.988945 -0.00372066 0)
(0.999016 0.00089419 0)
(1.00437 0.000469296 0)
(1.00206 -0.00795797 0)
(0.992261 -0.0104696 0)
(0.988308 -0.00486406 0)
(0.98928 -0.00241122 0)
(0.989261 0.000610809 0)
(0.991022 0.00353109 0)
(0.995093 0.00412715 0)
(0.999766 0.00309421 0)
(1.00243 -0.000274271 0)
(1.00215 -0.00277309 0)
(1.00122 -0.00497455 0)
(1.00003 -0.00663126 0)
(0.999098 -0.00761095 0)
(0.997143 -0.00729909 0)
(0.994952 -0.00647877 0)
(0.993155 -0.00562124 0)
(0.991237 -0.0042967 0)
(0.989389 -0.0035234 0)
(0.999055 0.00089018 0)
(1.00419 0.00025083 0)
(1.00188 -0.00762143 0)
(0.992488 -0.00999591 0)
(0.988704 -0.00485262 0)
(0.989616 -0.00233731 0)
(0.989618 0.000476313 0)
(0.991275 0.00321188 0)
(0.995149 0.00377417 0)
(0.999581 0.00277857 0)
(1.00213 -0.00035627 0)
(1.00187 -0.00271588 0)
(1.00096 -0.0047049 0)
(0.99985 -0.00620019 0)
(0.999085 -0.00717734 0)
(0.997338 -0.00689344 0)
(0.995225 -0.00600868 0)
(0.993533 -0.00528956 0)
(0.991635 -0.00400364 0)
(0.98981 -0.00332085 0)
(0.999093 0.000887332 0)
(1.00402 4.0921e-05 0)
(1.00172 -0.00730084 0)
(0.992712 -0.00951449 0)
(0.989101 -0.00482269 0)
(0.98996 -0.0022954 0)
(0.989974 0.000360457 0)
(0.991529 0.00291318 0)
(0.995209 0.00343036 0)
(0.999407 0.00247681 0)
(1.00184 -0.000437374 0)
(1.00161 -0.00264305 0)
(1.00073 -0.00444999 0)
(0.999674 -0.00578135 0)
(0.999067 -0.00673739 0)
(0.997546 -0.00653549 0)
(0.995499 -0.00556794 0)
(0.993898 -0.00496642 0)
(0.992028 -0.00372983 0)
(0.990212 -0.00311349 0)
(0.999131 0.000883716 0)
(1.00385 -0.000158949 0)
(1.00157 -0.00699711 0)
(0.992932 -0.00903106 0)
(0.989496 -0.00476529 0)
(0.99031 -0.00227357 0)
(0.99033 0.000255831 0)
(0.991782 0.00263734 0)
(0.995273 0.0030972 0)
(0.999245 0.00219051 0)
(1.00157 -0.000515299 0)
(1.00136 -0.002561 0)
(1.00052 -0.00420756 0)
(0.999511 -0.00537453 0)
(0.999039 -0.00628667 0)
(0.997759 -0.00620919 0)
(0.995781 -0.00516815 0)
(0.994253 -0.00464348 0)
(0.992414 -0.00347762 0)
(0.990595 -0.00290382 0)
(0.999168 0.000880402 0)
(1.00368 -0.000352177 0)
(1.00143 -0.00670592 0)
(0.993151 -0.00855227 0)
(0.989889 -0.00467759 0)
(0.990666 -0.00226953 0)
(0.990687 0.000147757 0)
(0.992036 0.00237538 0)
(0.995341 0.00277917 0)
(0.999095 0.00191253 0)
(1.00131 -0.000596311 0)
(1.00114 -0.00248878 0)
(1.00034 -0.00397637 0)
(0.999364 -0.00499705 0)
(0.998999 -0.00582495 0)
(0.997972 -0.0059021 0)
(0.996074 -0.00480883 0)
(0.994596 -0.00431831 0)
(0.992794 -0.00324826 0)
(0.990963 -0.00269411 0)
(0.999205 0.000875965 0)
(1.00352 -0.00053191 0)
(1.0013 -0.0064289 0)
(0.993368 -0.00809217 0)
(0.990277 -0.00455823 0)
(0.991026 -0.00228082 0)
(0.991045 3.84989e-05 0)
(0.992289 0.00212655 0)
(0.995412 0.00248623 0)
(0.998957 0.00165105 0)
(1.00107 -0.000672469 0)
(1.00094 -0.00242477 0)
(1.00017 -0.00375334 0)
(0.999238 -0.00465778 0)
(0.998948 -0.00535872 0)
(0.998176 -0.00560085 0)
(0.996381 -0.00449579 0)
(0.99493 -0.00400038 0)
(0.993166 -0.0030427 0)
(0.991318 -0.00249219 0)
(0.999242 0.000870015 0)
(1.00337 -0.000699573 0)
(1.00119 -0.00616509 0)
(0.993585 -0.0076501 0)
(0.990659 -0.00440474 0)
(0.991388 -0.00229124 0)
(0.991406 -7.6128e-05 0)
(0.992544 0.00188577 0)
(0.995487 0.00221385 0)
(0.99883 0.0014112 0)
(1.00085 -0.000745763 0)
(1.00075 -0.00236599 0)
(1.00003 -0.0035418 0)
(0.999135 -0.00434724 0)
(0.998891 -0.00490563 0)
(0.998363 -0.00528303 0)
(0.996702 -0.0042317 0)
(0.995256 -0.00369959 0)
(0.993528 -0.00284926 0)
(0.991662 -0.00229912 0)
(0.999278 0.000862802 0)
(1.00322 -0.000854069 0)
(1.00109 -0.0059132 0)
(0.993803 -0.00722802 0)
(0.991035 -0.00422805 0)
(0.991749 -0.00229545 0)
(0.991768 -0.000199812 0)
(0.992802 0.00165557 0)
(0.995566 0.00195406 0)
(0.998713 0.00119573 0)
(1.00064 -0.000809495 0)
(1.00059 -0.00231956 0)
(0.999904 -0.0033377 0)
(0.999056 -0.00406415 0)
(0.998834 -0.00447308 0)
(0.998526 -0.00493616 0)
(0.997028 -0.00401688 0)
(0.995585 -0.00342795 0)
(0.993884 -0.00265597 0)
(0.991996 -0.00211189 0)
(0.999314 0.000853977 0)
(1.00308 -0.00099 0)
(1.001 -0.00567932 0)
(0.994023 -0.00682687 0)
(0.991404 -0.00403673 0)
(0.992108 -0.00228127 0)
(0.992131 -0.000326345 0)
(0.993061 0.00143 0)
(0.99565 0.00170837 0)
(0.998607 0.00100115 0)
(1.00044 -0.000850197 0)
(1.00044 -0.00228205 0)
(0.999801 -0.00314895 0)
(0.999001 -0.00380018 0)
(0.998786 -0.00407989 0)
(0.998657 -0.00457157 0)
(0.99735 -0.00381888 0)
(0.995924 -0.00318651 0)
(0.994237 -0.002475 0)
(0.992317 -0.00193601 0)
(0.999349 0.00084223 0)
(1.00293 -0.00110383 0)
(1.00093 -0.00546238 0)
(0.994246 -0.00645331 0)
(0.991766 -0.00383507 0)
(0.992461 -0.00224593 0)
(0.992492 -0.000447874 0)
(0.993323 0.00120833 0)
(0.995739 0.001474 0)
(0.998514 0.000807256 0)
(1.00025 -0.000874954 0)
(1.00031 -0.00224116 0)
(0.999719 -0.00297364 0)
(0.998968 -0.003554 0)
(0.99875 -0.00372756 0)
(0.998765 -0.0042104 0)
(0.99766 -0.00361603 0)
(0.996268 -0.00296846 0)
(0.994589 -0.0023149 0)
(0.992629 -0.0017729 0)
(0.999383 0.000826818 0)
(1.0028 -0.00118738 0)
(1.00086 -0.00526422 0)
(0.994474 -0.00610629 0)
(0.992123 -0.00362817 0)
(0.992807 -0.00219316 0)
(0.992848 -0.000557552 0)
(0.993585 0.000992347 0)
(0.995832 0.00125618 0)
(0.998433 0.000622196 0)
(1.00008 -0.000882812 0)
(1.00019 -0.00219064 0)
(0.999655 -0.00282 0)
(0.998956 -0.00331923 0)
(0.998729 -0.0034107 0)
(0.998852 -0.00385894 0)
(0.997953 -0.00340974 0)
(0.996611 -0.00277685 0)
(0.994943 -0.00217937 0)
(0.992936 -0.00162733 0)
(0.999417 0.000808417 0)
(1.00266 -0.00124747 0)
(1.00081 -0.00508482 0)
(0.994706 -0.00577497 0)
(0.992474 -0.00342305 0)
(0.993145 -0.00212981 0)
(0.993198 -0.000644109 0)
(0.993847 0.000770345 0)
(0.99593 0.00105228 0)
(0.998366 0.000450213 0)
(0.999921 -0.000885357 0)
(1.00008 -0.00212728 0)
(0.99961 -0.00269442 0)
(0.998963 -0.00308686 0)
(0.998724 -0.00313229 0)
(0.998924 -0.00351851 0)
(0.998224 -0.00320662 0)
(0.996947 -0.00261202 0)
(0.995298 -0.00206233 0)
(0.993241 -0.00149708 0)
(0.99945 0.000787305 0)
(1.00253 -0.00128236 0)
(1.00077 -0.00491832 0)
(0.994945 -0.00547615 0)
(0.992821 -0.00322145 0)
(0.993473 -0.0020616 0)
(0.993537 -0.000699336 0)
(0.994106 0.000561708 0)
(0.996032 0.000857006 0)
(0.998311 0.000277521 0)
(0.999776 -0.000898607 0)
(0.999983 -0.00204513 0)
(0.999581 -0.00257343 0)
(0.99899 -0.00287606 0)
(0.998733 -0.00287168 0)
(0.998982 -0.0032012 0)
(0.998467 -0.00301535 0)
(0.997273 -0.0024622 0)
(0.99566 -0.00195796 0)
(0.993547 -0.00138293 0)
(0.999482 0.000762644 0)
(1.00239 -0.00129576 0)
(1.00073 -0.00476372 0)
(0.995188 -0.00519488 0)
(0.993163 -0.00302686 0)
(0.993794 -0.00197829 0)
(0.993868 -0.000740536 0)
(0.99436 0.000373147 0)
(0.996137 0.000674954 0)
(0.998267 0.000110866 0)
(0.999649 -0.000926941 0)
(0.99989 -0.00195268 0)
(0.999563 -0.00246341 0)
(0.999035 -0.00269363 0)
(0.998759 -0.00262677 0)
(0.999026 -0.00290947 0)
(0.998686 -0.00282126 0)
(0.997589 -0.00231152 0)
(0.996021 -0.00187742 0)
(0.993855 -0.00129848 0)
(0.999513 0.00073444 0)
(1.00226 -0.00129505 0)
(1.0007 -0.00460611 0)
(0.995437 -0.00493815 0)
(0.993502 -0.00284133 0)
(0.994106 -0.00189073 0)
(0.994186 -0.000764033 0)
(0.994608 0.000205466 0)
(0.996243 0.000511307 0)
(0.998231 -4.84509e-05 0)
(0.999541 -0.000967902 0)
(0.999806 -0.0018585 0)
(0.999553 -0.00235247 0)
(0.9991 -0.00253774 0)
(0.998803 -0.00240982 0)
(0.999061 -0.0026247 0)
(0.998883 -0.00262937 0)
(0.997879 -0.00217597 0)
(0.996371 -0.00181801 0)
(0.994172 -0.00124628 0)
(0.999543 0.000704778 0)
(1.00213 -0.00128282 0)
(1.00067 -0.00444228 0)
(0.995688 -0.00470504 0)
(0.993838 -0.00267634 0)
(0.994409 -0.00180475 0)
(0.994492 -0.000767958 0)
(0.99485 6.04451e-05 0)
(0.996348 0.000359819 0)
(0.998202 -0.000180433 0)
(0.999452 -0.00101988 0)
(0.999735 -0.00176986 0)
(0.999544 -0.00223983 0)
(0.999178 -0.00239875 0)
(0.998872 -0.00222218 0)
(0.99909 -0.00234845 0)
(0.999046 -0.00244264 0)
(0.998144 -0.00205241 0)
(0.996709 -0.00175291 0)
(0.994497 -0.00121852 0)
(0.999572 0.000671969 0)
(1.002 -0.00126088 0)
(1.00065 -0.00427113 0)
(0.99594 -0.00449538 0)
(0.994173 -0.00251743 0)
(0.994707 -0.00173149 0)
(0.994787 -0.000761055 0)
(0.995082 -5.39023e-05 0)
(0.996453 0.000218674 0)
(0.998176 -0.000272638 0)
(0.999379 -0.00107981 0)
(0.999678 -0.00169491 0)
(0.999542 -0.00212807 0)
(0.999267 -0.00227861 0)
(0.998965 -0.00207296 0)
(0.999117 -0.0020956 0)
(0.999179 -0.00225234 0)
(0.998385 -0.00193239 0)
(0.997023 -0.00167343 0)
(0.994817 -0.0012065 0)
(0.9996 0.000637963 0)
(1.00187 -0.00123086 0)