/*--------------------------------*- C++ -*----------------------------------*\
| =========                 |                                                 |
| \\      /  F ield         | OpenFOAM: The Open Source CFD Toolbox           |
|  \\    /   O peration     | Version:  v2012                                 |
|   \\  /    A nd           | Website:  www.openfoam.com                      |
|    \\/     M anipulation  |                                                 |
\*---------------------------------------------------------------------------*/
FoamFile
{
    version     2.0;
    format      ascii;
    class       surfaceScalarField;
    location    "1.4";
    object      phi;
}
// * * * * * * * * * * * * * * * * * * * * * * * * * * * * * * * * * * * * * //

dimensions      [0 3 -1 0 0 0 0];
oriented        oriented;


internalField   nonuniform List<scalar> 
13830
(
9.08449e-07
5.75565e-08
9.12303e-07
-3.66839e-07
9.55618e-07
-1.72158e-06
9.8646e-07
-4.33703e-07
9.74979e-07
2.4927e-07
9.8339e-07
1.15997e-06
1.00153e-06
1.60493e-06
9.74528e-07
8.2849e-07
9.70375e-07
1.33359e-07
9.7566e-07
-2.85156e-08
9.56435e-07
-7.54e-07
9.44406e-07
-8.51818e-07
9.39382e-07
-1.17208e-06
9.29726e-07
-8.41124e-07
9.30887e-07
-8.33563e-07
9.15103e-07
-6.82356e-07
9.26768e-07
-5.19261e-07
9.04001e-07
-5.76672e-07
9.20448e-07
-3.36642e-07
-4.35962e-07
8.87157e-07
9.4351e-07
8.65782e-08
9.47171e-07
-3.705e-07
9.92502e-07
-1.76691e-06
1.02311e-06
-4.64309e-07
1.01352e-06
2.58861e-07
1.02234e-06
1.15115e-06
1.03624e-06
1.59103e-06
1.01731e-06
8.47421e-07
1.00495e-06
1.45714e-07
1.01907e-06
-4.26325e-08
9.92068e-07
-7.27e-07
9.85777e-07
-8.45527e-07
9.69815e-07
-1.15611e-06
9.69441e-07
-8.4075e-07
9.57174e-07
-8.21296e-07
9.5668e-07
-6.81862e-07
9.5083e-07
-5.13411e-07
9.46234e-07
-5.72076e-07
9.45554e-07
-3.35962e-07
-4.21769e-07
9.31361e-07
9.80687e-07
1.15344e-07
9.83294e-07
-3.73106e-07
1.0291e-06
-1.81272e-06
1.06147e-06
-4.96679e-07
1.05256e-06
2.6777e-07
1.06285e-06
1.14086e-06
1.07251e-06
1.58137e-06
1.05924e-06
8.60687e-07
1.04692e-06
1.58037e-07
1.05612e-06
-5.18289e-08
1.03139e-06
-7.02272e-07
1.02139e-06
-8.3553e-07
1.00253e-06
-1.13725e-06
1.00234e-06
-8.40556e-07
9.87868e-07
-8.06828e-07
9.90688e-07
-6.84683e-07
9.80827e-07
-5.0355e-07
9.83837e-07
-5.75086e-07
9.77339e-07
-3.29465e-07
-4.18001e-07
9.73572e-07
1.02048e-06
1.4264e-07
1.02075e-06
-3.73376e-07
1.06458e-06
-1.85655e-06
1.10008e-06
-5.32173e-07
1.0938e-06
2.74044e-07
1.10396e-06
1.1307e-06
1.11166e-06
1.57367e-06
1.10105e-06
8.71296e-07
1.09027e-06
1.68819e-07
1.09707e-06
-5.86291e-08
1.07356e-06
-6.78758e-07
1.06145e-06
-8.2343e-07
1.04204e-06
-1.11783e-06
1.04069e-06
-8.39213e-07
1.02596e-06
-7.92096e-07
1.02838e-06
-6.87107e-07
1.01732e-06
-4.92485e-07
1.02068e-06
-5.78445e-07
1.01293e-06
-3.21721e-07
-4.15846e-07
1.01078e-06
1.06318e-06
1.67015e-07
1.05997e-06
-3.70169e-07
1.09898e-06
-1.89556e-06
1.13818e-06
-5.7137e-07
1.13725e-06
2.7497e-07
1.14587e-06
1.12209e-06
1.15282e-06
1.56671e-06
1.14391e-06
8.80211e-07
1.13455e-06
1.78181e-07
1.13955e-06
-6.3638e-08
1.11651e-06
-6.5571e-07
1.10282e-06
-8.09746e-07
1.0826e-06
-1.09761e-06
1.08084e-06
-8.37458e-07
1.06605e-06
-7.773e-07
1.06767e-06
-6.88733e-07
1.05653e-06
-4.8134e-07
1.05803e-06
-5.79945e-07
1.05092e-06
-3.14612e-07
-4.12347e-07
1.04742e-06
1.10888e-06
1.86981e-07
1.10157e-06
-3.62867e-07
1.13316e-06
-1.92714e-06
1.17555e-06
-6.13765e-07
1.18237e-06
2.68146e-07
1.1899e-06
1.11457e-06
1.19574e-06
1.56087e-06
1.18856e-06
8.87389e-07
1.17959e-06
1.87148e-07
1.18339e-06
-6.74311e-08
1.16029e-06
-6.32612e-07
1.14597e-06
-7.95432e-07
1.12469e-06
-1.07633e-06
1.12294e-06
-8.35706e-07
1.10776e-06
-7.6212e-07
1.10873e-06
-6.89705e-07
1.09748e-06
-4.70088e-07
1.09672e-06
-5.7919e-07
1.09041e-06
-3.08299e-07
-4.06859e-07
1.08492e-06
1.15723e-06
2.01447e-07
1.14615e-06
-3.51781e-07
1.16829e-06
-1.94929e-06
1.21256e-06
-6.58031e-07
1.22855e-06
2.52151e-07
1.2372e-06
1.10593e-06
1.24101e-06
1.55706e-06
1.23506e-06
8.93342e-07
1.22556e-06
1.96646e-07
1.22801e-06
-6.98812e-08
1.20485e-06
-6.09453e-07
1.19058e-06
-7.81158e-07
1.1681e-06
-1.05385e-06
1.16668e-06
-8.34288e-07
1.15103e-06
-7.46471e-07
1.15155e-06
-6.90224e-07
1.14016e-06
-4.58701e-07
1.1373e-06
-5.76327e-07
1.13151e-06
-3.02511e-07
-3.99535e-07
1.12419e-06
1.20752e-06
2.1011e-07
1.194e-06
-3.38264e-07
1.20543e-06
-1.96071e-06
1.24969e-06
-7.02298e-07
1.27529e-06
2.2655e-07
1.28784e-06
1.09338e-06
1.28896e-06
1.55594e-06
1.28297e-06
8.99327e-07
1.27226e-06
2.07354e-07
1.27324e-06
-7.08605e-08
1.25031e-06
-5.86521e-07
1.2366e-06
-7.67451e-07
1.21301e-06
-1.03026e-06
1.21202e-06
-8.33299e-07
1.19609e-06
-7.30532e-07
1.19615e-06
-6.90289e-07
1.18482e-06
-4.47365e-07
1.17994e-06
-5.71451e-07
1.17446e-06
-2.97027e-07
-3.90579e-07
1.1655e-06
1.25891e-06
2.13551e-07
1.24503e-06
-3.2438e-07
1.24522e-06
-1.96091e-06
1.28712e-06
-7.44196e-07
1.32187e-06
1.91804e-07
1.34059e-06
1.07466e-06
1.33886e-06
1.55767e-06
1.33156e-06
9.06624e-07
1.31931e-06
2.19603e-07
1.31904e-06
-7.05893e-08
1.2968e-06
-5.64278e-07
1.2841e-06
-7.54751e-07
1.25958e-06
-1.00574e-06
1.25897e-06
-8.32692e-07
1.24306e-06
-7.1462e-07
1.24252e-06
-6.89751e-07
1.23158e-06
-4.36416e-07
1.22465e-06
-5.64527e-07
1.21937e-06
-2.91746e-07
-3.80087e-07
1.20888e-06
1.31083e-06
2.12996e-07
1.29873e-06
-3.12278e-07
1.28807e-06
-1.95025e-06
1.32476e-06
-7.80891e-07
1.36701e-06
1.49556e-07
1.39309e-06
1.04859e-06
1.38908e-06
1.56168e-06
1.38002e-06
9.15686e-07
1.36641e-06
2.33208e-07
1.3655e-06
-6.96775e-08
1.34447e-06
-5.43246e-07
1.33311e-06
-7.43397e-07
1.30788e-06
-9.80509e-07
1.30753e-06
-8.32337e-07
1.29198e-06
-6.99074e-07
1.29063e-06
-6.88401e-07
1.28046e-06
-4.26249e-07
1.27143e-06
-5.5549e-07
1.26631e-06
-2.86632e-07
-3.68137e-07
1.25436e-06
1.36311e-06
2.09907e-07
1.35436e-06
-3.03532e-07
1.33413e-06
-1.93001e-06
1.36275e-06
-8.09512e-07
1.40932e-06
1.02985e-07
1.4426e-06
1.01531e-06
1.43777e-06
1.56651e-06
1.42781e-06
9.25649e-07
1.41359e-06
2.47433e-07
1.41287e-06
-6.89659e-08
1.39352e-06
-5.23892e-07
1.38373e-06
-7.33611e-07
1.35799e-06
-9.54769e-07
1.35769e-06
-8.32038e-07
1.34283e-06
-6.84206e-07
1.34042e-06
-6.85991e-07
1.3314e-06
-4.17231e-07
1.32026e-06
-5.44355e-07
1.3153e-06
-2.81668e-07
-3.54877e-07
1.30204e-06
1.41597e-06
2.05586e-07
1.41118e-06
-2.98742e-07
1.38345e-06
-1.90227e-06
1.40192e-06
-8.27981e-07
1.44832e-06
5.65849e-08
1.48726e-06
9.76371e-07
1.48386e-06
1.5699e-06
1.47503e-06
9.34481e-07
1.46125e-06
2.61212e-07
1.46158e-06
-6.92901e-08
1.44417e-06
-5.06489e-07
1.43602e-06
-7.25461e-07
1.41e-06
-9.28749e-07
1.4095e-06
-8.31538e-07
1.39557e-06
-6.70271e-07
1.39183e-06
-6.82249e-07
1.38424e-06
-4.09642e-07
1.37114e-06
-5.31261e-07
1.36632e-06
-2.76844e-07
-3.40571e-07
1.35201e-06
1.46991e-06
2.00925e-07
1.46866e-06
-2.97498e-07
1.43594e-06
-1.86955e-06
1.44376e-06
-8.35805e-07
1.48524e-06
1.51104e-08
1.52724e-06
9.34363e-07
1.52771e-06
1.56943e-06
1.52248e-06
9.39713e-07
1.51013e-06
2.73567e-07
1.51209e-06
-7.12583e-08
1.49663e-06
-4.91028e-07
1.49003e-06
-7.18856e-07
1.46402e-06
-9.02741e-07
1.463e-06
-8.30519e-07
1.45019e-06
-6.57459e-07
1.44482e-06
-6.76886e-07
1.4388e-06
-4.03622e-07
1.42402e-06
-5.16479e-07
1.41934e-06
-2.72162e-07
-3.25588e-07
1.40436e-06
1.52546e-06
1.9634e-07
1.52664e-06
-2.98676e-07
1.49142e-06
-1.83433e-06
1.48993e-06
-8.34314e-07
1.52288e-06
-1.78349e-08
1.565e-06
8.92241e-07
1.57115e-06
1.56328e-06
1.57146e-06
9.394e-07
1.56103e-06
2.84001e-07
1.56489e-06
-7.5119e-08
1.55108e-06
-4.77213e-07
1.54578e-06
-7.13561e-07
1.52017e-06
-8.77125e-07
1.51824e-06
-8.28596e-07
1.50667e-06
-6.45888e-07
1.49945e-06
-6.6966e-07
1.49495e-06
-3.99128e-07
1.47887e-06
-5.00394e-07
1.47432e-06
-2.67616e-07
-3.10359e-07
1.45909e-06
1.58309e-06
1.9186e-07
1.58531e-06
-3.00893e-07
1.54966e-06
-1.79869e-06
1.5415e-06
-8.26159e-07
1.56443e-06
-4.07581e-08
1.60422e-06
8.52448e-07
1.61669e-06
1.55081e-06
1.62329e-06
9.32805e-07
1.61466e-06
2.92634e-07
1.62029e-06
-8.07556e-08
1.60765e-06
-4.64565e-07
1.60332e-06
-7.09237e-07
1.57856e-06
-8.52366e-07
1.5753e-06
-8.25335e-07
1.56503e-06
-6.35612e-07
1.55583e-06
-6.60461e-07
1.55263e-06
-3.95931e-07
1.5357e-06
-4.83464e-07
1.53128e-06
-2.63199e-07
-2.95305e-07
1.51623e-06
1.6431e-06
1.87302e-07
1.64516e-06
-3.02949e-07
1.61041e-06
-1.76394e-06
1.59861e-06
-8.14359e-07
1.61215e-06
-5.42946e-08
1.64828e-06
8.16322e-07
1.66649e-06
1.53259e-06
1.67882e-06
9.20481e-07
1.67142e-06
3.00029e-07
1.67845e-06
-8.77858e-08
1.66648e-06
-4.52588e-07
1.66272e-06
-7.05479e-07
1.63932e-06
-8.28967e-07
1.63425e-06
-8.20269e-07
1.62523e-06
-6.26594e-07
1.61416e-06
-6.49387e-07
1.61188e-06
-3.93655e-07
1.5946e-06
-4.66177e-07
1.59027e-06
-2.58873e-07
-2.80775e-07
1.57574e-06
1.7056e-06
1.82449e-07
1.70674e-06
-3.04086e-07
1.67349e-06
-1.7307e-06
1.66056e-06
-8.01427e-07
1.66669e-06
-6.04188e-08
1.69898e-06
7.84029e-07
1.72161e-06
1.50996e-06
1.73828e-06
9.0381e-07
1.73146e-06
3.06844e-07
1.73938e-06
-9.57001e-08
1.72771e-06
-4.40923e-07
1.72408e-06
-7.01841e-07
1.70251e-06
-8.07398e-07
1.6952e-06
-8.12965e-07
1.68732e-06
-6.18712e-07
1.67466e-06
-6.36727e-07
1.67287e-06
-3.91864e-07
1.65568e-06
-4.48989e-07
1.6514e-06
-2.54594e-07
-2.67008e-07
1.63764e-06
1.7706e-06
1.7717e-07
1.77056e-06
-3.04047e-07
1.73881e-06
-1.69895e-06
1.7263e-06
-7.88925e-07
1.7273e-06
-6.14156e-08
1.75639e-06
7.5494e-07
1.78193e-06
1.48442e-06
1.80139e-06
8.84343e-07
1.79473e-06
3.13505e-07
1.80301e-06
-1.03977e-07
1.79154e-06
-4.29449e-07
1.78755e-06
-6.97854e-07
1.76816e-06
-7.88009e-07
1.75833e-06
-8.03132e-07
1.75139e-06
-6.1177e-07
1.73752e-06
-6.22861e-07
1.73582e-06
-3.90164e-07
1.7191e-06
-4.32267e-07
1.71482e-06
-2.50312e-07
-2.5413e-07
1.70194e-06
1.83805e-06
1.71456e-07
1.83696e-06
-3.02955e-07
1.80635e-06
-1.66834e-06
1.79494e-06
-7.77516e-07
1.79268e-06
-5.91501e-08
1.81945e-06
7.28173e-07
1.84665e-06
1.45721e-06
1.86769e-06
8.63305e-07
1.86114e-06
3.20053e-07
1.86931e-06
-1.1214e-07
1.85814e-06
-4.18288e-07
1.85331e-06
-6.93021e-07
1.8362e-06
-7.70901e-07
1.82384e-06
-7.90764e-07
1.81755e-06
-6.05489e-07
1.80289e-06
-6.08198e-07
1.80096e-06
-3.88233e-07
1.78496e-06
-4.16268e-07
1.78065e-06
-2.46e-07
-2.42185e-07
1.76871e-06
1.90796e-06
1.654e-07
1.90613e-06
-3.01134e-07
1.8762e-06
-1.63841e-06
1.86598e-06
-7.67293e-07
1.86166e-06
-5.48314e-08
1.88686e-06
7.02976e-07
1.91489e-06
1.42918e-06
1.93677e-06
8.4143e-07
1.93064e-06
3.26179e-07
1.93827e-06
-1.1977e-07
1.92773e-06
-4.07748e-07
1.92153e-06
-6.86825e-07
1.9066e-06
-7.55972e-07
1.89192e-06
-7.76081e-07
1.88599e-06
-5.99557e-07
1.8709e-06
-5.93111e-07
1.86852e-06
-3.85848e-07
1.85337e-06
-4.0112e-07
1.84903e-06
-2.4166e-07
-2.31164e-07
1.83801e-06
1.98036e-06
1.5914e-07
1.97818e-06
-2.98949e-07
1.94846e-06
-1.60869e-06
1.93928e-06
-7.58109e-07
1.93359e-06
-4.91374e-08
1.95769e-06
6.78876e-07
1.98606e-06
1.4008e-06
2.00843e-06
8.19066e-07
2.00324e-06
3.3136e-07
2.00996e-06
-1.26485e-07
2.00045e-06
-3.98235e-07
1.99241e-06
-6.7879e-07
1.97943e-06
-7.42992e-07
1.96277e-06
-7.59418e-07
1.95685e-06
-5.93642e-07
1.94165e-06
-5.77908e-07
1.93867e-06
-3.82868e-07
1.92439e-06
-3.86837e-07
1.92004e-06
-2.37312e-07
-2.21031e-07
1.90991e-06
2.05537e-06
1.52821e-07
2.05315e-06
-2.96726e-07
2.02326e-06
-1.5788e-06
2.01493e-06
-7.4978e-07
2.00825e-06
-4.24545e-08
2.0315e-06
6.55623e-07
2.05996e-06
1.37234e-06
2.08266e-06
7.96366e-07
2.07902e-06
3.35001e-07
2.08446e-06
-1.31919e-07
2.07637e-06
-3.90145e-07
2.06618e-06
-6.68602e-07
2.05479e-06
-7.31605e-07
2.03657e-06
-7.41192e-07
2.03032e-06
-5.87399e-07
2.01524e-06
-5.62822e-07
2.01159e-06
-3.79216e-07
1.9981e-06
-3.7335e-07
1.99376e-06
-2.32979e-07
-2.11734e-07
1.98447e-06
2.13309e-06
1.4657e-07
2.1311e-06
-2.94731e-07
2.10071e-06
-1.54841e-06
2.09307e-06
-7.42145e-07
2.08568e-06
-3.50579e-08
2.10821e-06
6.33087e-07
2.13668e-06
1.34387e-06
2.15959e-06
7.73461e-07
2.15805e-06
3.36542e-07
2.16184e-06
-1.35712e-07
2.15545e-06
-3.83755e-07
2.14306e-06
-6.56211e-07
2.1328e-06
-7.21352e-07
2.11348e-06
-7.21864e-07
2.10658e-06
-5.80502e-07
2.09177e-06
-5.48013e-07
2.08741e-06
-3.74854e-07
2.0746e-06
-3.60541e-07
2.07028e-06
-2.28661e-07
-2.03205e-07
2.06175e-06
2.21367e-06
1.40488e-07
2.2121e-06
-2.93164e-07
2.18095e-06
-1.51727e-06
2.17386e-06
-7.35055e-07
2.16599e-06
-2.71891e-08
2.1879e-06
6.11178e-07
2.21641e-06
1.31536e-06
2.23934e-06
7.50535e-07
2.24036e-06
3.35522e-07
2.2422e-06
-1.37557e-07
2.23762e-06
-3.79172e-07
2.22317e-06
-6.41758e-07
2.2136e-06
-7.11781e-07
2.19362e-06
-7.01885e-07
2.18582e-06
-5.72704e-07
2.17136e-06
-5.33549e-07
2.16627e-06
-3.69766e-07
2.15403e-06
-3.483e-07
2.14969e-06
-2.24326e-07
-1.95356e-07
2.14184e-06
2.29723e-06
1.34654e-07
2.29623e-06
-2.92171e-07
2.26414e-06
-1.48517e-06
2.25745e-06
-7.28367e-07
2.24932e-06
-1.90639e-08
2.27068e-06
5.89819e-07
2.29938e-06
1.28666e-06
2.32207e-06
7.27852e-07
2.32595e-06
3.31638e-07
2.32573e-06
-1.37333e-07
2.32287e-06
-3.76319e-07
2.30661e-06
-6.25494e-07
2.29732e-06
-7.02489e-07
2.27706e-06
-6.81631e-07
2.26823e-06
-5.63866e-07
2.2541e-06
-5.19424e-07
2.24834e-06
-3.64009e-07
2.23653e-06
-3.36481e-07
2.23212e-06
-2.19922e-07
-1.88083e-07
2.22485e-06
2.38392e-06
1.29124e-07
2.38358e-06
-2.91836e-07
2.35042e-06
-1.45202e-06
2.344e-06
-7.21943e-07
2.3358e-06
-1.08586e-08
2.35667e-06
5.68948e-07
2.38579e-06
1.25753e-06
2.40792e-06
7.05724e-07
2.41474e-06
3.24814e-07
2.41253e-06
-1.35117e-07
2.41121e-06
-3.75003e-07
2.39347e-06
-6.0775e-07
2.38411e-06
-6.93136e-07
2.36388e-06
-6.61398e-07
2.35395e-06
-5.53938e-07
2.34005e-06
-5.05524e-07
2.33395e-06
-3.57908e-07
2.3223e-06
-3.24827e-07
2.31771e-06
-2.1533e-07
-1.81302e-07
2.31092e-06
2.47387e-06
1.2393e-07
2.47423e-06
-2.92193e-07
2.43998e-06
-1.41776e-06
2.43369e-06
-7.15659e-07
2.42554e-06
-2.70468e-09
2.44595e-06
5.48534e-07
2.47581e-06
1.22768e-06
2.49706e-06
6.8447e-07
2.50674e-06
3.15138e-07
2.50271e-06
-1.31092e-07
2.50267e-06
-3.74959e-07
2.48384e-06
-5.88921e-07
2.47413e-06
-6.83425e-07
2.45415e-06
-6.41418e-07
2.44317e-06
-5.42955e-07
2.42914e-06
-4.91494e-07
2.42345e-06
-3.52224e-07
2.41156e-06
-3.12937e-07
2.4066e-06
-2.10364e-07
-1.74956e-07
2.40025e-06
2.56724e-06
1.19086e-07
2.56828e-06
-2.93229e-07
2.53295e-06
-1.38243e-06
2.5267e-06
-7.09406e-07
2.51869e-06
5.30106e-09
2.53864e-06
5.28588e-07
2.56957e-06
1.19675e-06
2.58971e-06
6.64333e-07
2.60199e-06
3.02851e-07
2.59642e-06
-1.25517e-07
2.59729e-06
-3.75827e-07
2.57787e-06
-5.69501e-07
2.56747e-06
-6.73026e-07
2.54798e-06
-6.21929e-07
2.53611e-06
-5.31086e-07
2.52113e-06
-4.76517e-07
2.51584e-06
-3.46935e-07
2.50396e-06
-3.0106e-07
2.49898e-06
-2.05382e-07
-1.68946e-07
2.49297e-06
2.66418e-06
1.14589e-07
2.66585e-06
-2.94903e-07
2.62949e-06
-1.34608e-06
2.62317e-06
-7.03086e-07
2.6154e-06
1.30728e-08
2.63482e-06
5.09165e-07
2.66718e-06
1.16439e-06
2.68604e-06
6.45478e-07
2.70058e-06
2.88306e-07
2.69382e-06
-1.18759e-07
2.6951e-06
-3.77102e-07
2.67573e-06
-5.50133e-07
2.66419e-06
-6.61483e-07
2.6456e-06
-6.03337e-07
2.63304e-06
-5.18525e-07
2.61639e-06
-4.59874e-07
2.60949e-06
-3.40029e-07
2.59866e-06
-2.90229e-07
2.59513e-06
-2.01857e-07
-1.62986e-07
2.58917e-06
2.76482e-06
1.10421e-07
2.76707e-06
-2.97154e-07
2.72975e-06
-1.30876e-06
2.72327e-06
-6.96605e-07
2.71582e-06
2.05144e-08
2.73462e-06
4.90372e-07
2.76872e-06
1.13029e-06
2.78621e-06
6.27979e-07
2.80258e-06
2.71941e-07
2.79515e-06
-1.11333e-07
2.79614e-06
-3.7809e-07
2.77772e-06
-5.31713e-07
2.76428e-06
-6.48046e-07
2.74746e-06
-5.86517e-07
2.73403e-06
-5.05092e-07
2.71648e-06
-4.42323e-07
2.70681e-06
-3.3036e-07
2.69561e-06
-2.7903e-07
2.69543e-06
-2.01681e-07
-1.56528e-07
2.68898e-06
2.86932e-06
1.06562e-07
2.87208e-06
-2.99918e-07
2.83385e-06
-1.27053e-06
2.82711e-06
-6.89862e-07
2.82013e-06
2.74995e-08
2.83813e-06
4.72369e-07
2.87423e-06
1.0942e-06
2.89039e-06
6.11813e-07
2.9081e-06
2.54238e-07
2.90058e-06
-1.03818e-07
2.90054e-06
-3.78052e-07
2.88417e-06
-5.15344e-07
2.86774e-06
-6.31609e-07
2.85417e-06
-5.72954e-07
2.83924e-06
-4.90161e-07
2.82953e-06
-4.32615e-07
2.82181e-06
-3.22632e-07
2.81088e-06
-2.68106e-07
2.80027e-06
-1.91065e-07
-1.48885e-07
2.79262e-06
2.97782e-06
1.02989e-07
2.98103e-06
-3.03133e-07
2.94197e-06
-1.23146e-06
2.93485e-06
-6.82748e-07
2.9285e-06
3.3849e-08
2.9455e-06
4.55372e-07
2.98376e-06
1.05593e-06
2.99866e-06
5.96916e-07
3.01735e-06
2.35548e-07
3.01009e-06
-9.65587e-08
3.00873e-06
-3.76688e-07
2.9949e-06
-5.01517e-07
2.97519e-06
-6.11898e-07
2.96439e-06
-5.6216e-07
2.94875e-06
-4.7452e-07
2.94062e-06
-4.24483e-07
2.93161e-06
-3.13627e-07
2.92114e-06
-2.57629e-07
2.90871e-06
-1.78636e-07
-1.40559e-07
2.90038e-06
3.09046e-06
9.96919e-08
3.09407e-06
-3.06748e-07
3.05424e-06
-1.19163e-06
3.04663e-06
-6.75132e-07
3.04115e-06
3.93279e-08
3.05688e-06
4.39638e-07
3.09735e-06
1.01546e-06
3.11112e-06
5.83147e-07
3.13055e-06
2.16122e-07
3.12362e-06
-8.96298e-08
3.12123e-06
-3.74293e-07
3.10863e-06
-4.88921e-07
3.0884e-06
-5.91663e-07
3.07725e-06
-5.51014e-07
3.06313e-06
-4.60401e-07
3.05488e-06
-4.1623e-07
3.04693e-06
-3.05681e-07
3.03651e-06
-2.47207e-07
3.02033e-06
-1.62458e-07
-1.3279e-07
3.01256e-06
3.20739e-06
9.66646e-08
3.21136e-06
-3.10723e-07
3.17086e-06
-1.15113e-06
3.1626e-06
-6.66873e-07
3.15826e-06
4.36723e-08
3.17252e-06
4.25379e-07
3.21505e-06
9.72928e-07
3.22801e-06
5.70195e-07
3.24778e-06
1.96347e-07
3.24133e-06
-8.31818e-08
3.23838e-06
-3.71344e-07
3.22522e-06
-4.75762e-07
3.20714e-06
-5.73582e-07
3.19387e-06
-5.37739e-07
3.18146e-06
-4.47994e-07
3.15783e-06
-3.92599e-07
3.14381e-06
-2.91664e-07
3.13324e-06
-2.36636e-07
3.13495e-06
-1.64162e-07
-1.27147e-07
3.1293e-06
3.32877e-06
9.39065e-08
3.33307e-06
-3.15021e-07
3.292e-06
-1.11007e-06
3.28294e-06
-6.57814e-07
3.27998e-06
4.66331e-08
3.29269e-06
4.12673e-07
3.33693e-06
9.28682e-07
3.34957e-06
5.57563e-07
3.36907e-06
1.76845e-07
3.36365e-06
-7.77617e-08
3.35983e-06
-3.67522e-07
3.34662e-06
-4.62553e-07
3.32895e-06
-5.55914e-07
3.31011e-06
-5.18901e-07
3.2935e-06
-4.31386e-07
3.27622e-06
-3.75318e-07
3.26765e-06
-2.83088e-07
3.2576e-06
-2.26593e-07
3.25489e-06
-1.61445e-07
-1.22749e-07
3.25049e-06
3.45477e-06
9.14195e-08
3.45935e-06
-3.19604e-07
3.41787e-06
-1.06858e-06
3.40779e-06
-6.47735e-07
3.40647e-06
4.79546e-08
3.41763e-06
4.01512e-07
3.46318e-06
8.83131e-07
3.47591e-06
5.44834e-07
3.49459e-06
1.58161e-07
3.49079e-06
-7.39532e-08
3.48559e-06
-3.62321e-07
3.47268e-06
-4.49649e-07
3.45429e-06
-5.37522e-07
3.43363e-06
-4.98236e-07
3.41808e-06
-4.15837e-07
3.40186e-06
-3.59105e-07
3.39507e-06
-2.76298e-07
3.38886e-06
-2.20384e-07
3.3802e-06
-1.52786e-07
-1.18648e-07
3.3761e-06
3.58555e-06
8.92128e-08
3.59038e-06
-3.24435e-07
3.54868e-06
-1.02688e-06
3.53732e-06
-6.36376e-07
3.53784e-06
4.74302e-08
3.5476e-06
3.91752e-07
3.59395e-06
8.36779e-07
3.60726e-06
5.31527e-07
3.62452e-06
1.40906e-07
3.6228e-06
-7.22368e-08
3.61581e-06
-3.55326e-07
3.60241e-06
-4.36255e-07
3.58221e-06
-5.17324e-07
3.56296e-06
-4.78987e-07
3.54771e-06
-4.00584e-07
3.53214e-06
-3.43532e-07
3.52189e-06
-2.66047e-07
3.51248e-06
-2.10981e-07
3.5103e-06
-1.50606e-07
-1.14696e-07
3.50635e-06
3.7213e-06
8.72953e-08
3.72635e-06
-3.29478e-07
3.68461e-06
-9.85147e-07
3.67174e-06
-6.23498e-07
3.67417e-06
4.49937e-08
3.6829e-06
3.83025e-07
3.72933e-06
7.90351e-07
3.74392e-06
5.1694e-07
3.75892e-06
1.25899e-07
3.75977e-06
-7.30807e-08
3.75014e-06
-3.45705e-07
3.73633e-06
-4.22438e-07
3.71337e-06
-4.94368e-07
3.69695e-06
-4.62568e-07
3.68193e-06
-3.85559e-07
3.66766e-06
-3.29262e-07
3.65701e-06
-2.554e-07
3.64741e-06
-2.01373e-07
3.64569e-06
-1.48891e-07
-1.10692e-07
3.64169e-06
3.86221e-06
8.56699e-08
3.86741e-06
-3.34676e-07
3.8259e-06
-9.43631e-07
3.81131e-06
-6.08911e-07
3.8156e-06
4.07034e-08
3.82366e-06
3.74963e-07
3.86959e-06
7.44426e-07
3.88586e-06
5.00663e-07
3.89825e-06
1.13509e-07
3.90124e-06
-7.60642e-08
3.88916e-06
-3.33624e-07
3.87584e-06
-4.09124e-07
3.85266e-06
-4.71184e-07
3.8364e-06
-4.46313e-07
3.82126e-06
-3.70412e-07
3.80816e-06
-3.16163e-07
3.79983e-06
-2.47077e-07
3.79743e-06
-1.98974e-07
3.78659e-06
-1.38044e-07
-1.0639e-07
3.78228e-06
4.00849e-06
8.43366e-08
4.01378e-06
-3.39969e-07
3.97275e-06
-9.026e-07
3.95633e-06
-5.92491e-07
3.96229e-06
3.47458e-08
3.97006e-06
3.6719e-07
4.01497e-06
6.99514e-07
4.03308e-06
4.82551e-07
4.04314e-06
1.03451e-07
4.04701e-06
-7.99286e-08
4.03434e-06
-3.20961e-07
4.02022e-06
-3.95003e-07
3.99799e-06
-4.48957e-07
3.98096e-06
-4.29278e-07
3.96675e-06
-3.56199e-07
3.95334e-06
-3.02756e-07
3.94236e-06
-2.36094e-07
3.93197e-06
-1.88588e-07
3.93206e-06
-1.38129e-07
-1.02687e-07
3.92835e-06
4.16033e-06
8.32912e-08
4.16565e-06
-3.45292e-07
4.12536e-06
-8.62307e-07
4.10711e-06
-5.74239e-07
4.11432e-06
2.75358e-08
4.12241e-06
3.59098e-07
4.16554e-06
6.56381e-07
4.1858e-06
4.62293e-07
4.19368e-06
9.55683e-08
4.19784e-06
-8.40831e-08
4.18484e-06
-3.07961e-07
4.17049e-06
-3.8066e-07
4.1487e-06
-4.27163e-07
4.13138e-06
-4.11956e-07
4.11762e-06
-3.42441e-07
4.10433e-06
-2.89467e-07
4.09475e-06
-2.26515e-07
4.08624e-06
-1.80073e-07
4.08343e-06
-1.35324e-07
-9.92852e-08
4.08003e-06
4.31796e-06
8.25156e-08
4.32323e-06
-3.50559e-07
4.28392e-06
-8.22998e-07
4.26387e-06
-5.54193e-07
4.27194e-06
1.94729e-08
4.28087e-06
3.50165e-07
4.32165e-06
6.15604e-07
4.34396e-06
4.39979e-07
4.35017e-06
8.9358e-08
4.35399e-06
-8.78992e-08
4.34087e-06
-2.94847e-07
4.32663e-06
-3.66418e-07
4.30502e-06
-4.05556e-07
4.28785e-06
-3.94777e-07
4.27416e-06
-3.28755e-07
4.2615e-06
-2.76805e-07
4.25375e-06
-2.18767e-07
4.24928e-06
-1.75606e-07
4.24087e-06
-1.26911e-07
-9.59471e-08
4.23753e-06
4.48161e-06
8.19904e-08
4.48672e-06
-3.55671e-07
4.44861e-06
-7.84889e-07
4.42686e-06
-5.32441e-07
4.43542e-06
1.091e-08
4.4455e-06
3.40088e-07
4.48392e-06
5.77184e-07
4.50739e-06
4.16514e-07
4.51297e-06
8.37709e-08
4.51553e-06
-9.04529e-08
4.50313e-06
-2.82445e-07
4.48837e-06
-3.51665e-07
4.46771e-06
-3.84892e-07
4.45014e-06
-3.77214e-07
4.43716e-06
-3.15772e-07
4.42437e-06
-2.64017e-07
4.41476e-06
-2.09151e-07
4.40496e-06
-1.65808e-07
4.40385e-06
-1.25797e-07
-9.31722e-08
4.40107e-06
4.6515e-06
8.16944e-08
4.65637e-06
-3.60539e-07
4.61959e-06
-7.48104e-07
4.59637e-06
-5.09225e-07
4.60491e-06
2.37362e-09
4.61663e-06
3.28367e-07
4.65254e-06
5.41269e-07
4.67664e-06
3.92416e-07
4.68183e-06
7.85791e-08
4.68332e-06
-9.19443e-08
4.67127e-06
-2.70395e-07
4.65652e-06
-3.36914e-07
4.63656e-06
-3.64933e-07
4.61875e-06
-3.59398e-07
4.60626e-06
-3.03287e-07
4.59371e-06
-2.51462e-07
4.58458e-06
-2.00022e-07
4.57671e-06
-1.57941e-07
4.57328e-06
-1.22363e-07
-9.06779e-08
4.57078e-06
4.82789e-06
8.15939e-08
4.8324e-06
-3.65049e-07
4.79704e-06
-7.12747e-07
4.77262e-06
-4.84802e-07
4.78071e-06
-5.71661e-09
4.79429e-06
3.14784e-07
4.82789e-06
5.07665e-07
4.85201e-06
3.683e-07
4.85683e-06
7.3757e-08
4.85755e-06
-9.26611e-08
4.84573e-06
-2.5858e-07
4.83126e-06
-3.22442e-07
4.81177e-06
-3.45444e-07
4.79404e-06
-3.41668e-07
4.78167e-06
-2.90915e-07
4.76969e-06
-2.39482e-07
4.76181e-06
-1.92137e-07
4.75689e-06
-1.53024e-07
4.74947e-06
-1.1494e-07
-8.8205e-08
4.74699e-06
5.01101e-06
8.1656e-08
5.01504e-06
-3.69082e-07
4.98119e-06
-6.78898e-07
4.95582e-06
-4.59431e-07
4.96312e-06
-1.30094e-08
4.97841e-06
2.99492e-07
5.01036e-06
4.75714e-07
5.03357e-06
3.45089e-07
5.03828e-06
6.90522e-08
5.0382e-06
-9.25836e-08
5.02699e-06
-2.47372e-07
5.01254e-06
-3.07996e-07
4.99385e-06
-3.26747e-07
4.97602e-06
-3.23845e-07
4.96394e-06
-2.78826e-07
4.95243e-06
-2.27978e-07
4.94281e-06
-1.82519e-07
4.93406e-06
-1.44267e-07
4.9321e-06
-1.12984e-07
-8.59659e-08
4.92986e-06
5.20112e-06
8.18465e-08
5.20457e-06
-3.72534e-07
5.17224e-06
-6.46561e-07
5.1463e-06
-4.33494e-07
5.15233e-06
-1.90362e-08
5.16918e-06
2.82643e-07
5.19983e-06
4.45057e-07
5.22192e-06
3.23003e-07
5.22637e-06
6.45988e-08
5.22566e-06
-9.18746e-08
5.21506e-06
-2.36768e-07
5.20081e-06
-2.93753e-07
5.18293e-06
-3.08861e-07
5.16501e-06
-3.05928e-07
5.153e-06
-2.66816e-07
5.14208e-06
-2.17055e-07
5.13374e-06
-1.74186e-07
5.12888e-06
-1.39407e-07
5.122e-06
-1.06101e-07
-8.35836e-08
5.11962e-06
5.3985e-06
8.21221e-08
5.40125e-06
-3.75279e-07
5.37045e-06
-6.15765e-07
5.34423e-06
-4.07277e-07
5.34883e-06
-2.36286e-08
5.36662e-06
2.64853e-07
5.39643e-06
4.15243e-07
5.41742e-06
3.02011e-07
5.4216e-06
6.04174e-08
5.42027e-06
-9.05383e-08
5.41023e-06
-2.26726e-07
5.39632e-06
-2.79847e-07
5.37917e-06
-2.91715e-07
5.36143e-06
-2.88187e-07
5.34938e-06
-2.54759e-07
5.3391e-06
-2.06779e-07
5.32974e-06
-1.6483e-07
5.32232e-06
-1.31987e-07
5.3191e-06
-1.02878e-07
-8.11388e-08
5.31666e-06
5.60342e-06
8.24433e-08
5.60535e-06
-3.77211e-07
5.57609e-06
-5.86507e-07
5.54998e-06
-3.81169e-07
5.55306e-06
-2.67094e-08
5.57091e-06
2.47004e-07
5.60019e-06
3.8596e-07
5.62045e-06
2.81753e-07
5.62436e-06
5.65067e-08
5.62247e-06
-8.86427e-08
5.61285e-06
-2.17108e-07
5.59934e-06
-2.66337e-07
5.58286e-06
-2.75239e-07
5.56551e-06
-2.70838e-07
5.5531e-06
-2.42345e-07
5.54352e-06
-1.97202e-07
5.53479e-06
-1.56096e-07
5.52888e-06
-1.26076e-07
5.52391e-06
-9.79076e-08
-7.84266e-08
5.5212e-06
5.81616e-06
8.27619e-08
5.81717e-06
-3.7822e-07
5.78945e-06
-5.58791e-07
5.76387e-06
-3.55583e-07
5.76548e-06
-2.83188e-08
5.78246e-06
2.30021e-07
5.81124e-06
3.57181e-07
5.83119e-06
2.61803e-07
5.83509e-06
5.26119e-08
5.83261e-06
-8.61655e-08
5.82313e-06
-2.07626e-07
5.81009e-06
-2.53299e-07
5.79425e-06
-2.59398e-07
5.77753e-06
-2.54121e-07
5.76474e-06
-2.29554e-07
5.7558e-06
-1.88264e-07
5.74766e-06
-1.47951e-07
5.74222e-06
-1.2064e-07
5.73653e-06
-9.22195e-08
-7.54318e-08
5.73354e-06
6.03703e-06
8.30284e-08
6.03701e-06
-3.78195e-07
6.01084e-06
-5.3262e-07
5.98613e-06
-3.30875e-07
5.98645e-06
-2.86419e-08
6.00198e-06
2.14492e-07
6.03009e-06
3.29072e-07
6.04991e-06
2.41986e-07
6.05391e-06
4.86047e-08
6.05089e-06
-8.31403e-08
6.04144e-06
-1.98175e-07
6.02889e-06
-2.40754e-07
6.01376e-06
-2.44262e-07
5.99769e-06
-2.38058e-07
5.98462e-06
-2.16478e-07
5.97599e-06
-1.79639e-07
5.96771e-06
-1.39668e-07
5.96097e-06
-1.13896e-07
5.95729e-06
-8.85467e-08
-7.22302e-08
5.95409e-06
6.26633e-06
8.3195e-08
6.26517e-06
-3.77034e-07
6.24054e-06
-5.07989e-07
6.21696e-06
-3.07288e-07
6.2161e-06
-2.7789e-08
6.23056e-06
2.00033e-07
6.25723e-06
3.02403e-07
6.27682e-06
2.22395e-07
6.28104e-06
4.43886e-08
6.2777e-06
-7.98058e-08
6.26814e-06
-1.88615e-07
6.2561e-06
-2.28714e-07
6.24156e-06
-2.29721e-07
6.2262e-06
-2.22696e-07
6.21299e-06
-2.03268e-07
6.20453e-06
-1.71174e-07
6.19732e-06
-1.32464e-07
6.19195e-06
-1.08519e-07
6.18653e-06
-8.31355e-08
-6.87619e-08
6.18307e-06
6.50439e-06
8.32064e-08
6.50197e-06
-3.74613e-07
6.47892e-06
-4.84934e-07
6.45641e-06
-2.84779e-07
6.45479e-06
-2.61761e-08
6.46843e-06
1.86394e-07
6.49331e-06
2.77522e-07
6.51228e-06
2.03428e-07
6.51681e-06
3.98602e-08
6.51333e-06
-7.63284e-08
6.50353e-06
-1.78811e-07
6.49194e-06
-2.1713e-07
6.47804e-06
-2.15816e-07
6.46345e-06
-2.08105e-07
6.45042e-06
-1.90236e-07
6.44177e-06
-1.62528e-07
6.43467e-06
-1.25362e-07
6.42825e-06
-1.02097e-07
6.42444e-06
-7.93265e-08
-6.51591e-08
6.42083e-06
6.75153e-06
8.30127e-08
6.74771e-06
-3.70785e-07
6.72629e-06
-4.63523e-07
6.70479e-06
-2.63278e-07
6.70293e-06
-2.43124e-08
6.71587e-06
1.73459e-07
6.7388e-06
2.54592e-07
6.75671e-06
1.85513e-07
6.76142e-06
3.51545e-08
6.75802e-06
-7.29274e-08
6.74802e-06
-1.68813e-07
6.73681e-06
-2.05922e-07
6.72362e-06
-2.02624e-07
6.70967e-06
-1.94156e-07
6.69692e-06
-1.77485e-07
6.68799e-06
-1.53599e-07
6.68171e-06
-1.19084e-07
6.67633e-06
-9.67163e-08
6.67152e-06
-7.45172e-08
-6.1421e-08
6.66778e-06
7.0081e-06
8.2564e-08
7.00269e-06
-3.65372e-07
6.98304e-06
-4.43881e-07
6.96248e-06
-2.42711e-07
6.96104e-06
-2.28805e-08
6.97318e-06
1.61325e-07
6.99394e-06
2.33828e-07
7.01048e-06
1.6897e-07
7.01528e-06
3.03601e-08
7.01213e-06
-6.97743e-08
7.002e-06
-1.58687e-07
6.99099e-06
-1.94917e-07
6.97856e-06
-1.90187e-07
6.96518e-06
-1.80783e-07
6.95295e-06
-1.65246e-07
6.94385e-06
-1.44499e-07
6.93763e-06
-1.12871e-07
6.93187e-06
-9.09593e-08
6.92792e-06
-7.05635e-08
-5.76074e-08
6.92411e-06
7.27444e-06
8.18183e-08
7.26727e-06
-3.5821e-07
7.24948e-06
-4.26091e-07
7.22986e-06
-2.23085e-07
7.22901e-06
-2.20344e-08
7.24061e-06
1.49727e-07
7.25916e-06
2.15277e-07
7.27409e-06
1.54037e-07
7.27875e-06
2.57057e-08
7.2759e-06
-6.69267e-08
7.26583e-06
-1.48613e-07
7.25486e-06
-1.83953e-07
7.24325e-06
-1.78572e-07
7.23042e-06
-1.67962e-07
7.21872e-06
-1.53544e-07
7.20951e-06
-1.35286e-07
7.20346e-06
-1.06821e-07
7.19823e-06
-8.57262e-08
7.19415e-06
-6.6484e-08
-5.37831e-08
7.19032e-06
7.5509e-06
8.07474e-08
7.54191e-06
-3.49213e-07
7.52594e-06
-4.10124e-07
7.50732e-06
-2.04467e-07
7.50684e-06
-2.15499e-08
7.51846e-06
1.38106e-07
7.53472e-06
1.99016e-07
7.54794e-06
1.40813e-07
7.55222e-06
2.1431e-08
7.54973e-06
-6.44443e-08
7.5399e-06
-1.38782e-07
7.52885e-06
-1.72904e-07
7.51799e-06
-1.67708e-07
7.50575e-06
-1.55723e-07
7.49461e-06
-1.42403e-07
7.48545e-06
-1.26125e-07
7.47947e-06
-1.00847e-07
7.47439e-06
-8.06476e-08
7.4705e-06
-6.25871e-08
-5.00135e-08
7.46673e-06
7.83787e-06
7.93355e-08
7.82707e-06
-3.3842e-07
7.81273e-06
-3.95781e-07
7.79519e-06
-1.8693e-07
7.79485e-06
-2.12069e-08
7.80672e-06
1.26237e-07
7.82086e-06
1.84881e-07
7.83249e-06
1.2918e-07
7.83622e-06
1.76964e-08
7.83396e-06
-6.21826e-08
7.82458e-06
-1.29397e-07
7.81336e-06
-1.61683e-07
7.80317e-06
-1.57519e-07
7.79158e-06
-1.44133e-07
7.78101e-06
-1.31833e-07
7.77193e-06
-1.17045e-07
7.76591e-06
-9.48316e-08
7.76084e-06
-7.55773e-08
7.75728e-06
-5.90292e-08
-4.64206e-08
7.75369e-06
8.13571e-06
7.75865e-08
8.12331e-06
-3.26022e-07
8.1101e-06
-3.82572e-07
8.09377e-06
-1.70592e-07
8.09343e-06
-2.08718e-08
8.1053e-06
1.14364e-07
8.11785e-06
1.72331e-07
8.12811e-06
1.18924e-07
8.13121e-06
1.45924e-08
8.12896e-06
-5.99281e-08
8.12022e-06
-1.20656e-07
8.10886e-06
-1.50322e-07
8.09918e-06
-1.47843e-07
8.08831e-06
-1.33258e-07
8.07822e-06
-1.21751e-07
8.06935e-06
-1.08169e-07
8.06338e-06
-8.88658e-08
8.05855e-06
-7.07501e-08
8.055e-06
-5.54794e-08
-4.3099e-08
8.05168e-06
8.44484e-06
7.551e-08
8.43109e-06
-3.12278e-07
8.41806e-06
-3.69539e-07
8.40314e-06
-1.55672e-07
8.40249e-06
-2.02262e-08
8.4138e-06
1.03058e-07
8.42601e-06
1.60121e-07