/*--------------------------------*- C++ -*----------------------------------*\
| =========                 |                                                 |
| \\      /  F ield         | OpenFOAM: The Open Source CFD Toolbox           |
|  \\    /   O peration     | Version:  v2012                                 |
|   \\  /    A nd           | Website:  www.openfoam.com                      |
|    \\/     M anipulation  |                                                 |
\*---------------------------------------------------------------------------*/
FoamFile
{
    version     2.0;
    format      ascii;
    class       volScalarField;
    location    "4.6";
    object      p;
}
// * * * * * * * * * * * * * * * * * * * * * * * * * * * * * * * * * * * * * //

dimensions      [0 2 -2 0 0 0 0];


internalField   nonuniform List<scalar> 
7000
(
-7.98961e-09
0.000702083
0.000671547
0.00190099
-0.00256393
0.00315286
0.00634956
0.00992196
0.0129379
0.0145269
0.0141759
0.0161012
0.0162471
0.0175106
0.0168405
0.0191369
0.0196015
0.0229487
0.0250292
0.0303092
-1.18682e-06
0.000703495
0.000675546
0.0019103
-0.00255544
0.00314419
0.00634645
0.00993284
0.0129344
0.0145259
0.0141732
0.0160888
0.0162493
0.017493
0.0168588
0.0191189
0.0196255
0.0229179
0.0250542
0.0300672
-1.62854e-06
0.000713083
0.000680871
0.00191603
-0.00253903
0.00312722
0.00634515
0.00995229
0.0129272
0.014527
0.0141664
0.0160755
0.0162483
0.017469
0.0168886
0.0190875
0.0196659
0.0228625
0.0250789
0.0296795
2.32005e-07
0.000732481
0.000683585
0.00192111
-0.00250852
0.00311393
0.0063435
0.00997703
0.0129174
0.0145275
0.0141559
0.0160594
0.0162444
0.0174401
0.0169262
0.0190489
0.0197159
0.022795
0.0250842
0.0292801
4.99285e-06
0.000758871
0.000681597
0.00192558
-0.00246097
0.00310648
0.00633997
0.0100048
0.012906
0.014525
0.0141428
0.0160396
0.01624
0.0174075
0.0169693
0.0190056
0.0197724
0.0227196
0.0250706
0.0289043
1.18681e-05
0.000789744
0.00067455
0.00193121
-0.0023972
0.0031035
0.00633484
0.0100341
0.0128942
0.0145189
0.0141287
0.0160159
0.0162368
0.0173712
0.0170163
0.018959
0.0198329
0.0226388
0.0250405
0.0285547
2.01976e-05
0.000824341
0.000664058
0.00193925
-0.00232033
0.00310528
0.00632895
0.010064
0.0128826
0.0145093
0.0141144
0.0159879
0.0162358
0.0173306
0.0170667
0.0189094
0.0198951
0.0225547
0.0249944
0.0282254
2.90743e-05
0.00086298
0.000653051
0.00195002
-0.00223353
0.00311297
0.00632277
0.0100935
0.0128713
0.0144959
0.0140999
0.0159553
0.0162372
0.0172853
0.0171199
0.0188569
0.0199562
0.0224693
0.0249316
0.0279117
3.77125e-05
0.00090653
0.000644699
0.0019628
-0.00213938
0.00312634
0.00631612
0.0101218
0.01286
0.0144782
0.0140852
0.0159178
0.0162409
0.0172352
0.0171753
0.018802
0.0200138
0.0223846
0.0248512
0.0276112
4.56461e-05
0.000955912
0.000641483
0.00197662
-0.0020401
0.00314348
0.00630875
0.0101479
0.0128484
0.0144556
0.0140698
0.0158752
0.0162471
0.0171802
0.0172318
0.0187457
0.0200652
0.0223024
0.0247534
0.027322
5.27855e-05
0.00101165
0.000644593
0.00199095
-0.00193754
0.0031619
0.0063006
0.0101711
0.0128361
0.0144275
0.0140537
0.015827
0.0162558
0.0171206
0.0172881
0.0186894
0.0201076
0.0222236
0.0246389
0.0270421
5.93618e-05
0.00107363
0.000653879
0.00200587
-0.00183252
0.00317996
0.00629183
0.0101906
0.0128229
0.0143933
0.0140367
0.0157732
0.0162668
0.0170568
0.0173426
0.0186347
0.0201384
0.0221485
0.024509
0.0267691
6.57978e-05
0.00114108
0.000668205
0.00202175
-0.00172444
0.00319768
0.00628269
0.0102058
0.0128085
0.0143527
0.0140189
0.0157137
0.0162799
0.0169894
0.0173936
0.0185829
0.0201555
0.0220765
0.0243652
0.0265001
7.25651e-05
0.00121283
0.000686043
0.00203894
-0.00161142
0.00321654
0.00627354
0.0102161
0.0127928
0.0143054
0.0140004
0.0156486
0.0162946
0.0169197
0.0174389
0.0185355
0.0201576
0.0220063
0.0242093
0.0262326
8.00644e-05
0.00128764
0.000706026
0.00205752
-0.00149096
0.00323863
0.00626492
0.0102213
0.0127759
0.0142513
0.0139816
0.0155783
0.0163102
0.016849
0.0174766
0.0184932
0.020144
0.0219356
0.0240428
0.0259642
8.85624e-05
0.00136441
0.000727289
0.00207729
-0.00136091
0.0032656
0.00625755
0.0102214
0.0127581
0.0141906
0.0139626
0.0155033
0.0163253
0.0167792
0.0175046
0.0184564
0.020115
0.0218619
0.0238669
0.0256929
9.81939e-05
0.00144241
0.000749532
0.00209795
-0.00122035
0.0032981
0.00625219
0.0102168
0.01274
0.0141234
0.0139435
0.0154244
0.0163386
0.0167123
0.0175214
0.0184248
0.0200715
0.0217829
0.023683
0.0254174
0.000109003
0.0015212
0.000772885
0.00211927
-0.0010698
0.00333559
0.00624943
0.0102078
0.0127226
0.0140501
0.0139243
0.0153428
0.0163482
0.0166499
0.017526
0.0183973
0.0200145
0.0216963
0.0234922
0.0251369
0.00012099
0.00160057
0.000797717
0.00214114
-0.000910785
0.00337678
0.00624956
0.0101948
0.0127065
0.0139711
0.0139044
0.01526
0.0163521
0.0165931
0.017518
0.0183725
0.0199455
0.0216
0.0232951
0.0248513
0.000134158
0.00168044
0.000824465
0.00216352
-0.000745175
0.00342011
0.00625269
0.0101781
0.0126924
0.013887
0.013883
0.0151777
0.0163488
0.0165424
0.0174973
0.0183484
0.0198662
0.0214925
0.0230921
0.0245611
0.000148526
0.00176076
0.000853528
0.00218641
-0.000574699
0.00346423
0.00625882
0.0101579
0.0126807
0.0137987
0.0138588
0.0150978
0.0163371
0.0164977
0.0174646
0.0183227
0.0197781
0.0213724
0.0228833
0.0242673
0.000164144
0.00184149
0.000885231
0.00220983
-0.000400652
0.00350815
0.006268
0.0101344
0.0126714
0.0137072
0.0138303
0.0150217
0.0163164
0.0164582
0.0174209
0.0182928
0.0196824
0.0212395
0.0226687
0.0239706
0.000181084
0.0019225
0.000919837
0.00223378
-0.000223842
0.00355123
0.00628025
0.0101077
0.012664
0.0136139
0.0137957
0.0149503
0.0162864
0.0164228
0.0173673
0.0182559
0.0195801
0.0210941
0.022448
0.0236719
0.000199442
0.00200366
0.000957561
0.00225826
-4.47132e-05
0.0035931
0.00629556
0.010078
0.012658
0.0135203
0.0137536
0.0148843
0.0162473
0.01639
0.0173061
0.0182091
0.0194709
0.0209376
0.0222215
0.0233717
0.000219333
0.00208476
0.000998574
0.00228327
0.000136509
0.00363354
0.00631395
0.0100457
0.0126525
0.0134283
0.0137029
0.0148239
0.0161995
0.0163565
0.0172403
0.0181514
0.0193523
0.0207715
0.0219906
0.0230708
0.000240878
0.00216559
0.00104305
0.00230885
0.000319744
0.00367246
0.00633527
0.0100114
0.012646
0.0133394
0.0136426
0.0147683
0.0161456
0.0163183
0.0171696
0.0180868
0.0192208
0.0205943
0.0217588
0.0227696
0.000264204
0.00224591
0.00109121
0.00233501
0.000504929
0.00370997
0.00635926
0.00997582
0.0126375
0.0132546
0.013573
0.0147156
0.0160877
0.0162755
0.0170892
0.0180167
0.0190811
0.0204001
0.0215282
0.0224708
0.000289461
0.00232545
0.0011432
0.0023618
0.000692032
0.00374614
0.00638571
0.00993981
0.0126258
0.0131743
0.0134945
0.0146648
0.016026
0.0162271
0.0170026
0.0179334
0.0189398
0.0201938
0.0212887
0.0221757
0.000316795
0.00240398
0.00119917
0.00238933
0.000881016
0.00378121
0.00641395
0.00990442
0.01261
0.0130995
0.0134062
0.0146151
0.0159629
0.0161691
0.0169116
0.0178365
0.0187952
0.0199896
0.0210226
0.0218766
0.00034633
0.00248124
0.00125936
0.00241764
0.0010717
0.00381582
0.00644313
0.0098708
0.0125886
0.0130319
0.0133085
0.0145635
0.0158984
0.0161074
0.0168062
0.0177295
0.0186428
0.0197712
0.0207726
0.0215819
0.000378269
0.002557
0.00132386
0.00244687
0.00126383
0.00385021
0.00647259
0.00984004
0.0125605
0.0129712
0.0132054
0.0145056
0.0158356
0.0160351
0.0166953
0.0176113
0.0184734
0.0195445
0.0205384
0.0212883
0.000412709
0.00263105
0.0013928
0.00247741
0.00145679
0.00388544
0.00650138
0.00981278
0.0125264
0.0129134
0.013101
0.0144382
0.0157764
0.0159521
0.0165761
0.0174895
0.0182897
0.0193076
0.0202585
0.020996
0.000449768
0.00270315
0.00146653
0.00250913
0.00165043
0.00392264
0.00652899
0.00978863
0.012489
0.0128555
0.0129958
0.0143612
0.0157158
0.0158732
0.0164315
0.0173542
0.0181178
0.0190328
0.0200126
0.0207333
0.000489872
0.00277298
0.00154487
0.00254238
0.00184411
0.00395784
0.00655513
0.0097676
0.0124471
0.0128007
0.0128905
0.0142741
0.0156551
0.0157861
0.0162886
0.0171927
0.0179443
0.0187713
0.0196498
0.0204606
0.000532887
0.00284055
0.00162749
0.00257839
0.00203609
0.00400063
0.00657786
0.00975174
0.0123951
0.0127537
0.0127855
0.0141791
0.0155879
0.0156967
0.0161329
0.017014
0.0177324
0.0185244
0.0193751
0.0201797
0.000578924
0.00290556
0.00171501
0.00261644
0.00222679
0.00404875
0.00659632
0.00974014
0.0123401
0.0126994
0.0126818
0.0140792
0.0155105
0.0156072
0.0159499
0.0168255
0.0175205
0.0182582
0.0191864
0.0199123
0.000628855
0.00296741
0.00180698
0.00265702
0.00241569
0.00409727
0.0066135
0.00972815
0.0122967
0.0126372
0.0125807
0.0139703
0.0154286
0.0155068
0.0157772
0.0165999
0.0173395
0.0179975
0.0187534
0.0196329
0.000682073
0.0030267
0.00190234
0.00270196
0.00260038
0.00415338
0.00662541
0.00972054
0.0122363
0.0125843
0.0124782
0.0138526
0.0153411
0.0153976
0.0155825
0.0163772
0.0171157
0.0177602
0.0184683
0.0193442
0.000738725
0.003083
0.00200212
0.00275006
0.00278153
0.00421666
0.00663219
0.00971539
0.0121438
0.0125287
0.012375
0.0137257
0.0152427
0.0152792
0.0153661
0.0161559
0.0168661
0.0175158
0.0183416
0.0190686
0.000800307
0.00313544
0.00210553
0.00280227
0.00295881
0.00428033
0.00664206
0.00970274
0.0121996
0.0124592
0.0122727
0.0135884
0.0151295
0.0151708
0.0151733
0.0158891
0.0166529
0.0172241
0.0178433
0.0187953
0.000865286
0.00318539
0.00221074
0.00286122
0.00313016
0.00435152
0.00664667
0.0096956
0.0121249
0.0123987
0.0121709
0.013444
0.0150007
0.0150474
0.0149574
0.0156218
0.0163932
0.0169841
0.0175664
0.0185095
0.000934327
0.00323226
0.0023189
0.00292521
0.00329689
0.00442925
0.00664719
0.00968791
0.0120463
0.0123475
0.012069
0.0132843
0.0148583
0.0149218
0.014726
0.0153472
0.0160893
0.0167799
0.0175276
0.018238
0.00100895
0.00327536
0.00242868
0.00299445
0.00346001
0.00450683
0.00665495
0.0096654
0.0120164
0.012286
0.0119674
0.013121
0.0147135
0.0147905
0.0145213
0.0150323
0.015802
0.0164238
0.0169853
0.0180159
0.00108699
0.0033165
0.00253846
0.00307122
0.00361754
0.00458853
0.00666245
0.00964182
0.0119629
0.012224
0.0118652
0.0129515
0.0145505
0.0146665
0.0143002
0.0147286
0.0154571
0.0160605
0.0167566
0.0178712
0.00117018
0.00335511
0.00264894
0.003154
0.00377127
0.00467378
0.00666805
0.00961949
0.0118969
0.0121602
0.0117624
0.0127748
0.0143727
0.0145427
0.0140863
0.0144166
0.0150806
0.0157601
0.0165792
0.0176599
0.00125879
0.00339105
0.00275903
0.00324271
0.00392227
0.00475971
0.00667678
0.00959288
0.0118295
0.0120905
0.0116601
0.0125921
0.0141813
0.0144112
0.0138877
0.0140819
0.0147602
0.0154924
0.0162616
0.0174223
0.00135138
0.00342586
0.00286796
0.00333744
0.00407024
0.00484703
0.00668569
0.00956259
0.0117581
0.0120179
0.0115559
0.0124041
0.0139733
0.0142793
0.0136849
0.0137672
0.014446
0.0151779
0.0160308
0.017225
0.00144953
0.00345953
0.00297544
0.00343677
0.00421716
0.00493521
0.00669409
0.00953067
0.0116837
0.0119371
0.0114513
0.0122125
0.0137576
0.0141303
0.0135077
0.0134645
0.0141064
0.014879
0.0157605
0.0170175
0.00155249
0.00349238
0.00308151
0.0035403
0.00436222
0.00502454
0.0067027
0.00949229
0.0116029
0.011853
0.011349
0.0120217
0.0135285
0.0139707
0.0133428
0.0131689
0.0137579
0.0145742
0.0155244
0.0168234
0.00166024
0.00352507
0.00318592
0.00364668
0.00450572
0.00511641
0.00670984
0.0094473
0.0115183
0.0117688
0.011247
0.0118296
0.0132875
0.0137989
0.0131834
0.0128915
0.0134101
0.0142549
0.0153035
0.0166402
0.00177324
0.0035579
0.00328856
0.0037557
0.00464791
0.0052097
0.00671613
0.009396
0.0114302
0.01168
0.0111461
0.0116366
0.0130414
0.0136069
0.0130362
0.01263
0.0130646
0.0139401
0.0150291
0.0164448
0.00189094
0.00359176
0.0033895
0.00386649
0.00478685
0.00530557
0.00672386
0.0093379
0.0113348
0.0115893
0.0110494
0.0114453
0.012786
0.0134034
0.0128842
0.0123892
0.0127312
0.0136064
0.014771
0.016257
0.00201351
0.00362705
0.0034884
0.00397809
0.00492266
0.00540469
0.00673168
0.00927225
0.0112339
0.0114981
0.0109579
0.0112524
0.0125229
0.013184
0.0127301
0.0121739
0.0124062
0.0132694
0.0144768
0.0160527
0.00214076
0.00366424
0.0035855
0.00409075
0.00505457
0.00550501
0.00674033
0.00920106
0.0111287
0.011405
0.0108694
0.0110603
0.0122524
0.0129548
0.0125708
0.0119754
0.0120961
0.0129274
0.0141874
0.0158453
0.00227261
0.00370428
0.00368043
0.0042029
0.00518138
0.00560749
0.00675247
0.00912466
0.0110163
0.0113064
0.0107847
0.0108753
0.0119762
0.0127145
0.0124024
0.0117911
0.011805
0.0125887
0.0138724
0.0156209
0.00240884
0.0037476
0.0037733
0.00431462
0.00530272
0.00571045
0.00676819
0.00904336
0.0108965
0.0112022
0.0107042
0.0107012
0.0116933
0.0124614
0.0122248
0.0116178
0.0115354
0.0122549
0.0135666
0.0153953
0.00254919
0.00379501
0.00386384
0.00442604
0.00541845
0.00581034
0.00678665
0.00896035
0.0107732
0.0110943
0.0106247
0.0105379
0.0114045
0.0121935
0.0120379
0.0114528
0.011289
0.0119345
0.0132479
0.0151565
0.00269267
0.00385007
0.00395263
0.00453571
0.00552916
0.00590677
0.00680679
0.00887463
0.0106477
0.0109843
0.0105426
0.0103874
0.0111151
0.0119111
0.0118407
0.0112928
0.0110669
0.0116272
0.0129402
0.0149195
0.00283949
0.00390909
0.00404118
0.00464282
0.00563382
0.00599973
0.00682738
0.00878505
0.010521
0.0108737
0.0104558
0.0102517
0.0108335
0.0116124
0.0116319
0.0111343
0.0108642
0.0113433
0.0126323
0.014674
0.00299052
0.00397202
0.00412984
0.00474768
0.00573179
0.00608907
0.00684299
0.00869264
0.010393
0.0107638
0.0103639
0.0101283
0.0105655
0.0113003
0.0114068
0.0109734
0.0106804
0.0110857
0.0123433
0.0144322
0.00314311
0.00404188
0.0042192
0.0048499
0.00582375
0.00617178
0.00685775
0.00859888
0.0102625
0.0106559
0.0102668
0.0100128
0.010316
0.0109816
0.0111617
0.0108071
0.010515
0.0108552
0.0120751
0.014194
0.00329781
0.00411921
0.00430768
0.00494872
0.00591014
0.00624911
0.006874
0.00850521
0.0101289
0.0105499
0.010165
0.0098987
0.0100878
0.0106609
0.0108977
0.0106304
0.01036
0.0106531
0.0118283
0.0139614
0.00345523
0.00420154
0.00439469
0.00504435
0.00599139
0.00632249
0.0068924
0.00841455
0.00998889
0.0104424
0.010059
0.0097803
0.00987882
0.0103484
0.0106181
0.010439
0.010212
0.0104766
0.0116073
0.0137409
0.00361357
0.00428937
0.00448174
0.00513547
0.00606785
0.00639425
0.00691476
0.00832626
0.00983921
0.0103297
0.00995196
0.00965691
0.00968788
0.0100512
0.0103274
0.010231
0.0100637
0.0103211
0.0114137
0.013535
0.00377238
0.00438326
0.00456865
0.00522127
0.00614127
0.0064663
0.0069387
0.00823762
0.00967952
0.0102107
0.00984858
0.00952983
0.00950929
0.00977203
0.0100325
0.010007
0.0099088
0.0101805
0.0112452
0.0133453
0.00393141
0.00448257
0.00465591
0.0053027
0.00621214
0.00653666
0.00696089
0.00815017
0.00951379
0.0100845
0.00975013
0.00939951
0.00933652
0.00951228
0.00974063
0.00977048
0.00974386
0.0100468
0.0110973
0.0131723
0.00409014
0.00458679
0.00474482
0.0053804
0.00627835
0.00660354
0.00698213
0.0080671
0.00934513
0.0099472
0.0096544
0.00926923
0.00916636
0.00927005
0.00945796
0.00952612
0.00956678
0.00991286
0.0109635
0.0130147
0.00424816
0.00469551
0.00483613
0.00545446
0.00633857
0.00666721
0.00700365
0.00798876
0.00917483
0.00979617
0.00955856
0.00914329
0.00899758
0.00904196
0.00918765
0.00927834
0.00937799
0.00977276
0.0108358
0.0128694
0.00440508
0.0048083
0.00493039
0.00552514
0.0063925
0.00672747
0.00702467
0.00791424
0.00900548
0.00963195
0.0094593
0.0090244
0.00883163
0.00882532
0.00892957
0.00903096
0.00917972
0.00962289
0.010707
0.0127314
0.00456066
0.00492467
0.00502772
0.00559287
0.00643987
0.00678327
0.00704478
0.00784366
0.00884035
0.00945647
0.0093519
0.0089125
0.00867065
0.00861709
0.00868272
0.00878694
0.00897401
0.00946264
0.0105726
0.0125961
0.00471465
0.00504409
0.00512809
0.00565801
0.00648043
0.00683409
0.00706435
0.0077765
0.00868132
0.00927249
0.00923209
0.00880567
0.00851687
0.00841627
0.00844491
0.00854675
0.00876384
0.00929351
0.0104309
0.0124604
0.00486684
0.00516584
0.00523141
0.00572133
0.00651438
0.00687924
0.0070832
0.00771187
0.00852911
0.0090834
0.00909786
0.00870033
0.00837136
0.00822365
0.00821567
0.00831179
0.00855183
0.00911616
0.0102806
0.0123216
0.00501707
0.0052892
0.00533741
0.00578354
0.00654197
0.0069177
0.00710096
0.00764964
0.00838417
0.00889293
0.00894868
0.00859183
0.00823391
0.00804077
0.00799577
0.00808194
0.00833784
0.00893151
0.0101226
0.0121788
0.00516516
0.00541358
0.00544585
0.00584512
0.00656347
0.00694875
0.00711728
0.00758945
0.0082461
0.00870452
0.00878599
0.00847669
0.00810337
0.00786821
0.00778459
0.0078555
0.00812214
0.00874153
0.00995851
0.0120325
0.00531101
0.00553828
0.00555604
0.00590659
0.0065797
0.00697195
0.00713138
0.00753095
0.008114
0.00852118
0.00861273
0.00835136
0.00797632
0.00770521
0.0075826
0.00763358
0.00790587
0.00854719
0.0097896
0.011883
0.00545456
0.00566266
0.00566736
0.00596843
0.0065914
0.00698663
0.00714223
0.0074744
0.00798688
0.00834501
0.00843268
0.00821364
0.00784877
0.00755022
0.00739081
0.00741804
0.00769013
0.00834898
0.00961525
0.0117295
0.00559564
0.0057861
0.00577916
0.00603099
0.0065994
0.00699267
0.00714902
0.00741995
0.00786344
0.0081763
0.00824947
0.00806343
0.00771728
0.007401
0.00720902
0.00721002
0.00747605
0.00814713
0.00943489
0.0115718
0.00573413
0.00590811
0.00589067
0.00609427
0.00660466
0.00699028
0.00715063
0.00736766
0.00774292
0.00801455
0.00806705
0.00790205
0.00757843
0.00725436
0.00703593
0.00700988
0.00726462
0.00794279
0.0092505
0.0114099
0.00586997
0.00602817
0.00600101
0.00615836
0.00660824
0.00697975
0.00714579
0.00731749
0.00762489
0.00785795
0.00788842
0.00773255
0.00743044
0.00710703
0.00686937
0.00681769
0.00705741
0.00773678
0.00905995
0.0112425
0.00600299
0.00614595
0.00610932
0.00622282
0.00661111
0.00696218
0.00713329
0.00726885
0.0075101
0.00770453
0.00771443
0.00755815
0.00727304
0.00695566
0.0067063
0.00663273
0.00685553
0.00753068
0.00886478
0.0110693
0.00613298
0.00626111
0.00621497
0.00628715
0.00661405
0.00693885
0.00711203
0.00722021
0.00739955
0.00755283
0.00754468
0.00738261
0.00710756
0.00679752
0.00654321
0.00645325
0.00665903
0.00732639
0.00866669
0.0108903
0.00625979
0.00637335
0.00631715
0.0063508
0.00661754
0.00691107
0.00708211
0.0071698
0.00729389
0.00740262
0.00737704
0.00720785
0.0069365
0.00663204
0.00637678
0.00627618
0.00646685
0.00712414
0.00846648
0.0107056
0.00638313
0.00648238
0.00641545
0.00641319
0.00662164
0.00687994
0.00704401
0.0071152
0.00719319
0.00725582
0.00720945
0.0070334
0.00676218
0.00646069
0.00620542
0.00609793
0.00627637
0.00692367
0.00826552
0.0105159
0.00650279
0.00658796
0.00650941
0.00647389
0.00662648
0.00684645
0.00699897
0.00705432
0.0070952
0.00711436
0.00704173
0.00685768
0.00658525
0.00628479
0.00602874
0.00591521
0.00608524
0.00672475
0.00806466
0.0103219
0.00661821
0.00668994
0.00659881
0.00653234
0.00663209
0.00681144
0.0069488
0.00698675
0.00699612
0.0069777
0.00687539
0.00668011
0.00640528
0.00610455
0.00584676
0.00572869
0.00589166
0.006525
0.00786195
0.0101227
0.00672905
0.00678811
0.00668319
0.00658763
0.0066382
0.00677528
0.00689533
0.00691525
0.00689431
0.00684408
0.0067109
0.00650022
0.0062216
0.00591877
0.00565843
0.00553618
0.00569348
0.00632091
0.00765407
0.00991607
0.00683475
0.00688268
0.00676334
0.00663954
0.00664422
0.00673648
0.0068359
0.00683997
0.00679085
0.00671486
0.00655215
0.0063191
0.00603358
0.00572705
0.0054627
0.00533567
0.00548759
0.00610898
0.0074374
0.00969868
0.00693463
0.00697267
0.00683933
0.00668898
0.0066522
0.00669822
0.0067707
0.00675834
0.00667885
0.00658289
0.00640217
0.00614505
0.0058421
0.00552853
0.00526195
0.00512851
0.0052733
0.00588747
0.00721113
0.0094698
0.00702885
0.00705791
0.00691008
0.00673376
0.00665983
0.00666208
0.00670476
0.00667882
0.00656453
0.00643715
0.00624476
0.00597753
0.00565591
0.00532102
0.00504789
0.00490964
0.0050452
0.00564897
0.0069628
0.00921773
0.00711575
0.0071383
0.00697719
0.00677604
0.0066655
0.00662336
0.00663025
0.0065994
0.00646518
0.00630066
0.00608113
0.00580013
0.00548392
0.00514788
0.00484591
0.00468653
0.00480631
0.00539667
0.0067011
0.00895062
0.00719575
0.00721113
0.00703723
0.0068149
0.00666816
0.0065826
0.00654369
0.00649715
0.00635733
0.00617654
0.00593934
0.00561087
0.0052504
0.00490028
0.00461225
0.00444765
0.00455016
0.00511966
0.00640349
0.0086365
0.00726835
0.00729954
0.00711699
0.00686125
0.00666716
0.00654035
0.00646102
0.00638954
0.0062323
0.00603424
0.00582476
0.0055368
0.00516216
0.00475699
0.00441856
0.00422739
0.00431005
0.00485743
0.00611553
0.00831948
0.0072817
0.00733526
0.00720398
0.00692479
0.00666681
0.00649324
0.00638431
0.00630107
0.00612077
0.00585103
0.00555475
0.00522431
0.00486636
0.00450958
0.00418716
0.00400509
0.0040974
0.00465054
0.00590476
0.00809686
0.00742682
0.00742351
0.00721875
0.0069198
0.00664254
0.00642194
0.00627801
0.00621769
0.00611451
0.00590873
0.00563548
0.00526375
0.004806
0.00430288
0.0038438
0.00353098
0.0035004
0.00394492
0.00510645
0.00721975
0.00737807
0.0074751
0.00723992
0.00700627
0.0067493
0.0064068
0.00610732
0.00593184
0.00575179
0.00553342
0.0052552
0.00499616
0.00473492
0.00448517
0.00427303
0.00416736
0.00425173
0.00470526
0.00578517
0.00776054
0.00756531
0.00748808
0.00729023
0.00692839
0.00658639
0.00640589
0.00628697
0.0061962
0.00607439
0.00581113
0.00542981
0.00492563
0.00429575
0.0035934
0.00294113
0.00240596
0.00215143
0.00238478
0.00334695
0.00527062
0.00782141
0.00742076
0.00711394
0.0067605
0.00647825
0.00616155
0.00590254
0.00576274
0.00559041
0.00528677
0.00497234
0.00476143
0.00479581
0.00510583
0.00566443
0.00647453
0.00737377
0.00809824
0.00829884
0.00764163
0.00783384
0.00748259
0.00713832
0.00683916
0.00665783
0.00653488
0.00645589
0.00632006
0.00611602
0.00576193
0.00521944
0.00449142
0.00359121
0.00259042
0.00160195
0.000844235
0.000334573
0.000302873
0.00100468
0.00267803
0.0080089
0.0074728
0.00708399
0.00676561
0.00659714
0.00635227
0.0060441
0.00561169
0.00522464
0.00501012
0.00479778
0.00446671
0.00418992
0.00412692
0.00437328
0.00480796
0.00545655
0.00602264
0.00613804
0.00544902
0.0080163
0.00746793
0.00709145
0.00684245
0.00681133
0.00682113
0.00683582
0.00671097
0.0064213
0.00585358
0.00496967
0.003713
0.00216287
0.000504463
-0.00103047
-0.00226047
-0.00299264
-0.0030576
-0.00224256
-0.000359369
0.037589
0.018747
0.011565
0.0114084
0.0121335
0.0124923
0.0127275
0.0130982
0.0135725
0.0140493
0.0145584
0.0150996
0.0156049
0.016135
0.0167839
0.0174586
0.0180989
0.0188259
0.0196152
0.0203584
0.0211012
0.0219141
0.0227346
0.0235871
0.0245052
0.0255065
0.0265648
0.0276099
0.0286382
0.0297173
0.0308678
0.0320819
0.0333512
0.0346278
0.0359621
0.0373336
0.0387647
0.0402322
0.0417602
0.0433447
0.0449705
0.0466899
0.0484155
0.0502593
0.0520443
0.0539714
0.055801
0.057666
0.0593914
0.0607076
0.0369044
0.0187975
0.0116118
0.0114285
0.0121443
0.0124992
0.0127324
0.013102
0.0135755
0.0140517
0.0145604
0.0151013
0.0156063
0.0161362
0.016785
0.0174595
0.0180997
0.0188267
0.0196159
0.020359
0.0211017
0.0219147
0.0227351
0.0235875
0.0245057
0.0255068
0.0265651
0.0276102
0.0286385
0.0297175
0.0308681
0.0320821
0.0333514
0.034628
0.0359622
0.0373337
0.0387648
0.0402323
0.0417604
0.0433448
0.0449706
0.04669
0.0484156
0.0502593
0.0520443
0.0539715
0.0558011
0.057666
0.0593914
0.0607076
0.0362769
0.0188964
0.0116857
0.0114527
0.0121563
0.0125066
0.0127373
0.0131056
0.0135784
0.014054
0.0145623
0.0151028
0.0156076
0.0161372
0.0167859
0.0174603
0.0181004
0.0188273
0.0196165
0.0203596
0.0211022
0.0219151
0.0227355
0.0235879
0.024506
0.0255072
0.0265654
0.0276105
0.0286387
0.0297177
0.0308683
0.0320823
0.0333516
0.0346282
0.0359624
0.0373339
0.0387649
0.0402325
0.0417605
0.0433449
0.0449707
0.0466901
0.0484157
0.0502594
0.0520444
0.0539715
0.0558012
0.0576661
0.0593915
0.0607076
0.03571
0.0190292
0.0117916
0.0114871
0.0121727
0.0125164
0.0127434
0.0131099
0.0135817
0.0140566
0.0145643
0.0151045
0.015609
0.0161384
0.0167868
0.0174612
0.0181012
0.018828
0.0196171
0.0203601
0.0211027
0.0219156
0.0227359
0.0235883
0.0245064
0.0255075
0.0265658
0.0276108
0.028639
0.029718
0.0308685
0.0320825
0.0333518
0.0346283
0.0359625
0.037334
0.0387651
0.0402326
0.0417606
0.043345
0.0449708
0.0466902
0.0484158
0.0502595
0.0520445
0.0539716
0.0558012
0.0576661
0.0593915
0.0607076
0.0351555
0.0191753
0.0119212
0.0115315
0.0121949
0.0125302
0.0127519
0.0131157
0.013586
0.0140599
0.014567
0.0151067
0.0156108
0.0161397
0.0167879
0.0174621
0.018102
0.0188287
0.0196177
0.0203607
0.0211033
0.0219161
0.0227364
0.0235887
0.0245067
0.0255078
0.0265661
0.0276111
0.0286393
0.0297182
0.0308687
0.0320827
0.033352
0.0346285
0.0359627
0.0373342
0.0387652
0.0402327
0.0417607
0.0433452
0.0449709
0.0466903
0.0484159
0.0502596
0.0520446
0.0539717
0.0558013
0.0576662
0.0593916
0.0607076
0.0345951
0.0193239
0.0120633
0.0115817
0.0122216
0.012548
0.0127633
0.0131233
0.0135917
0.0140643
0.0145704
0.0151094
0.0156131
0.0161415
0.0167893
0.0174633
0.0181029
0.0188295
0.0196185
0.0203614
0.0211039
0.0219166
0.0227369
0.0235891
0.0245071
0.0255082
0.0265664
0.0276114
0.0286396
0.0297185
0.0308689
0.0320829
0.0333522
0.0346287
0.0359629
0.0373343
0.0387653
0.0402329
0.0417609
0.0433453
0.0449711
0.0466904
0.048416
0.0502597
0.0520447
0.0539718
0.0558014
0.0576663
0.0593917
0.0607076
0.0340291
0.0194712
0.012212
0.0116343
0.0122505
0.0125688
0.0127772
0.0131328
0.0135988
0.0140697
0.0145747
0.015113
0.0156161
0.0161439
0.0167911
0.0174646
0.018104
0.0188304
0.0196193
0.0203622
0.0211045
0.0219172
0.0227374
0.0235896
0.0245076
0.0255086
0.0265669
0.0276118
0.0286399
0.0297188
0.0308692
0.0320832
0.0333524
0.0346289
0.0359631
0.0373345
0.0387655
0.040233
0.041761
0.0433454
0.0449712
0.0466905
0.0484161
0.0502598
0.0520448
0.0539719
0.0558015
0.0576664
0.0593919
0.0607076
0.0334622
0.0196155
0.012365
0.011688
0.0122803
0.0125912
0.0127929
0.013144
0.0136071
0.0140762
0.0145798
0.0151172
0.0156198
0.016147
0.0167934
0.0174663
0.0181053
0.0188315
0.0196202
0.020363
0.0211053
0.0219179
0.022738
0.0235901
0.024508
0.025509
0.0265673
0.0276123
0.0286403
0.0297191
0.0308695
0.0320835
0.0333526
0.0346291
0.0359632
0.0373347
0.0387657
0.0402331
0.0417611
0.0433455
0.0449713
0.0466906
0.0484162
0.0502599
0.0520449
0.053972
0.0558016
0.0576666
0.0593921
0.0607077
0.0328979
0.0197556
0.012522
0.0117425
0.0123102
0.0126145
0.0128098
0.0131562
0.0136164
0.0140836
0.0145858
0.0151222
0.0156242
0.0161508
0.0167963
0.0174684
0.0181068
0.0188327
0.0196212
0.0203639
0.0211062
0.0219187
0.0227387
0.0235907
0.0245086
0.0255095
0.0265678
0.0276127
0.0286407
0.0297194
0.0308698
0.0320838
0.0333529
0.0346294
0.0359635
0.0373349
0.0387658
0.0402333
0.0417613
0.0433457
0.0449714
0.0466908
0.0484163
0.05026
0.052045
0.0539721
0.0558018
0.0576668
0.0593924
0.0607078
0.0323379
0.0198905
0.0126828
0.0117978
0.01234
0.0126383
0.0128274
0.0131692
0.0136264
0.0140915
0.0145923
0.0151277
0.0156291
0.0161551
0.0167998
0.0174709
0.0181087
0.018834
0.0196222
0.0203649
0.0211072
0.0219197
0.0227396
0.0235914
0.0245091
0.02551
0.0265683
0.0276133
0.0286412
0.0297199
0.0308702
0.0320841
0.0333533
0.0346297
0.0359637
0.0373351
0.038766
0.0402335
0.0417614
0.0433458
0.0449716
0.0466909
0.0484165
0.0502602
0.0520451
0.0539723
0.055802
0.0576671
0.0593928
0.0607079
0.0317834
0.0200194
0.0128476
0.0118544
0.0123697
0.0126625
0.0128456
0.0131826
0.0136368
0.0140998
0.0145992
0.0151336
0.0156344
0.0161599
0.0168037
0.0174739
0.0181109
0.0188356
0.0196233
0.0203659
0.0211082
0.0219208
0.0227406
0.0235923
0.0245098
0.0255105
0.0265689
0.0276139
0.0286418
0.0297204
0.0308706
0.0320845
0.0333536
0.03463
0.035964
0.0373353
0.0387663
0.0402337
0.0417616
0.043346
0.0449717
0.046691
0.0484166
0.0502603
0.0520453
0.0539724
0.0558022
0.0576674
0.0593933
0.0607081
0.0312356
0.0201419
0.0130164
0.0119123
0.0123991
0.0126869
0.0128641
0.0131964
0.0136475
0.0141084
0.0146064
0.0151399
0.0156399
0.0161649
0.016808
0.0174773
0.0181134
0.0188373
0.0196245
0.0203669
0.0211093
0.021922
0.0227418
0.0235935
0.0245107
0.025511
0.0265694
0.0276146
0.0286424
0.029721
0.0308712
0.0320849
0.033354
0.0346304
0.0359643
0.0373356
0.0387665
0.0402339
0.0417618
0.0433461
0.0449718
0.0466912
0.0484167
0.0502605
0.0520454
0.0539726
0.0558024
0.0576679
0.059394
0.0607083
0.0306952
0.0202575
0.013189
0.0119719
0.0124281
0.0127114
0.0128831
0.0132103
0.0136583
0.0141171
0.0146138
0.0151463
0.0156456
0.01617
0.0168124
0.017481
0.0181163
0.0188392
0.0196257
0.0203679
0.0211105
0.0219232
0.0227431
0.0235948
0.0245117
0.0255116
0.0265699
0.0276152
0.0286431
0.0297217
0.0308718
0.0320854
0.0333544
0.0346308
0.0359647
0.037336
0.0387668
0.0402342
0.041762
0.0433463
0.044972
0.0466913
0.0484169
0.0502606
0.0520456
0.0539728
0.0558027
0.0576684
0.0593948
0.0607086
0.0301624
0.0203656
0.0133657
0.0120334
0.0124564
0.0127358
0.0129025
0.0132245
0.0136692
0.014126
0.0146213
0.0151529
0.0156515
0.0161753
0.016817
0.0174848
0.0181193
0.0188412
0.0196269
0.0203689
0.0211116
0.0219244
0.0227445
0.0235964
0.024513
0.0255123
0.0265703
0.0276158
0.0286439
0.0297226
0.0308725
0.032086
0.0333549
0.0346312
0.0359651
0.0373363
0.0387672
0.0402345
0.0417623
0.0433465
0.0449722
0.0466915
0.048417
0.0502608
0.0520458
0.0539731
0.055803
0.057669
0.0593958
0.060709
0.0296375
0.0204658
0.0135464
0.0120972
0.0124842
0.0127602
0.0129224
0.013239
0.0136801
0.0141348
0.0146289
0.0151597
0.0156576
0.0161808
0.0168217
0.0174888
0.0181225
0.0188434
0.0196282
0.0203699
0.0211128
0.0219257
0.0227459
0.023598
0.0245145
0.0255131
0.0265707
0.0276162
0.0286446
0.0297235
0.0308734
0.0320866
0.0333554
0.0346316
0.0359655
0.0373367
0.0387676
0.0402348
0.0417626
0.0433468
0.0449724
0.0466916
0.0484172
0.050261
0.052046
0.0539734
0.0558034
0.0576698
0.0593971
0.0607095
0.0291202
0.0205576
0.0137315
0.0121639
0.0125112
0.0127844
0.012943
0.0132539
0.013691
0.0141436
0.0146365
0.0151665
0.0156638
0.0161864
0.0168265
0.0174929
0.0181257
0.0188457
0.0196295
0.020371
0.0211139
0.0219269
0.0227473
0.0235998
0.0245162
0.025514
0.026571
0.0276166
0.0286453
0.0297245
0.0308743
0.0320873
0.0333559
0.0346321
0.035966
0.0373372
0.038768
0.0402352
0.0417629
0.0433471
0.0449726
0.0466918
0.0484174
0.0502612
0.0520462
0.0539737
0.0558038
0.0576707
0.0593985
0.0607101
0.0286104
0.0206405
0.0139209
0.0122341
0.0125376
0.0128084
0.0129645
0.0132695
0.0137019
0.0141525
0.0146443
0.0151735
0.0156702
0.0161923
0.0168315
0.017497
0.0181291