/*--------------------------------*- C++ -*----------------------------------*\
| =========                 |                                                 |
| \\      /  F ield         | OpenFOAM: The Open Source CFD Toolbox           |
|  \\    /   O peration     | Version:  v2012                                 |
|   \\  /    A nd           | Website:  www.openfoam.com                      |
|    \\/     M anipulation  |                                                 |
\*---------------------------------------------------------------------------*/
FoamFile
{
    version     2.0;
    format      ascii;
    class       volScalarField;
    location    "0.2";
    object      p;
}
// * * * * * * * * * * * * * * * * * * * * * * * * * * * * * * * * * * * * * //

dimensions      [0 2 -2 0 0 0 0];


internalField   nonuniform List<scalar> 
7000
(
-6.89624e-11
0.00302076
0.00101181
0.00235265
0.00127682
0.00194323
0.00253672
0.00174399
0.000564654
0.00487563
-0.000226751
0.00160859
-0.00183546
-0.000567043
-0.00218958
-0.00180419
-0.00225893
-0.00193158
-0.00207699
-0.00178111
1.88175e-06
0.00301667
0.00101478
0.0023489
0.00129253
0.00193774
0.00252852
0.00174401
0.000581092
0.00484965
-0.000187575
0.00158235
-0.00181666
-0.000563038
-0.00218301
-0.00179672
-0.00225077
-0.0019243
-0.00207158
-0.00181814
4.40224e-06
0.00301069
0.00101965
0.00234421
0.00130699
0.00193752
0.00251816
0.00174495
0.000592762
0.00481118
-0.000147045
0.00154105
-0.00177258
-0.00056713
-0.0021538
-0.00179435
-0.00222478
-0.00192292
-0.00206385
-0.00187161
7.30909e-06
0.00300394
0.00102529
0.00234215
0.0013198
0.00194426
0.00250298
0.0017452
0.00060512
0.0047561
-0.000103669
0.00149069
-0.0017145
-0.000580219
-0.00210931
-0.00180285
-0.00219417
-0.00193239
-0.00206274
-0.00193915
1.10743e-05
0.00299629
0.00103199
0.0023424
0.00133132
0.00195574
0.00248183
0.00174514
0.000621434
0.00468456
-5.3406e-05
0.00143149
-0.0016473
-0.000601006
-0.00205959
-0.00182026
-0.00216526
-0.00194768
-0.00206718
-0.00200704
1.60227e-05
0.00298766
0.00104001
0.0023438
0.00134159
0.00196963
0.00245554
0.00174483
0.000643105
0.00460099
4.99832e-06
0.00136368
-0.00157364
-0.0006283
-0.00200804
-0.00184172
-0.00213704
-0.00196264
-0.00207558
-0.00206601
2.22202e-05
0.0029781
0.00104934
0.0023456
0.00135074
0.00198445
0.00242595
0.00174406
0.00066988
0.00451072
7.04907e-05
0.00128942
-0.00149548
-0.000659718
-0.00195424
-0.00186414
-0.00210807
-0.00197584
-0.00208857
-0.00211683
2.9557e-05
0.0029678
0.00105984
0.00234753
0.00135906
0.00199946
0.00239506
0.00174248
0.000700879
0.00441759
0.000141407
0.00121096
-0.00141475
-0.00069288
-0.00189883
-0.00188672
-0.00207948
-0.00198859
-0.00210689
-0.00216314
3.78396e-05
0.00295692
0.00107139
0.00234955
0.00136695
0.00201447
0.00236441
0.00173978
0.00073539
0.00432346
0.000216653
0.00112937
-0.00133275
-0.000726738
-0.00184369
-0.00190919
-0.00205365
-0.00200109
-0.00213009
-0.00220691
4.68658e-05
0.00294561
0.00108385
0.00235177
0.00137477
0.00202951
0.00233496
0.00173571
0.000773029
0.00422886
0.000295716
0.00104483
-0.00125002
-0.000761268
-0.00179016
-0.00193085
-0.00203231
-0.00201203
-0.0021573
-0.00224885
5.64693e-05
0.00293395
0.00109709
0.00235434
0.00138286
0.00204461
0.0023072
0.00173016
0.000813582
0.0041337
0.000378313
0.000957256
-0.00116675
-0.000796412
-0.00173874
-0.0019507
-0.00201637
-0.00202047
-0.00218788
-0.00228953
6.65301e-05
0.00292199
0.001111
0.00235729
0.00139145
0.00205971
0.00228143
0.00172299
0.000856891
0.00403766
0.000464173
0.000866616
-0.00108303
-0.000831561
-0.00169001
-0.00196767
-0.0020065
-0.00202661
-0.00222122
-0.00232968
7.69679e-05
0.00290975
0.00112552
0.0023606
0.00140075
0.00207464
0.00225778
0.00171407
0.000902794
0.00394046
0.000552977
0.000773158
-0.000998974
-0.000865746
-0.00164495
-0.00198067
-0.0020034
-0.00203132
-0.00225637
-0.00237
8.77301e-05
0.0028972
0.0011406
0.00236412
0.00141091
0.00208916
0.00223633
0.00170324
0.0009511
0.00384187
0.000644316
0.000677483
-0.000914944
-0.000897752
-0.00160464
-0.00198881
-0.00200746
-0.00203572
-0.00229214
-0.00241088
9.87855e-05
0.00288432
0.0011562
0.0023677
0.00142207
0.00210297
0.0022171
0.00169031
0.00100155
0.00374172
0.000737674
0.000580627
-0.000831624
-0.000926043
-0.00156999
-0.00199142
-0.00201846
-0.00204105
-0.00232744
-0.0024523
0.000110122
0.00287108
0.00117232
0.00237119
0.00143437
0.00211577
0.00220006
0.00167511
0.00105386
0.00363998
0.000832345
0.000484154
-0.000750053
-0.000948859
-0.00154148
-0.00198815
-0.00203533
-0.00204855
-0.00236142
-0.00249381
0.000121746
0.00285745
0.00118897
0.00237444
0.00144798
0.00212721
0.00218516
0.00165744
0.00110766
0.00353688
0.000927398
0.000389935
-0.00067163
-0.000965623
-0.0015191
-0.00197896
-0.00205625
-0.00205913
-0.00239336
-0.00253455
0.000133679
0.00284341
0.00120616
0.00237736
0.00146305
0.00213701
0.00217237
0.00163717
0.00116256
0.00343297
0.00102182
0.000300031
-0.000598088
-0.000969821
-0.0015025
-0.00196416
-0.00207882
-0.00207314
-0.00242262
-0.00257325
0.000145957
0.0028289
0.00122392
0.00237987
0.00147974
0.00214487
0.00216165
0.00161428
0.00121815
0.00332901
0.00111462
0.000216646
-0.000531334
-0.000962974
-0.00149106
-0.00194443
-0.00210044
-0.00209039
-0.00244869
-0.00260832
0.000158623
0.00281389
0.00124231
0.0023819
0.00149821
0.00215055
0.00215298
0.00158883
0.00127404
0.003226
0.00120465
0.00014167
-0.000472906
-0.00094467
-0.00148394
-0.001921
-0.00211879
-0.00211027
-0.00247128
-0.00263816
0.000171724
0.00279834
0.00126139
0.00238341
0.00151864
0.00215385
0.00214634
0.00156099
0.00132982
0.00312514
0.00129064
7.64071e-05
-0.000423815
-0.000915086
-0.00148001
-0.00189566
-0.0021322
-0.00213186
-0.00249042
-0.00266158
0.000185311
0.00278217
0.00128122
0.00238433
0.00154116
0.00215464
0.00214168
0.00153109
0.00138492
0.00302777
0.00137151
2.16649e-05
-0.000384752
-0.000875263
-0.00147789
-0.00187039
-0.00213989
-0.00215423
-0.00250653
-0.00267812
0.000199435
0.00276534
0.00130187
0.00238462
0.00156593
0.00215281
0.00213888
0.00149959
0.00143864
0.00293521
0.00144631
-2.21128e-05
-0.000356016
-0.000826852
-0.00147605
-0.00184712
-0.00214211
-0.00217671
-0.00252019
-0.00268777
0.000214147
0.00274776
0.00132342
0.00238422
0.00159349
0.00214831
0.00213775
0.00146714
0.00149011
0.00284882
0.00151416
-5.47676e-05
-0.000337816
-0.000771462
-0.00147239
-0.00182745
-0.00213998
-0.00219891
-0.00253195
-0.00269088
0.000229504
0.00272937
0.00134594
0.00238305
0.00162307
0.00214115
0.002138
0.00143453
0.00153829
0.00276984
0.00157442
-7.6483e-05
-0.000330204
-0.000692644
-0.00146457
-0.00181239
-0.00213498
-0.00222052
-0.00254235
-0.00268812
0.000245565
0.00271007
0.00136952
0.00238106
0.00165498
0.00213139
0.0021392
0.0014027
0.0015821
0.00269907
0.00162665
-8.77841e-05
-0.000332595
-0.000628069
-0.0014512
-0.00180243
-0.00212825
-0.00224112
-0.002552
-0.00268025
0.000262393
0.00268976
0.0013942
0.00237819
0.00168936
0.00211914
0.00214081
0.00137274
0.0016206
0.00263686
0.00167062
-8.93515e-05
-0.000343593
-0.000566194
-0.00143223
-0.00179739
-0.00212045
-0.00226004
-0.00256138
-0.00266793
0.000280056
0.00266834
0.00142007
0.0023744
0.00172623
0.00210464
0.00214212
0.00134582
0.00165309
0.00258336
0.00170642
-8.23434e-05
-0.000363567
-0.000507904
-0.00140806
-0.00179679
-0.00211235
-0.00227645
-0.00257034
-0.00265173
0.000298628
0.0026457
0.00144717
0.00236967
0.00176548
0.0020883
0.00214229
0.00132304
0.00167901
0.00253865
0.00173463
-6.83907e-05
-0.000385195
-0.000453659
-0.00137893
-0.00180017
-0.0021049
-0.00228936
-0.00257816
-0.00263215
0.000318191
0.00262173
0.00147555
0.00236404
0.00180688
0.00207066
0.00214034
0.00130529
0.00169822
0.00250231
0.00175606
-4.90956e-05
-0.000402031
-0.000404559
-0.0013453
-0.00180743
-0.002099
-0.00229715
-0.00258353
-0.00260959
0.00033883
0.0025963
0.00150523
0.00235756
0.00185023
0.00205239
0.00213521
0.00129322
0.0017108
0.00247354
0.00177211
-2.6546e-05
-0.000418083
-0.000360312
-0.00130735
-0.00181849
-0.00209589
-0.00229821
-0.00258427
-0.00258405
0.000360638
0.0025693
0.0015362
0.00235029
0.00189526
0.00203437
0.00212601
0.00128716
0.00171702
0.00245136
0.00178486
-2.5691e-06
-0.000433309
-0.000320419
-0.00126491
-0.00183252
-0.0020972
-0.00229216
-0.00257788
-0.00255493
0.000383711
0.00254061
0.00156843
0.00234239
0.00194152
0.00201759
0.00211205
0.00128708
0.00171764
0.00243423
0.00179641
2.18679e-05
-0.000448517
-0.00028475
-0.00121755
-0.00184767
-0.00210401
-0.00228001
-0.00256223
-0.00252113
0.000408154
0.00251003
0.00160186
0.00233408
0.0019884
0.00200298
0.00209274
0.00129271
0.00171389
0.00242026
0.00180863
4.58925e-05
-0.000464939
-0.000253464
-0.00116435
-0.00186145
-0.00211643
-0.00226351
-0.0025359
-0.00248119
0.000434065
0.00247759
0.00163639
0.00232566
0.00203525
0.00199148
0.00206768
0.00130343
0.00170738
0.00240747
0.00182274
6.97701e-05
-0.000483511
-0.000227274
-0.00110497
-0.00187062
-0.00213366
-0.0022446
-0.00249797
-0.00243348
0.000461545
0.00244326
0.00167184
0.00231746
0.00208137
0.00198388
0.00203688
0.0013183
0.0016999
0.00239349
0.00183943
9.52809e-05
-0.000504596
-0.000208166
-0.00104059
-0.00187133
-0.00215378
-0.0022253
-0.00244818
-0.00237648
0.000490703
0.00240696
0.00170794
0.00230997
0.00212611
0.00198067
0.00200063
0.00133603
0.00169384
0.00237643
0.00185831
0.000124825
-0.000527688
-0.000198623
-0.000973466
-0.00186059
-0.00217357
-0.00220688
-0.00238751
-0.00230965
0.000521648
0.00236872
0.0017443
0.00230372
0.00216888
0.00198217
0.0019595
0.00135503
0.00169177
0.00235579
0.00187705
0.000160022
-0.000550666
-0.000199056
-0.0009067
-0.00183816
-0.00218959
-0.00218907
-0.00231727
-0.00223336
0.000554469
0.00232864
0.00178049
0.00229934
0.00220902
0.00198843
0.00191468
0.00137331
0.00169542
0.00233191
0.00189309
0.000201217
-0.000570798
-0.000208867
-0.000842851
-0.00180537
-0.00219973
-0.00217119
-0.00223849
-0.00214736
0.000589266
0.00228683
0.00181596
0.00229741
0.00224613
0.00199931
0.00186767
0.00138864
0.00170552
0.00230604
0.00190449
0.000248293
-0.000585984
-0.00022615
-0.000782782
-0.00176358
-0.00220274
-0.00215412
-0.00215295
-0.00205076
0.00062613
0.00224355
0.00185001
0.0022984
0.00228011
0.0020142
0.0018202
0.0013991
0.00172194
0.00228112
0.00190979
0.000298823
-0.000594434
-0.000247448
-0.000726945
-0.00171418
-0.00219791
-0.00213958
-0.00206433
-0.00194312
0.000665137
0.00219903
0.0018819
0.00230283
0.00231102
0.00203205
0.00177446
0.00140325
0.00174321
0.0022609
0.00190848
0.000348675
-0.000595094
-0.000269002
-0.000674178
-0.00165799
-0.00218517
-0.00212845
-0.00197823
-0.00182506
0.000706362
0.0021536
0.00191083
0.00231112
0.00233917
0.00205174
0.00173254
0.0014006
0.00176682
0.00224797
0.00190117
0.000395149
-0.000588364
-0.000289263
-0.000620997
-0.00159465
-0.00216415
-0.00212068
-0.00189999
-0.00169956
0.00074985
0.0021076
0.00193594
0.00232348
0.00236526
0.00207209
0.00169597
0.00139184
0.00178983
0.00224297
0.00189052
0.000436761
-0.000576848
-0.000308182
-0.000564063
-0.00152211
-0.00213307
-0.00211552
-0.00183331
-0.00157236
0.000795606
0.00206141
0.00195647
0.0023402
0.00238994
0.00209173
0.00166587
0.0013783
0.00180921
0.00224539
0.00188052
0.000472449
-0.000563121
-0.000323953
-0.000502305
-0.00143774
-0.00209026
-0.00210976
-0.00178116
-0.00144998
0.000843627
0.00201546
0.00197172
0.00236128
0.00241413
0.00210901
0.0016424
0.00136196
0.00182276
0.00225426
0.00187453
0.000502456
-0.000548935
-0.000337709
-0.000436762
-0.00134015
-0.00203325
-0.00209691
-0.00174491
-0.001339
0.000893897
0.00197021
0.00198112
0.00238636
0.00243859
0.00212281
0.00162518
0.00134533
0.00182976
0.00226664
0.00187421
0.000530286
-0.000535683
-0.000353493
-0.000368355
-0.00122809
-0.00195971
-0.00207096
-0.00172075
-0.00124418
0.000946341
0.00192615
0.00198418
0.00241496
0.0024439
0.00213257
0.00161344
0.00133079
0.00183022
0.00227857
0.00187984
0.000560803
-0.000523217
-0.000373939
-0.000299356
-0.00109978
-0.00186852
-0.00203091
-0.00169953
-0.00116468
0.00100085
0.00188384
0.00198053
0.00244644
0.00247074
0.00213813
0.00160547
0.00132034
0.00182471
0.00228738
0.00189089
0.00059688
-0.000509028
-0.000399757
-0.000234948
-0.000954858
-0.00175831
-0.00197684
-0.00167264
-0.00109533
0.00105727
0.00184385
0.00197005
0.00247958
0.00250452
0.00214019
0.00159891
0.00131497
0.00181532
0.00229153
0.00190444
0.000640372
-0.00048676
-0.000429237
-0.000182503
-0.000799391
-0.00162717
-0.0019047
-0.00163439
-0.00102997
0.00111534
0.00180676
0.00195294
0.0025129
0.00254471
0.00213994
0.00159141
0.00131481
0.001805
0.00229078
0.00191672
0.000691446
-0.000450225
-0.000460316
-0.00014886
-0.000643717
-0.00147352
-0.00181033
-0.00157965
-0.000961966
0.00117476
0.0017731
0.00192956
0.00254477
0.00259263
0.00213911
0.00158047
0.00131978
0.00179665
0.00228504
0.00192518
0.000747804
-0.000396334
-0.000486608
-0.000134836
-0.000498282
-0.00130153
-0.00169312
-0.00150075
-0.000884044
0.0012352
0.00174344
0.0019005
0.00257348
0.00264819
0.00213993
0.00156424
0.00132885
0.00179221
0.00227572
0.00192914
0.000804451
-0.000325547
-0.000494287
-0.00013336
-0.000373461
-0.0011205
-0.00155356
-0.0013946
-0.000790436
0.00129628
0.00171838
0.00186655
0.0025974
0.00271233
0.00214485
0.00154208
0.00133957
0.0017933
0.0022659
0.00192909
0.000855098
-0.000241236
-0.00047176
-0.000135643
-0.000273097
-0.000941081
-0.00139401
-0.00126671
-0.000680666
0.0013576
0.00169846
0.00182854
0.00261493
0.00278135
0.00215687
0.00151408
0.00134841
0.00180171
0.00225807
0.00192599
0.000895573
-9.76851e-05
-0.000412356
-0.000125701
-0.00019045
-0.000772753
-0.00122065
-0.00112051
-0.000557605
0.00141877
0.0016842
0.00178745
0.00262472
0.00285442
0.0021785
0.00148118
0.00135156
0.00181794
0.00225446
0.00192297
0.000923164
1.1166e-05
-0.000321878
-8.80706e-05
-0.000116782
-0.00062005
-0.00104555
-0.000966849
-0.000426868
0.00147938
0.00167601
0.00174438
0.00262561
0.0029305
0.00221134
0.00144576
0.00134519
0.00184094
0.00225819
0.00192268
0.000940007
9.4582e-05
-0.000202965
-9.56218e-06
-3.22298e-05
-0.000478999
-0.000884051
-0.000823708
-0.000298286
0.00153906
0.00167419
0.00170063
0.00261662
0.00300795
0.00225667
0.0014113
0.0013262
0.00186775
0.00227313
0.00192666
0.000952481
0.000153994
-7.58375e-05
0.00010954
8.47122e-05
-0.000343217
-0.000743732
-0.0007079
-0.000184152
0.00159738
0.00167891
0.00165759
0.00259715
0.00308471
0.00231503
0.00138179
0.00129343
0.00189347
0.00230313
0.00193684
0.000966372
0.00019704
3.44153e-05
0.000260126
0.000246658
-0.000196394
-0.000616526
-0.000621688
-9.3825e-05
0.00165397
0.00169023
0.00161654
0.00256689
0.00315863
0.00238621
0.00136144
0.00124775
0.00191137
0.0023506
0.00195687
0.000983998
0.000223041
0.000121759
0.000420632
0.000446566
-1.80396e-05
-0.000492476
-0.000552435
-2.75892e-05
0.00170851
0.00170805
0.00157885
0.00252617
0.00322724
0.00246944
0.001354
0.00119231
0.00191336
0.00241407
0.00199321
0.00100658
0.000245693
0.000189908
0.000566486
0.00067204
0.000203205
-0.000349783
-0.000489222
2.21834e-05
0.00176069
0.00173201
0.00154607
0.00247577
0.00328789
0.00256348
0.00136219
0.00113233
0.00189329
0.00248806
0.00205425
0.00103567
0.000274457
0.000242799
0.000686965
0.00089561
0.000457714
-0.000163739
-0.000402593
7.0327e-05
0.00181023
0.00176163
0.00151943
0.00241686
0.00333803
0.00266685
0.00138785
0.00107362
0.0018491
0.00256333
0.00214647
0.00107601
0.000304714
0.00028531
0.000785274
0.00109617
0.00073243
7.66375e-05
-0.000257285
0.000139413
0.00185695
0.00179631
0.00150076
0.00235111
0.00337519
0.00277746
0.00143201
0.00102193
0.00178178
0.00262812
0.0022707
0.00113703
0.000332376
0.00031968
0.000867643
0.00127063
0.00100723
0.000358303
-4.24187e-05
0.000250989
0.00190067
0.00183535
0.00149106
0.00228035
0.00339697
0.00289285
0.00149476
0.000982891
0.00169598
0.0026702
0.00242193
0.00123065
0.000364074
0.000337514
0.000935158
0.00142992
0.00127189
0.000667861
0.000223282
0.000409336
0.00194137
0.00187793
0.00149134
0.00220693
0.0034013
0.0030106
0.00157586
0.00096072
0.00159931
0.00267949
0.00259024
0.00136463
0.000406416
0.000335173
0.000979902
0.00158221
0.00153266
0.000991577
0.000522858
0.000605094
0.001979
0.00192328
0.00150246
0.00213343
0.00338688
0.00312751
0.00167477
0.000957231
0.00150131
0.00264999
0.00276314
0.00154266
0.000471145
0.000322909
0.000988602
0.00172346
0.00180094
0.00132617
0.000839747
0.000822868
0.0020136
0.00197096
0.00152499
0.00206245
0.0033531
0.0032383
0.00179067
0.000972922
0.00141165
0.00258094
0.00293061
0.00176515
0.000572063
0.00031718
0.000960849
0.00183219
0.0020747
0.00168012
0.00116724
0.00104907
0.0020454
0.00201916
0.00155909
0.00199592
0.00329974
0.00333999
0.00192283
0.00100754
0.00133837
0.00247891
0.00306472
0.00202558
0.00071805
0.000335673
0.000910007
0.00189053
0.00233423
0.00205822
0.00152109
0.00128417
0.00207476
0.00206687
0.00160447
0.00193734
0.00322828
0.00342911
0.00206984
0.00106078
0.00128645
0.00235712
0.00314842
0.00231332
0.000916787
0.000392961
0.000856706
0.00189598
0.00255281
0.00244361
0.00191558
0.00154355
0.0021021
0.00211346
0.00165987
0.00188877
0.00314178
0.00350132
0.00222925
0.00113292
0.00125756
0.00223149
0.00317318
0.00260198
0.00117385
0.000497614
0.000822433
0.00185871
0.00270888
0.00280335
0.00234015
0.00184118
0.0021278
0.00215838
0.00172412
0.00185212
0.00304427
0.00355251
0.00239724
0.00122513
0.00125118
0.00211746
0.00314007
0.00286414
0.00148228
0.000655308
0.000826273
0.00179742
0.00279326
0.00310403
0.00276102
0.00217207
0.00215237
0.00220092
0.00179439
0.00182905
0.00294093
0.00358006
0.0025678
0.00133858
0.00126515
0.00202647
0.003061
0.00307657
0.00183004
0.000868736
0.00087963
0.00173149
0.00280849
0.00332168
0.00313498
0.00251293
0.00217636
0.00224065
0.00186934
0.00182078
0.00283547
0.00358246
0.00273496
0.00147471
0.00129689
0.00196214
0.00295039
0.00322373
0.00218987
0.0011354
0.000987236
0.00168312
0.00276842
0.00344435
0.00342576
0.00283297
0.00220019
0.00227741
0.00194669
0.00182814
0.00273543
0.00355877
0.00289071
0.00163452
0.00134586
0.00192338
0.00283413
0.0033012
0.00253304
0.00145276
0.00114995
0.00167181
0.00269316
0.00347463
0.00361366
0.00310527
0.00222433
0.00231119
0.0020243
0.00185086
0.00264411
0.00351056
0.00302927
0.00181543
0.00141421
0.00190772
0.0027349
0.00331863
0.0028319
0.00180525
0.00136368
0.00170675
0.00260654
0.00343134
0.00370024
0.00331441
0.00224917
0.00234203
0.00210031
0.00188817
0.00256502
0.00344266
0.00314555
0.00201095
0.00150451
0.00191154
0.00266396
0.0032918
0.00306678
0.00216673
0.00162256
0.00179202
0.00253251
0.00333891
0.00370528
0.00345914
0.00227493
0.00237026
0.0021733
0.0019384
0.00250059
0.00336155
0.00323627
0.00221285
0.00161925
0.00193238
0.00262054
0.00324331
0.00323205
0.00251019
0.00191564
0.0019271
0.00249044
0.00322623
0.00365401
0.00354864
0.00230174
0.00239643
0.00224213
0.00199913
0.00245271
0.00327392
0.00329945
0.00241262
0.00175946
0.00197058
0.00260014
0.00319541
0.00333643
0.00281191
0.00222376
0.00210498
0.00249375
0.00312289
0.00357341
0.00359674
0.00232965
0.00242106
0.00230598
0.00206765
0.00242214
0.00318618
0.00333561
0.00260035
0.00192195
0.00202802
0.00259836
0.00316094
0.00339474
0.00305712
0.00252645
0.0023172
0.00254885
0.003054
0.00349255
0.00362019
0.00235861
0.00244462
0.00236444
0.00214117
0.0024089
0.003104
0.00334777
0.00276981
0.00212228
0.00212208
0.00261316
0.00314252
0.00342448
0.00324465
0.00280621
0.00255083
0.002654
0.00303473
0.00343555
0.00363581
0.00238843
0.00246753
0.0024175
0.00221728
0.00241225
0.00303167
0.00334068
0.00291455
0.00231164
0.00222819
0.00264257
0.0031386
0.00344241
0.00338395
0.003051
0.00278999
0.00280019
0.00306991
0.00341794
0.00365834
0.0024189
0.00248188
0.00246537
0.0022929
0.00243052
0.00297242
0.00332045
0.00303352
0.00250036
0.00235575
0.00268816
0.00314744
0.00345924
0.00348703
0.00325672
0.00302151
0.00297607
0.00315531
0.00344529
0.00369794
0.00245003
0.00250655
0.00250869
0.00236694
0.00246163
0.00292812
0.0032931
0.003128
0.00267991
0.00249973
0.00275162
0.00316829
0.00347981
0.00356635
0.00342678
0.00323659
0.00316751
0.0032796
0.0035139
0.00375857
0.00248155
0.00253189
0.00254806
0.00243807
0.00250287
0.00289941
0.00326405
0.00320045
0.0028443
0.00265356
0.00283335
0.00320161
0.00350641
0.00363262
0.00356832
0.00343077
0.00336195
0.00343031
0.00361494
0.00383925
0.00251318
0.00255783
0.00258438
0.00250525
0.00255136
0.00288583
0.00323778
0.00325468
0.00299026
0.00281018
0.0029316
0.00324826
0.00354032
0.00369302
0.00368835
0.0036033
0.00354998
0.00359488
0.00373976
0.00393692
0.00254464
0.0025844
0.0026184
0.00256789
0.00260471
0.00288657
0.00321767
0.00329531
0.00311685
0.00296305
0.00304238
0.00330836
0.00358253
0.00375189
0.00379308
0.00375602
0.00372603
0.00376227
0.00387823
0.00404685
0.00257565
0.00261151
0.00265067
0.00262569
0.0026612
0.0028999
0.00320577
0.0033268
0.00322491
0.00310714
0.00316069
0.00338104
0.0036335
0.00381185
0.00388746
0.00389148
0.00388714
0.00392413
0.00402068
0.00416348
0.00260598
0.00263897
0.00268165
0.00267875
0.00271815
0.00292305
0.00320279
0.00335294
0.00331631
0.0032392
0.00328138
0.00346426
0.00369305
0.00387411
0.00397473
0.00401226
0.00403244
0.00407544
0.00416015
0.00428176
0.0026354
0.00266651
0.00271163
0.0027274
0.00277385
0.00295358
0.00320851
0.00337671
0.00339357
0.00335773
0.00339981
0.0035546
0.0037602
0.00393905
0.00405679
0.00412064
0.00416254
0.00421394
0.00429228
0.00439766
0.00266371
0.00269369
0.00274071
0.00277197
0.00282727
0.00298909
0.00322195
0.00340016
0.00345938
0.00346252
0.00351236
0.00364826
0.00383313
0.00400647
0.0041349
0.00421845
0.00427851
0.00433895
0.0044147
0.00450842
0.00269068
0.00271992
0.00276884
0.00281276
0.00287758
0.00302741
0.00324166
0.00342445
0.00351625
0.00355421
0.0036165
0.00374142
0.0039092
0.00407527
0.00420959
0.0043073
0.0043818
0.00445067
0.00452621
0.00461212
0.00271613
0.00274549
0.00279585
0.00284997
0.00292416
0.00306667
0.00326604
0.00344999
0.00356612
0.00363382
0.00371059
0.00383084
0.00398583
0.00414407
0.00428062
0.00438808
0.00447378
0.00455002
0.00462658
0.0047075
0.00273984
0.00276973
0.00282146
0.0028837
0.00296655
0.00310518
0.00329328
0.00347646
0.0036102
0.00370242
0.0037939
0.00391383
0.00406025
0.00421138
0.00434761
0.00446105
0.00455496
0.00463756
0.00471608
0.00479421
0.00276154
0.00279221
0.00284526
0.00291387
0.00300441
0.00314158
0.00332154
0.00350304
0.00364917
0.00376088
0.0038662
0.0039884
0.00412936
0.00427494
0.00440989
0.00452671
0.00462614
0.0047135
0.00479417
0.00487123
0.00278098
0.0028125
0.00286672
0.00294023
0.00303739
0.00317478
0.00334903
0.0035286
0.00368335
0.00381002
0.00392737
0.00405332
0.00419107
0.00433209
0.00446548
0.00458451
0.00468804
0.00477888
0.00486118
0.00493778
0.00279787
0.00283022
0.00288534
0.0029625
0.003065
0.00320351
0.00337405
0.00355182
0.00371241
0.00385031
0.00397767
0.00410792
0.00424448
0.00438183
0.00451256
0.00463186
0.00473875
0.00483388
0.00491847
0.00499421
0.00281185
0.00284497
0.00290057
0.0029803
0.00308695
0.00322674
0.00339487
0.00357124
0.00373534
0.00388119
0.00401648
0.00415096
0.00428811
0.00442441
0.00455342
0.00467032
0.00477398
0.00486686
0.00495208
0.00503174
0.00282242
0.0028565
0.00291219
0.00299383
0.00310389
0.00324504
0.00341161
0.00358658
0.00375273
0.00390388
0.0040448
0.00418227
0.00431905
0.00445378
0.00458269
0.0047023
0.00481081
0.00490794
0.00499433
0.00507109
0.00282998
0.00286397
0.00291781
0.00299969
0.0031114
0.00325328
0.00341883
0.00359243
0.00375855
0.00391195
0.00405655
0.00419741
0.00433583
0.00447009
0.00459677
0.00471312
0.00481824
0.00491301
0.00499925
0.00507836
-0.00185909
-0.00793711
-0.0099224
-0.00765274
-0.00498389
-0.00271983
-0.000916599
0.000448524
0.00166304
0.0029019
0.00408398
0.00516578
0.00624408
0.00733479
0.00845194
0.00966054
0.0109089
0.0121568
0.0134697
0.0148362
0.0161886
0.0175502
0.0189703
0.0204369
0.0219302
0.0234594
0.025036
0.0266598
0.0283309
0.030053
0.0318313
0.033669
0.035571
0.0375393
0.0395796
0.0416924
0.0438843
0.0461553
0.048511
0.0509546
0.0534862
0.0561167
0.0588398
0.0616669
0.0646068
0.0676363
0.0708173
0.0740902
0.0773529
0.0808931
-0.00186006
-0.00786868
-0.00987973
-0.00763581
-0.00497439
-0.00271357
-0.000912026
0.000452064
0.00166582
0.00290413
0.00408584
0.0051673
0.00624527
0.0073357
0.0084526
0.00966101
0.0109092
0.012157
0.0134698
0.0148363
0.0161886
0.0175503
0.0189703
0.0204369
0.0219302
0.0234594
0.025036
0.0266598
0.0283309
0.030053
0.0318313
0.033669
0.035571
0.0375393
0.0395796
0.0416924
0.0438843
0.0461553
0.048511
0.0509546
0.0534862
0.0561167
0.0588398
0.0616669
0.0646068
0.0676363
0.0708173
0.0740902
0.0773529
0.0808931
-0.00193508
-0.00777194
-0.00980989
-0.00761366
-0.00496378
-0.00270662
-0.000907204
0.0004556
0.00166852
0.00290629
0.00408764
0.00516877
0.00624644
0.0073366
0.00845325
0.00966148
0.0109096
0.0121573
0.01347
0.0148364
0.0161887
0.0175503
0.0189703
0.0204369
0.0219302
0.0234594
0.025036
0.0266598
0.0283309
0.030053
0.0318313
0.033669
0.035571
0.0375393
0.0395796
0.0416924
0.0438843
0.0461553
0.048511
0.0509546
0.0534862
0.0561167
0.0588398
0.0616669
0.0646068
0.0676363
0.0708173
0.0740902
0.0773529
0.0808931
-0.00201203
-0.00764086
-0.00970382
-0.00758004
-0.00494929
-0.00269724
-0.000900999
0.00045994
0.00167177
0.00290883
0.00408972
0.00517052
0.00624788
0.00733774
0.0084541
0.0096621
0.0109101
0.0121576
0.0134702
0.0148365
0.0161888
0.0175504
0.0189703
0.020437
0.0219302
0.0234594
0.025036
0.0266598
0.0283309
0.030053
0.0318313
0.033669
0.035571
0.0375393
0.0395796
0.0416924
0.0438843
0.0461553
0.048511
0.0509546
0.0534862
0.0561167
0.0588398
0.0616669
0.0646068
0.0676363
0.0708173
0.0740902
0.077353
0.0808932
-0.0020696
-0.00748168
-0.00956802
-0.00753475
-0.00492983
-0.00268432
-0.000892513
0.000465787
0.00167615
0.00291217
0.00409242
0.00517285
0.00624991
0.00733943
0.0084554
0.00966306
0.0109108
0.0121581
0.0134706
0.0148368
0.016189
0.0175505
0.0189704
0.020437
0.0219302
0.0234594
0.025036
0.0266598
0.0283309
0.030053
0.0318313
0.033669
0.035571
0.0375393
0.0395796
0.0416924
0.0438843
0.0461553
0.048511
0.0509546
0.0534862
0.0561167
0.0588398
0.0616669
0.0646068
0.0676363
0.0708173
0.0740902
0.077353
0.0808933
-0.00211732
-0.00730877
-0.009416
-0.00748219
-0.00490656
-0.00266801
-0.000881548
0.000473427
0.00168196
0.00291661
0.00409599
0.00517601
0.00625279
0.00734193
0.00845739
0.00966457
0.0109119
0.012159
0.0134712
0.0148372
0.0161892
0.0175507
0.0189705
0.0204371
0.0219303
0.0234595
0.025036
0.0266598
0.0283309
0.030053
0.0318313
0.033669
0.035571
0.0375393
0.0395796
0.0416924
0.0438843
0.0461553
0.048511
0.0509546
0.0534862
0.0561167
0.0588398
0.0616669
0.0646068
0.0676363
0.0708173
0.0740903
0.0773531
0.0808935
-0.00216508
-0.0071303
-0.00925491
-0.00742558
-0.00488107
-0.0026492
-0.000868463
0.000482756
0.00168921
0.00292222
0.00410056
0.00518017
0.0062567
0.00734544
0.00846028
0.00966679
0.0109136
0.0121603
0.0134721
0.0148378
0.0161897
0.017551
0.0189707
0.0204372
0.0219303
0.0234595
0.0250361
0.0266598
0.0283309
0.030053
0.0318313
0.033669
0.035571
0.0375393
0.0395796
0.0416924
0.0438843
0.0461553
0.048511
0.0509546
0.0534862
0.0561167
0.0588398
0.0616669
0.0646068
0.0676363
0.0708173
0.0740903
0.0773532
0.0808937
-0.00221489
-0.006948
-0.00908665
-0.00736607
-0.00485432
-0.00262872
-0.000853788
0.000493418
0.00169766
0.00292889
0.00410613
0.00518537
0.0062617
0.00735004
0.00846419
0.00966986
0.010916
0.0121621
0.0134735
0.0148388
0.0161903
0.0175515
0.0189711
0.0204374
0.0219305
0.0234596
0.0250361
0.0266598
0.0283309
0.030053
0.0318314
0.033669
0.035571
0.0375393
0.0395796
0.0416924
0.0438843
0.0461553
0.048511
0.0509546
0.0534862
0.0561167
0.0588398
0.0616669
0.0646068
0.0676363
0.0708173
0.0740903
0.0773534
0.0808939
-0.00226502
-0.00676155
-0.00891133
-0.00730384
-0.00482675
-0.00260706
-0.00083793
0.000505053
0.00170696
0.00293635
0.00411255
0.00519153
0.00626771
0.00735565
0.00846905
0.00967376
0.0109191
0.0121646
0.0134754
0.0148401
0.0161912
0.0175521
0.0189716
0.0204378
0.0219307
0.0234597
0.0250362
0.0266598
0.0283309
0.030053
0.0318314
0.033669
0.035571
0.0375393
0.0395796
0.0416924
0.0438843
0.0461553
0.048511
0.0509546
0.0534862
0.0561167
0.0588398
0.0616669
0.0646068
0.0676363
0.0708173
0.0740903
0.0773535
0.0808942
-0.00231405
-0.0065711
-0.00872877
-0.00723874
-0.00479852
-0.00258445
-0.000821109
0.000517408
0.00171685
0.00294436
0.00411961
0.00519848
0.00627457
0.00736211
0.00847473
0.00967839
0.0109228
0.0121676
0.0134778
0.0148417
0.0161923
0.017553
0.0189723
0.0204382
0.021931
0.0234599
0.0250363
0.0266599
0.0283309
0.030053
0.0318314
0.033669
0.0355711
0.0375393
0.0395796
0.0416924
0.0438843
0.0461553
0.048511
0.0509546
0.0534862
0.0561167
0.0588398
0.0616669
0.0646068
0.0676363
0.0708173
0.0740903
0.0773537
0.0808945
-0.00236164
-0.00637717
-0.00853869
-0.00717045
-0.0047697
-0.00256097
-0.000803426
0.000530334
0.00172718
0.00295278
0.00412714
0.00520605
0.0062821
0.00736921
0.00848103
0.00968361
0.010927
0.0121711
0.0134805
0.0148437
0.0161937
0.0175541
0.0189731
0.0204388
0.0219313
0.0234601
0.0250364
0.02666
0.028331
0.030053
0.0318314
0.033669
0.0355711
0.0375393
0.0395796
0.0416924
0.0438843
0.0461553
0.048511
0.0509546
0.0534862
0.0561167
0.0588398
0.0616669
0.0646068
0.0676363
0.0708173
0.0740902
0.0773539
0.0808948
-0.00240787
-0.00618017
-0.00834072
-0.00709863
-0.00474034
-0.0025367
-0.000784914
0.000543744
0.00173787
0.00296154
0.00413503
0.00521408
0.00629013
0.00737679
0.00848778
0.00968925
0.0109316
0.012175
0.0134836
0.0148459
0.0161953
0.0175554
0.0189741
0.0204395
0.0219318
0.0234604
0.0250366
0.0266601
0.028331
0.030053
0.0318314
0.033669
0.0355711
0.0375393
0.0395796
0.0416924
0.0438843
0.0461553
0.048511
0.0509546
0.0534862
0.0561167
0.0588398
0.0616669
0.0646068
0.0676363
0.0708173
0.0740902
0.0773541
0.0808952
-0.00245277
-0.00598048
-0.00813467
-0.00702301
-0.00471052
-0.00251172
-0.000765574
0.000557601
0.00174888
0.00297064
0.00414324
0.00522246
0.00629857
0.00738474
0.00849487
0.0096952
0.0109365
0.0121792
0.013487
0.0148484
0.0161971
0.0175568
0.0189752
0.0204403
0.0219323
0.0234608
0.0250368
0.0266602
0.0283311
0.030053