/*--------------------------------*- C++ -*----------------------------------*\
| =========                 |                                                 |
| \\      /  F ield         | OpenFOAM: The Open Source CFD Toolbox           |
|  \\    /   O peration     | Version:  v2012                                 |
|   \\  /    A nd           | Website:  www.openfoam.com                      |
|    \\/     M anipulation  |                                                 |
\*---------------------------------------------------------------------------*/
FoamFile
{
    version     2.0;
    format      ascii;
    class       volVectorField;
    location    "0.2";
    object      U;
}
// * * * * * * * * * * * * * * * * * * * * * * * * * * * * * * * * * * * * * //

dimensions      [0 1 -1 0 0 0 0];


internalField   nonuniform List<vector> 
7000
(
(0.875988 -0.00523356 0)
(1.14803 0.00107755 0)
(0.862428 0.00362714 0)
(1.15731 0.0090857 0)
(0.836433 -0.00049376 0)
(1.18972 -0.00228508 0)
(0.800929 -0.0170268 0)
(1.10791 -0.0221122 0)
(0.896353 -0.0218374 0)
(1.17991 -0.0235055 0)
(0.78034 0.000185142 0)
(1.20459 -0.00705243 0)
(0.729688 0.0056187 0)
(1.21237 0.00805625 0)
(0.764922 0.0105826 0)
(1.19457 0.0175034 0)
(0.817067 0.0146523 0)
(1.16964 0.0207387 0)
(0.858706 0.0157676 0)
(1.14376 0.0209107 0)
(0.885028 -0.00539654 0)
(1.14115 0.00125832 0)
(0.874263 0.00344757 0)
(1.14578 0.00936505 0)
(0.86466 -0.000980748 0)
(1.16144 -0.00174637 0)
(0.847852 -0.0165235 0)
(1.08038 -0.0227662 0)
(0.914126 -0.0231887 0)
(1.15985 -0.0215507 0)
(0.796627 -0.000585005 0)
(1.18382 -0.00564609 0)
(0.747137 0.00518832 0)
(1.18607 0.007927 0)
(0.793457 0.0106032 0)
(1.15549 0.0166847 0)
(0.867444 0.0152068 0)
(1.10831 0.0193336 0)
(0.935797 0.0171179 0)
(1.05515 0.0190072 0)
(0.900673 -0.0055713 0)
(1.12618 0.00143521 0)
(0.897895 0.00327345 0)
(1.12401 0.0095953 0)
(0.903845 -0.0012515 0)
(1.12319 -0.00136696 0)
(0.895022 -0.0161187 0)
(1.04605 -0.0231262 0)
(0.938462 -0.0241344 0)
(1.12617 -0.0199095 0)
(0.833668 -0.00137955 0)
(1.14482 -0.00435713 0)
(0.795721 0.00452547 0)
(1.13231 0.00751425 0)
(0.856103 0.0108207 0)
(1.08786 0.0151905 0)
(0.935171 0.0161399 0)
(1.04044 0.017509 0)
(0.988709 0.0183781 0)
(1.00896 0.0176182 0)
(0.920466 -0.00572436 0)
(1.10401 0.00153068 0)
(0.927914 0.00318445 0)
(1.09734 0.00966815 0)
(0.941093 -0.00132976 0)
(1.0839 -0.00116348 0)
(0.934979 -0.0156277 0)
(1.01276 -0.0233859 0)
(0.962577 -0.0249951 0)
(1.08335 -0.0186912 0)
(0.883697 -0.00182318 0)
(1.09422 -0.00356947 0)
(0.861846 0.00436845 0)
(1.06934 0.00666237 0)
(0.921228 0.0114125 0)
(1.02907 0.0136281 0)
(0.979233 0.0169413 0)
(1.00432 0.0163048 0)
(1.00609 0.0189894 0)
(0.997169 0.0171929 0)
(0.941567 -0.0058505 0)
(1.07772 0.00154172 0)
(0.957289 0.00315182 0)
(1.07105 0.00965902 0)
(0.970192 -0.00128319 0)
(1.04985 -0.00103798 0)
(0.963218 -0.0150957 0)
(0.988176 -0.023604 0)
(0.979302 -0.0256502 0)
(1.04156 -0.0179186 0)
(0.930759 -0.00195973 0)
(1.04704 -0.0032492 0)
(0.920488 0.00474103 0)
(1.02205 0.0056422 0)
(0.965167 0.0120907 0)
(1.00049 0.0125002 0)
(0.997902 0.0173429 0)
(0.996706 0.0157468 0)
(1.00901 0.0191176 0)
(0.999796 0.017183 0)
(0.961239 -0.00594122 0)
(1.05134 0.00148897 0)
(0.980786 0.0031393 0)
(1.04864 0.00963008 0)
(0.989439 -0.00115289 0)
(1.02496 -0.000946605 0)
(0.97988 -0.0145888 0)
(0.975606 -0.023765 0)
(0.986078 -0.0260572 0)
(1.01002 -0.0175636 0)
(0.962856 -0.00191793 0)
(1.01517 -0.00320045 0)
(0.958198 0.00524032 0)
(0.999165 0.00478891 0)
(0.986712 0.0125199 0)
(0.995433 0.0117995 0)
(1.00413 0.0174037 0)
(1.0011 0.0154237 0)
(1.01007 0.0190403 0)
(1.00603 0.0172015 0)
(0.977508 -0.0059917 0)
(1.02827 0.0014002 0)
(0.996288 0.00312375 0)
(1.03158 0.009605 0)
(1.00023 -0.000983898 0)
(1.0098 -0.00086662 0)
(0.988367 -0.0141518 0)
(0.972947 -0.0238437 0)
(0.985525 -0.0262433 0)
(0.991314 -0.0175297 0)
(0.978245 -0.00184517 0)
(1.00008 -0.00328728 0)
(0.976853 0.00560267 0)
(0.993457 0.0041605 0)
(0.994942 0.0126319 0)
(0.999037 0.0112992 0)
(1.00656 0.0172718 0)
(1.00675 0.0151326 0)
(1.01177 0.0189052 0)
(1.01128 0.0171833 0)
(0.989499 -0.00600376 0)
(1.01042 0.00130166 0)
(1.0044 0.00309122 0)
(1.01967 0.00958727 0)
(1.00555 -0.000814742 0)
(1.00235 -0.000789205 0)
(0.992694 -0.0137949 0)
(0.975549 -0.0238321 0)
(0.982091 -0.0262634 0)
(0.982143 -0.0176855 0)
(0.982082 -0.00181838 0)
(0.995896 -0.00347125 0)
(0.98455 0.00582669 0)
(0.994851 0.0036472 0)
(0.99798 0.0125738 0)
(1.00295 0.0108619 0)
(1.00802 0.0170685 0)
(1.01028 0.014875 0)
(1.01338 0.0187519 0)
(1.01444 0.0171586 0)
(0.997344 -0.00598339 0)
(0.998057 0.00121141 0)
(1.00723 0.00303769 0)
(1.01178 0.00956755 0)
(1.00834 -0.000667447 0)
(0.999692 -0.000716772 0)
(0.995674 -0.0135008 0)
(0.979605 -0.023741 0)
(0.978929 -0.0261608 0)
(0.977805 -0.0179191 0)
(0.980558 -0.00186627 0)
(0.9961 -0.00375821 0)
(0.98796 0.00598648 0)
(0.997742 0.00316571 0)
(0.999897 0.0124935 0)
(1.00555 0.0104583 0)
(1.00923 0.0168589 0)
(1.01213 0.0146716 0)
(1.01459 0.0185738 0)
(1.01619 0.0171346 0)
(1.00182 -0.00593764 0)
(0.990369 0.00113709 0)
(1.00717 0.00296739 0)
(1.00663 0.00953076 0)
(1.01042 -0.000549159 0)
(0.999412 -0.000654734 0)
(0.998548 -0.0132436 0)
(0.983379 -0.0235854 0)
(0.977133 -0.0259601 0)
(0.975231 -0.0181643 0)
(0.977735 -0.00198795 0)
(0.996866 -0.00415698 0)
(0.990276 0.00610921 0)
(1.00044 0.00269407 0)
(1.00194 0.0124317 0)
(1.00764 0.010093 0)
(1.01062 0.0166488 0)
(1.01358 0.0145126 0)
(1.01587 0.0183625 0)
(1.01767 0.0171018 0)
(1.00392 -0.00587282 0)
(0.98613 0.00107785 0)
(1.006 0.00288834 0)
(1.00322 0.00946442 0)
(1.01243 -0.000458488 0)
(1.00008 -0.000606737 0)
(1.00151 -0.0130031 0)
(0.986561 -0.0233764 0)
(0.976578 -0.0256737 0)
(0.973176 -0.0183926 0)
(0.975346 -0.00217024 0)
(0.996863 -0.00466217 0)
(0.99238 0.00618503 0)
(1.00272 0.0022292 0)
(1.00416 0.0123601 0)
(1.00988 0.00976959 0)
(1.0125 0.0164128 0)
(1.01547 0.0143852 0)
(1.01773 0.0181197 0)
(1.01967 0.0170527 0)
(1.00453 -0.00579415 0)
(0.984236 0.0010286 0)
(1.00466 0.00280841 0)
(1.00093 0.00936332 0)
(1.01419 -0.000390902 0)
(1.00101 -0.000574788 0)
(1.00435 -0.0127686 0)
(0.989299 -0.0231228 0)
(0.97691 -0.025307 0)
(0.971314 -0.0185965 0)
(0.97381 -0.00239494 0)
(0.995912 -0.00526031 0)
(0.994269 0.0061907 0)
(1.00455 0.00176625 0)
(1.00637 0.0122411 0)
(1.01231 0.00948342 0)
(1.01484 0.0161249 0)
(1.01794 0.0142803 0)
(1.02029 0.0178464 0)
(1.02236 0.0169826 0)
(1.00431 -0.00570618 0)
(0.983896 0.000984179 0)
(1.00343 0.00273371 0)
(0.999436 0.00922948 0)
(1.01532 -0.000341235 0)
(1.00193 -0.000561641 0)
(1.00684 -0.0125358 0)
(0.991686 -0.0228344 0)
(0.977939 -0.0248617 0)
(0.969594 -0.0187762 0)
(0.97312 -0.00264307 0)
(0.994087 -0.00593208 0)
(0.995735 0.00610258 0)
(1.00576 0.0013046 0)
(1.00832 0.0120445 0)
(1.01468 0.00922333 0)
(1.01741 0.0157681 0)
(1.02077 0.014185 0)
(1.02331 0.0175409 0)
(1.02553 0.0168873 0)
(1.0037 -0.00561307 0)
(0.984575 0.000941615 0)
(1.00227 0.00266831 0)
(0.998567 0.00906948 0)
(1.01558 -0.000304359 0)
(1.00273 -0.000571492 0)
(1.00882 -0.0123027 0)
(0.993697 -0.0225243 0)
(0.97958 -0.0243395 0)
(0.968055 -0.0189319 0)
(0.973208 -0.00289655 0)
(0.99145 -0.00665029 0)
(0.996514 0.00590579 0)
(1.00606 0.00084811 0)
(1.00973 0.0117429 0)
(1.01661 0.00897603 0)
(1.01978 0.0153307 0)
(1.02348 0.0140801 0)
(1.02632 0.0172031 0)
(1.02867 0.0167641 0)
(1.00294 -0.00551848 0)
(0.98588 0.000900139 0)
(1.00111 0.00261446 0)
(0.998211 0.00889135 0)
(1.01496 -0.000275274 0)
(1.00337 -0.000608887 0)
(1.01019 -0.0120672 0)
(0.995281 -0.0222077 0)
(0.981688 -0.0237463 0)
(0.966824 -0.0190631 0)
(0.97396 -0.00313375 0)
(0.988151 -0.00737882 0)
(0.996347 0.00559466 0)
(1.00512 0.000401249 0)
(1.0102 0.0113116 0)
(1.01758 0.00872732 0)
(1.02139 0.0148052 0)
(1.02547 0.0139438 0)
(1.02863 0.0168352 0)
(1.0311 0.016613 0)
(1.00219 -0.00542515 0)
(0.98748 0.000860224 0)
(0.999941 0.00257265 0)
(0.998268 0.0087024 0)
(1.01367 -0.000249256 0)
(1.00387 -0.000676947 0)
(1.01095 -0.0118272 0)
(0.996448 -0.0218989 0)
(0.983995 -0.0230917 0)
(0.966108 -0.0191699 0)
(0.975135 -0.00333265 0)
(0.98454 -0.00806877 0)
(0.99507 0.00517738 0)
(1.00274 -2.49152e-05 0)
(1.00928 0.0107355 0)
(1.01706 0.00846406 0)
(1.02156 0.0141921 0)
(1.02599 0.0137583 0)
(1.02944 0.0164396 0)
(1.03201 0.0164351 0)
(1.00154 -0.00533475 0)
(0.989105 0.000822584 0)
(0.998825 0.00254189 0)
(0.998626 0.0085081 0)
(1.01201 -0.000222197 0)
(1.00427 -0.00077605 0)
(1.01114 -0.0115808 0)
(0.997279 -0.0216081 0)
(0.986157 -0.0223908 0)
(0.966107 -0.0192498 0)
(0.976367 -0.00348284 0)
(0.981144 -0.00867066 0)
(0.992722 0.00468202 0)
(0.999066 -0.000408705 0)
(1.00671 0.0100246 0)
(1.01464 0.00818308 0)
(1.01971 0.0135061 0)
(1.02438 0.013518 0)
(1.02806 0.0160219 0)
(1.03069 0.0162325 0)
(1.00102 -0.00524775 0)
(0.990561 0.000787546 0)
(0.997831 0.00252023 0)
(0.999155 0.00831185 0)
(1.01025 -0.000190987 0)
(1.0046 -0.000903728 0)
(1.01088 -0.0113267 0)
(0.997888 -0.0213387 0)
(0.987876 -0.0216647 0)
(0.966904 -0.0192998 0)
(0.977282 -0.00357495 0)
(0.978476 -0.00915116 0)
(0.989576 0.00413552 0)
(0.994553 -0.000727323 0)
(1.00258 0.00921411 0)
(1.01033 0.00789388 0)
(1.01565 0.0127757 0)
(1.02036 0.0132287 0)
(1.02413 0.0155925 0)
(1.02677 0.0160102 0)
(1.00065 -0.00516369 0)
(0.991746 0.000754807 0)
(0.997014 0.00250553 0)
(0.999736 0.00811499 0)
(1.00864 -0.000153721 0)
(1.00488 -0.00105564 0)
(1.01031 -0.0110645 0)
(0.998368 -0.0210878 0)
(0.989 -0.020937 0)
(0.968401 -0.0193113 0)
(0.977662 -0.00362008 0)
(0.976831 -0.00948794 0)
(0.986078 0.00357061 0)
(0.989833 -0.000952448 0)
(0.997364 0.00835573 0)
(1.00456 0.00761673 0)
(1.00973 0.01204 0)
(1.01424 0.0129071 0)
(1.01795 0.0151642 0)
(1.02054 0.0157746 0)
(1.0004 -0.00508154 0)
(0.992634 0.000723508 0)
(0.996398 0.00249605 0)
(1.00027 0.00791721 0)
(1.00729 -0.000109637 0)
(1.00511 -0.00122639 0)
(1.00958 -0.0107947 0)
(0.99877 -0.0208492 0)
(0.989551 -0.0202248 0)
(0.970333 -0.0192794 0)
(0.977511 -0.00363251 0)
(0.976195 -0.0096649 0)
(0.982721 0.00302873 0)
(0.985498 -0.00106418 0)
(0.991829 0.00750409 0)
(0.998153 0.00737482 0)
(1.00281 0.011343 0)
(1.00686 0.0125763 0)
(1.01037 0.0147496 0)
(1.01281 0.0155322 0)
(1.00025 -0.00500003 0)
(0.993257 0.000692531 0)
(0.995973 0.00249054 0)
(1.0007 0.00771727 0)
(1.00626 -5.84865e-05 0)
(1.0053 -0.00141081 0)
(1.00883 -0.0105179 0)
(0.9991 -0.0206154 0)
(0.989678 -0.0195403 0)
(0.972373 -0.0191943 0)
(0.977016 -0.00363741 0)
(0.976315 -0.00969526 0)
(0.979908 0.00252521 0)
(0.981953 -0.00104914 0)
(0.986733 0.0067093 0)
(0.991984 0.00718509 0)
(0.995899 0.0107197 0)
(0.999317 0.0122577 0)
(1.00252 0.0143578 0)
(1.00475 0.0152892 0)
(1.00017 -0.00491792 0)
(0.993671 0.000660628 0)
(0.995712 0.0024886 0)
(1.00101 0.00751331 0)
(1.00552 -5.87627e-07 0)
(1.00542 -0.00160413 0)
(1.00814 -0.0102361 0)
(0.999346 -0.0203757 0)
(0.989577 -0.0188925 0)
(0.974243 -0.0190488 0)
(0.976426 -0.00365737 0)
(0.976847 -0.00960368 0)
(0.977856 0.00206306 0)
(0.979357 -0.000918637 0)
(0.982621 0.00600568 0)
(0.986764 0.00705416 0)
(0.989894 0.0101907 0)
(0.992605 0.0119689 0)
(0.995457 0.0139962 0)
(0.997436 0.015052 0)
(1.00014 -0.00483417 0)
(0.993935 0.000626577 0)
(0.99558 0.00249035 0)
(1.0012 0.00730355 0)
(1.00501 6.33893e-05 0)
(1.00546 -0.00180341 0)
(1.00756 -0.00994993 0)
(0.999498 -0.0201235 0)
(0.989413 -0.0182842 0)
(0.975784 -0.018842 0)
(0.975945 -0.00370547 0)
(0.9775 -0.00941231 0)
(0.976585 0.00163329 0)
(0.977665 -0.000688505 0)
(0.979718 0.00540524 0)
(0.982862 0.00697463 0)
(0.985301 0.00976086 0)
(0.987351 0.011722 0)
(0.989871 0.0136698 0)
(0.991588 0.0148245 0)
(1.00013 -0.00474797 0)
(0.994105 0.000589239 0)
(0.99554 0.00249612 0)
(1.00128 0.00708675 0)
(1.00467 0.000133366 0)
(1.00544 -0.00200578 0)
(1.00708 -0.00966078 0)
(0.999561 -0.0198536 0)
(0.98929 -0.0177174 0)
(0.976967 -0.0185672 0)
(0.975676 -0.00380145 0)
(0.978099 -0.00914208 0)
(0.975971 0.00121781 0)
(0.976707 -0.00037596 0)
(0.977954 0.00490361 0)
(0.980301 0.00692715 0)
(0.982216 0.0094182 0)
(0.983731 0.0115151 0)
(0.985972 0.0133744 0)
(0.987451 0.0146066 0)
(1.00014 -0.00465875 0)
(0.994219 0.000547735 0)
(0.995559 0.00250645 0)
(1.00129 0.00686198 0)
(1.00444 0.000208776 0)
(1.00535 -0.00220867 0)
(1.00668 -0.00937218 0)
(0.999553 -0.0195585 0)
(0.989244 -0.0171938 0)
(0.977848 -0.0182244 0)
(0.975631 -0.00394402 0)
(0.978583 -0.00880507 0)
(0.975828 0.000813195 0)
(0.976272 -1.30237e-05 0)
(0.977082 0.00449014 0)
(0.97886 0.00689432 0)
(0.980426 0.0091443 0)
(0.981559 0.011336 0)
(0.983589 0.0131017 0)
(0.984877 0.0143946 0)
(1.00016 -0.00456618 0)
(0.994307 0.000501565 0)
(0.995614 0.0025217 0)
(1.00126 0.00662913 0)
(1.00426 0.000287966 0)
(1.00523 -0.00241055 0)
(1.00633 -0.00908523 0)
(0.999497 -0.019236 0)
(0.98927 -0.0167119 0)
(0.978518 -0.0178174 0)
(0.975767 -0.00412684 0)
(0.978962 -0.00841885 0)
(0.975981 0.000417618 0)
(0.976169 0.000355522 0)
(0.976808 0.00415568 0)
(0.97822 0.00686648 0)
(0.979579 0.00892386 0)
(0.980471 0.0111716 0)
(0.982352 0.0128436 0)
(0.983499 0.0141856 0)
(1.00017 -0.00446999 0)
(0.994385 0.000450252 0)
(0.995687 0.00254202 0)
(1.0012 0.0063886 0)
(1.0041 0.0003717 0)
(1.00508 -0.00261024 0)
(1.00602 -0.008803 0)
(0.999412 -0.0188796 0)
(0.989349 -0.016274 0)
(0.979063 -0.0173594 0)
(0.976024 -0.00433534 0)
(0.979271 -0.00799848 0)
(0.976296 3.30002e-05 0)
(0.976259 0.0006873 0)
(0.976885 0.00388691 0)
(0.978082 0.00683254 0)
(0.979326 0.00874105 0)
(0.980085 0.0110129 0)
(0.981866 0.0125912 0)
(0.98291 0.0139728 0)
(1.00018 -0.00437007 0)
(0.994462 0.000393446 0)
(0.995767 0.00256758 0)
(1.00113 0.00614042 0)
(1.00396 0.000458893 0)
(1.00492 -0.00280376 0)
(1.00572 -0.00853093 0)
(0.999313 -0.0184867 0)
(0.989458 -0.0158795 0)
(0.979542 -0.0168522 0)
(0.976355 -0.00457492 0)
(0.979545 -0.0075616 0)
(0.976693 -0.000329953 0)
(0.976454 0.000976285 0)
(0.977142 0.00366785 0)
(0.978225 0.0067775 0)
(0.979403 0.00857964 0)
(0.980097 0.0108553 0)
(0.981809 0.0123375 0)
(0.982779 0.0137475 0)
(1.00019 -0.00426641 0)
(0.994543 0.000331028 0)
(0.995849 0.00259842 0)
(1.00106 0.00588501 0)
(1.00381 0.000545881 0)
(1.00475 -0.00298451 0)
(1.00543 -0.00827789 0)
(0.999206 -0.0180523 0)
(0.989587 -0.0155221 0)
(0.97999 -0.0163048 0)
(0.976726 -0.00483415 0)
(0.979806 -0.00712161 0)
(0.977128 -0.000669004 0)
(0.976705 0.00122283 0)
(0.977481 0.00348969 0)
(0.978512 0.00669822 0)
(0.979647 0.00843408 0)
(0.98031 0.0106956 0)
(0.981971 0.0120778 0)
(0.982884 0.0135069 0)
(1.00019 -0.00415888 0)
(0.99463 0.000263048 0)
(0.995931 0.00263377 0)
(1.00098 0.00562424 0)
(1.00366 0.000628869 0)
(1.00459 -0.00315195 0)
(1.00514 -0.00804871 0)
(0.999095 -0.0175696 0)
(0.989726 -0.0152001 0)
(0.980425 -0.0157307 0)
(0.977122 -0.00508523 0)
(0.980069 -0.00668616 0)
(0.977585 -0.000966813 0)
(0.976993 0.00143037 0)
(0.977852 0.00334926 0)
(0.978869 0.00660055 0)
(0.979969 0.00830774 0)
(0.980614 0.0105384 0)
(0.982234 0.0118118 0)
(0.983101 0.0132469 0)
(1.00019 -0.00404746 0)
(0.994724 0.000189122 0)
(0.996011 0.0026736 0)
(1.00091 0.00536031 0)
(1.00351 0.000711273 0)
(1.00442 -0.00330271 0)
(1.00486 -0.00784486 0)
(0.998982 -0.0170458 0)
(0.989872 -0.0149074 0)
(0.980855 -0.0151283 0)
(0.977534 -0.00533014 0)
(0.980338 -0.0062801 0)
(0.978053 -0.00121108 0)
(0.977305 0.00160111 0)
(0.978236 0.00324021 0)
(0.979265 0.00647965 0)
(0.980328 0.00818839 0)
(0.980955 0.0103854 0)
(0.982537 0.0115437 0)
(0.983367 0.0129644 0)
(1.00019 -0.00393267 0)
(0.994825 0.000110239 0)
(0.99609 0.00271711 0)
(1.00084 0.00509426 0)
(1.00335 0.000792419 0)
(1.00425 -0.0034308 0)
(1.00459 -0.00767213 0)
(0.998868 -0.0164857 0)
(0.990024 -0.0146332 0)
(0.981282 -0.0145189 0)
(0.977955 -0.00555017 0)
(0.980619 -0.005914 0)
(0.978532 -0.00142384 0)
(0.97764 0.00173681 0)
(0.978622 0.00316068 0)
(0.979684 0.00633465 0)
(0.980712 0.00805872 0)
(0.98131 0.0102306 0)
(0.982855 0.0112769 0)
(0.983655 0.0126578 0)
(1.00018 -0.0038139 0)
(0.994932 2.55749e-05 0)
(0.996168 0.00276342 0)
(1.00078 0.00482706 0)
(1.00319 0.000862399 0)
(1.00408 -0.00352998 0)
(1.00433 -0.00753238 0)
(0.998753 -0.0158945 0)
(0.990181 -0.014371 0)
(0.981708 -0.0139159 0)
(0.978385 -0.00572365 0)
(0.980909 -0.00559469 0)
(0.97902 -0.00158511 0)
(0.977998 0.00185276 0)
(0.979009 0.00311298 0)
(0.98012 0.0061746 0)
(0.981116 0.00790973 0)
(0.981673 0.0100657 0)
(0.983176 0.0110157 0)
(0.983954 0.0123293 0)
(1.00018 -0.00369156 0)
(0.995045 -6.36217e-05 0)
(0.996246 0.00281035 0)
(1.00071 0.00456115 0)
(1.00303 0.000920524 0)
(1.0039 -0.00359829 0)
(1.00407 -0.00742404 0)
(0.998638 -0.0152731 0)
(0.990342 -0.0141135 0)
(0.982135 -0.0133308 0)
(0.978819 -0.00585024 0)
(0.981212 -0.00531509 0)
(0.979519 -0.00170127 0)
(0.978376 0.00195212 0)
(0.979394 0.00309843 0)
(0.980568 0.00600995 0)
(0.981539 0.00774265 0)
(0.982046 0.00988601 0)
(0.983495 0.0107635 0)
(0.98426 0.0119831 0)
(1.00017 -0.003566 0)
(0.995163 -0.000156782 0)
(0.996324 0.00285711 0)
(1.00065 0.00429925 0)
(1.00286 0.000967224 0)
(1.00372 -0.00363307 0)
(1.00381 -0.00734428 0)
(0.998525 -0.0146328 0)
(0.990506 -0.0138508 0)
(0.982562 -0.0127728 0)
(0.979259 -0.00591504 0)
(0.981524 -0.00506185 0)
(0.980028 -0.00179593 0)
(0.978776 0.00202756 0)
(0.979778 0.00312052 0)
(0.981022 0.00584954 0)
(0.98198 0.00755925 0)
(0.982429 0.00968821 0)
(0.983812 0.0105204 0)
(0.984569 0.0116217 0)
(1.00016 -0.00343763 0)
(0.995286 -0.000253454 0)
(0.996403 0.00290226 0)
(1.00059 0.0040457 0)
(1.0027 0.000995887 0)
(1.00354 -0.00363212 0)
(1.00357 -0.00728465 0)
(0.998413 -0.0139877 0)
(0.990673 -0.0135702 0)
(0.982994 -0.0122505 0)
(0.979704 -0.00590773 0)
(0.981846 -0.00484194 0)
(0.980547 -0.00187292 0)
(0.9792 0.00206936 0)
(0.980162 0.00317328 0)
(0.981478 0.0056991 0)
(0.982437 0.00735721 0)
(0.982826 0.00946354 0)
(0.984125 0.0102827 0)
(0.98488 0.0112484 0)
(1.00015 -0.00330608 0)
(0.995413 -0.000353714 0)
(0.996483 0.00294221 0)
(1.00053 0.00380587 0)
(1.00253 0.00100354 0)
(1.00335 -0.00360009 0)
(1.00333 -0.00723904 0)
(0.998303 -0.0133407 0)
(0.99084 -0.0132575 0)
(0.983431 -0.0117865 0)
(0.980154 -0.00584868 0)
(0.982173 -0.00463064 0)
(0.981075 -0.00194627 0)
(0.97965 0.00206605 0)
(0.980548 0.00323523 0)
(0.98193 0.00556276 0)
(0.982904 0.00714624 0)
(0.983239 0.00920624 0)
(0.984436 0.01004 0)
(0.985189 0.0108677 0)
(1.00014 -0.00317187 0)
(0.995544 -0.000456149 0)
(0.996566 0.00297348 0)
(1.00047 0.0035817 0)
(1.00237 0.000989164 0)
(1.00316 -0.00353754 0)
(1.00309 -0.00719737 0)
(0.998196 -0.0127103 0)
(0.991005 -0.0129078 0)
(0.983872 -0.0113735 0)
(0.980612 -0.00576333 0)
(0.982505 -0.00440187 0)
(0.981609 -0.00199862 0)
(0.980128 0.0020261 0)
(0.980941 0.00328926 0)
(0.982378 0.00544042 0)
(0.983378 0.00694584 0)
(0.983667 0.00892783 0)
(0.984747 0.00979399 0)
(0.985496 0.0104872 0)
(1.00013 -0.0030358 0)
(0.995679 -0.000558437 0)
(0.996651 0.00299582 0)
(1.00041 0.00337594 0)
(1.00221 0.000944967 0)
(1.00297 -0.00344303 0)
(1.00287 -0.00715777 0)
(0.998094 -0.0121112 0)
(0.991165 -0.0125088 0)
(0.984318 -0.010992 0)
(0.981081 -0.00564506 0)
(0.982842 -0.00415974 0)
(0.982147 -0.00201724 0)
(0.980632 0.00196446 0)
(0.981345 0.00333033 0)
(0.982823 0.0053221 0)
(0.983854 0.00675899 0)
(0.984109 0.00863975 0)
(0.985059 0.009554 0)
(0.985799 0.010115 0)
(1.00012 -0.00289747 0)
(0.995817 -0.000662682 0)
(0.996739 0.00300379 0)
(1.00035 0.00319384 0)
(1.00205 0.000883455 0)
(1.00277 -0.00333023 0)
(1.00265 -0.007108 0)
(0.998 -0.0115486 0)
(0.991322 -0.0120564 0)
(0.984765 -0.0106297 0)
(0.981563 -0.00551548 0)
(0.983185 -0.00390958 0)
(0.982686 -0.00200805 0)
(0.98116 0.00188021 0)
(0.981761 0.00335305 0)
(0.983267 0.0051951 0)
(0.984331 0.00657207 0)
(0.984564 0.00833784 0)
(0.985373 0.0093212 0)
(0.986095 0.00976179 0)
(1.00011 -0.00275837 0)
(0.99596 -0.000765073 0)
(0.99683 0.0029951 0)
(1.00029 0.00304025 0)
(1.00189 0.000800846 0)
(1.00258 -0.00320588 0)
(1.00244 -0.0070317 0)
(0.997915 -0.0110338 0)
(0.991474 -0.0115595 0)
(0.985211 -0.0102762 0)
(0.982058 -0.00541431 0)
(0.983536 -0.00365884 0)
(0.983222 -0.00195166 0)
(0.981711 0.00178058 0)
(0.98219 0.00335814 0)
(0.98371 0.00505202 0)
(0.984808 0.00638677 0)
(0.985034 0.00801833 0)
(0.985695 0.009091 0)
(0.986383 0.00943782 0)
(1.0001 -0.00261843 0)
(0.996106 -0.000865793 0)
(0.996924 0.00297291 0)
(1.00023 0.00291224 0)
(1.00174 0.00069631 0)
(1.00238 -0.00307137 0)
(1.00224 -0.00692835 0)
(0.997842 -0.0105784 0)
(0.991624 -0.0110255 0)
(0.98565 -0.0099102 0)
(0.982567 -0.00533126 0)
(0.983902 -0.00341068 0)
(0.983756 -0.0018517 0)
(0.982278 0.00168112 0)
(0.982632 0.0033566 0)
(0.984154 0.004889 0)
(0.985284 0.00620429 0)
(0.985519 0.0076846 0)
(0.986033 0.00885203 0)
(0.986662 0.00914532 0)
(1.0001 -0.00247771 0)
(0.996256 -0.000963862 0)
(0.997024 0.00293079 0)
(1.00017 0.00281304 0)
(1.00158 0.000582674 0)
(1.00219 -0.00293816 0)
(1.00204 -0.0067928 0)
(0.997783 -0.010167 0)
(0.991775 -0.0104839 0)
(0.986079 -0.00952305 0)
(0.983087 -0.00524964 0)
(0.984282 -0.00317637 0)
(0.984285 -0.00173646 0)
(0.98286 0.00159683 0)
(0.983084 0.00335624 0)
(0.984598 0.00471506 0)
(0.985758 0.00600846 0)
(0.986018 0.00734117 0)
(0.986394 0.00858102 0)
(0.986938 0.00887441 0)
(1.00009 -0.00233763 0)
(0.996409 -0.00105606 0)
(0.997128 0.00287521 0)
(1.00011 0.00273968 0)
(1.00143 0.000461441 0)
(1.00199 -0.00280634 0)
(1.00185 -0.00662307 0)
(0.997739 -0.00978758 0)
(0.991929 -0.00995805 0)
(0.986498 -0.0091006 0)
(0.983616 -0.00515405 0)
(0.984679 -0.00297804 0)
(0.984811 -0.0015948 0)
(0.983456 0.00153282 0)
(0.983543 0.00335781 0)
(0.985039 0.00454521 0)
(0.98623 0.00579447 0)
(0.986527 0.0069962 0)
(0.986783 0.00826559 0)
(0.987218 0.00861629 0)
(1.00008 -0.00219892 0)
(0.996567 -0.00114073 0)
(0.997239 0.00280275 0)
(1.00005 0.00268722 0)
(1.00129 0.000332568 0)
(1.0018 -0.00268422 0)
(1.00166 -0.00641883 0)
(0.997708 -0.00942989 0)
(0.992093 -0.00944709 0)
(0.986907 -0.00864119 0)
(0.984147 -0.00503748 0)
(0.985093 -0.00281113 0)
(0.985337 -0.0014349 0)
(0.984061 0.00147219 0)
(0.984008 0.00336004 0)
(0.985472 0.00438908 0)
(0.986698 0.00557961 0)
(0.98704 0.00665722 0)
(0.987205 0.00790931 0)
(0.987511 0.00836145 0)
(1.00008 -0.00206098 0)
(0.996727 -0.00121846 0)
(0.997356 0.00271152 0)
(0.999995 0.00264971 0)
(1.00114 0.000209632 0)
(1.00162 -0.00258957 0)
(1.00148 -0.00617595 0)
(0.99769 -0.00907881 0)
(0.992268 -0.00896491 0)
(0.987309 -0.00816822 0)
(0.984677 -0.00490604 0)
(0.985525 -0.00267174 0)
(0.985863 -0.00128833 0)
(0.984676 0.00140966 0)
(0.98448 0.00336195 0)
(0.985897 0.00425007 0)
(0.987157 0.00536852 0)
(0.98755 0.00633104 0)
(0.987659 0.00751086 0)
(0.987826 0.00808565 0)
(1.00007 -0.00192608 0)
(0.996891 -0.00128726 0)
(0.997481 0.00260749 0)
(0.999938 0.00262111 0)
(1.001 0.000103513 0)
(1.00144 -0.00251334 0)
(1.0013 -0.00591311 0)
(0.997682 -0.00872822 0)
(0.992456 -0.00852455 0)
(0.987704 -0.00770423 0)
(0.985203 -0.00472256 0)
(0.985971 -0.00254028 0)
(0.986391 -0.00117199 0)
(0.985302 0.00134875 0)
(0.984961 0.00335963 0)
(0.986311 0.00413697 0)
(0.987608 0.00514409 0)
(0.988045 0.00603068 0)
(0.988138 0.00708979 0)
(0.988172 0.00777475 0)
(1.00007 -0.0017939 0)
(0.997057 -0.00134375 0)
(0.997613 0.00248374 0)
(0.999883 0.00260491 0)
(1.00086 7.2934e-06 0)
(1.00127 -0.00246165 0)
(1.00112 -0.00563202 0)
(0.997682 -0.00837217 0)
(0.992656 -0.00811493 0)
(0.9881 -0.00724359 0)
(0.985726 -0.00450283 0)
(0.986423 -0.00240854 0)
(0.986919 -0.00107071 0)
(0.98594 0.00128593 0)
(0.985455 0.00333963 0)
(0.98671 0.00405765 0)
(0.988049 0.00490257 0)
(0.988528 0.00575722 0)
(0.988629 0.00668 0)
(0.988546 0.00743018 0)
(1.00006 -0.00166572 0)
(0.997224 -0.00138865 0)
(0.997755 0.00234505 0)
(0.999828 0.00259003 0)
(1.00072 -5.97527e-05 0)
(1.00111 -0.0024397 0)
(1.00096 -0.00534369 0)
(0.997688 -0.0079958 0)
(0.992871 -0.00773149 0)
(0.988498 -0.00679676 0)
(0.986242 -0.00426515 0)
(0.986882 -0.00226252 0)
(0.987447 -0.000973554 0)
(0.986589 0.00119795 0)
(0.985967 0.0032883 0)
(0.987094 0.00400506 0)
(0.988478 0.0046768 0)
(0.989002 0.00549601 0)
(0.989121 0.00629383 0)
(0.988945 0.0070529 0)
(1.00005 -0.00154149 0)
(0.99739 -0.0014183 0)
(0.997905 0.00219157 0)
(0.999777 0.0025699 0)
(1.00058 -9.38162e-05 0)
(1.00096 -0.00243241 0)
(1.0008 -0.00506707 0)
(0.9977 -0.00759757 0)
(0.993096 -0.00735858 0)
(0.988901 -0.00638078 0)
(0.986757 -0.00401904 0)
(0.987342 -0.00208665 0)
(0.987966 -0.000882705 0)
(0.987244 0.00107123 0)
(0.986505 0.00319242 0)
(0.987472 0.00396596 0)
(0.988888 0.00449634 0)
(0.989463 0.00523978 0)
(0.989606 0.00593725 0)
(0.989359 0.00665715 0)
(1.00005 -0.00142282 0)
(0.997555 -0.00142915 0)
(0.998065 0.00202428 0)
(0.99973 0.00254261 0)
(1.00043 -9.45914e-05 0)
(1.00082 -0.00243943 0)
(1.00066 -0.00479915 0)
(0.997716 -0.00717641 0)
(0.99333 -0.00699214 0)
(0.989308 -0.00599472 0)
(0.987273 -0.00377591 0)
(0.987804 -0.0018987 0)
(0.988468 -0.000776525 0)
(0.987899 0.000932533 0)
(0.987077 0.00304268 0)
(0.987856 0.00392045 0)
(0.989278 0.00434795 0)
(0.989906 0.00499556 0)
(0.990079 0.00561372 0)
(0.98978 0.00626201 0)
(1.00004 -0.00131037 0)
(0.997716 -0.0014238 0)
(0.998233 0.00184731 0)
(0.999691 0.00250708 0)
(1.00029 -5.81537e-05 0)
(1.00069 -0.00245092 0)
(1.00054 -0.00455698 0)
(0.997738 -0.0067273 0)
(0.993569 -0.00663596 0)
(0.989722 -0.00562719 0)
(0.987792 -0.003531 0)
(0.98827 -0.00170475 0)
(0.988951 -0.000633216 0)
(0.988542 0.000817532 0)
(0.987679 0.0028405 0)
(0.988256 0.00384705 0)
(0.989651 0.00422607 0)
(0.990333 0.0047741 0)
(0.990535 0.00532231 0)
(0.990201 0.00587688 0)
(1.00004 -0.00120434 0)
(0.997872 -0.0013994 0)
(0.998408 0.00165949 0)
(0.999662 0.00245374 0)
(1.00014 3.30477e-06 0)
(1.00057 -0.00245597 0)
(1.00043 -0.00434143 0)
(0.997766 -0.00627509 0)
(0.993811 -0.0062733 0)
(0.990142 -0.00526852 0)
(0.988314 -0.00331217 0)
(0.988744 -0.00153229 0)
(0.989416 -0.000455102 0)
(0.989158 0.000734802 0)
(0.988304 0.00260748 0)
(0.988688 0.003714 0)
(0.990014 0.00412291 0)
(0.99074 0.00456788 0)
(0.990966 0.00505961 0)
(0.990611 0.00552616 0)
(1.00004 -0.00110527 0)
(0.998024 -0.00135872 0)
(0.998587 0.00146479 0)
(0.999645 0.00238565 0)
(0.999991 8.79351e-05 0)
(1.00044 -0.00244376 0)
(1.00035 -0.00415743 0)
(0.997802 -0.0058266 0)
(0.994053 -0.00589098 0)
(0.990562 -0.00493851 0)
(0.988838 -0.00310496 0)
(0.989234 -0.00138493 0)
(0.98987 -0.000243695 0)
(0.989741 0.000698048 0)
(0.988935 0.00238087 0)
(0.989153 0.00350822 0)
(0.990379 0.00399849 0)
(0.99113 0.00436381 0)
(0.991383 0.00480365 0)
(0.991012 0.00521317 0)
(1.00003 -0.00101407 0)
(0.998169 -0.00130037 0)
(0.998769 0.00126533 0)
(0.999641 0.00230161 0)
(0.999841 0.00019065 0)
(1.00032 -0.00240319 0)
(1.00029 -0.00401045 0)
(0.997851 -0.00538832 0)
(0.994291 -0.00548612 0)
(0.990982 -0.00462686 0)
(0.989364 -0.00289085 0)
(0.989742 -0.00127409 0)
(0.990319 -2.25574e-05 0)
(0.990282 0.000733425 0)
(0.989553 0.00217874 0)
(0.989646 0.00326427 0)
(0.99076 0.00382987 0)
(0.991505 0.00416736 0)
(0.991789 0.00455139 0)
(0.991406 0.00493761 0)
(1.00003 -0.000930742 0)
(0.998307 -0.00122706 0)
(0.998951 0.00106549 0)
(0.999652 0.00219942 0)
(0.999694 0.000302592 0)
(1.00019 -0.00233838 0)
(1.00024 -0.00388149 0)
(0.997917 -0.00498271 0)
(0.994526 -0.00505727 0)
(0.991398 -0.00432906 0)
(0.989884 -0.00267455 0)
(0.990268 -0.00120481 0)
(0.990779 0.000163836 0)
(0.990784 0.000842038 0)
(0.990141 0.00201365 0)
(0.990153 0.00301363 0)
(0.991162 0.00359708 0)
(0.991877 0.00396224 0)
(0.99219 0.00430304 0)
(0.991799 0.00470677 0)
(1.00004 -0.000855809 0)
(0.998439 -0.00114122 0)
(0.999131 0.000869164 0)
(0.999677 0.00207956 0)
(0.999551 0.000422732 0)
(1.00007 -0.00224277 0)
(1.00021 -0.00376159 0)
(0.998005 -0.00462598 0)
(0.994757 -0.00460119 0)
(0.991806 -0.00403762 0)
(0.990398 -0.00246517 0)
(0.990805 -0.00114258 0)
(0.991262 0.000281842 0)
(0.991255 0.00098785 0)
(0.990685 0.00191375 0)
(0.99065 0.00277377 0)
(0.99158 0.00330519 0)
(0.992262 0.00373034 0)
(0.992605 0.00404903 0)
(0.992203 0.00450537 0)
(1.00004 -0.000789169 0)
(0.998563 -0.00104247 0)
(0.999308 0.000680318 0)
(0.999716 0.00193809 0)
(0.999416 0.000544968 0)
(0.999932 -0.00211445 0)
(1.0002 -0.00364354 0)
(0.998118 -0.00431702 0)
(0.994988 -0.0041392 0)
(0.9922 -0.00372498 0)
(0.990902 -0.00228039 0)
(0.991344 -0.00106393 0)
(0.991771 0.000312808 0)
(0.991717 0.0011142 0)
(0.991181 0.00189125 0)
(0.991114 0.00257926 0)
(0.992008 0.00299984 0)
(0.992668 0.00347719 0)
(0.993045 0.00378416 0)
(0.992631 0.00430531 0)
(1.00004 -0.000732382 0)
(0.998679 -0.000933032 0)
(0.99948 0.000502737 0)
(0.999769 0.00178143 0)
(0.99929 0.000663741 0)
(0.999794 -0.00195556 0)
(1.00019 -0.00351724 0)
(0.998255 -0.00405507 0)
(0.995226 -0.00369622 0)
(0.992575 -0.00338124 0)
(0.991396 -0.00213358 0)
(0.991875 -0.000970377 0)
(0.992297 0.000281994 0)
(0.992193 0.00119886 0)
(0.991643 0.00189145 0)
(0.991528 0.0024774 0)
(0.992425 0.00271813 0)
(0.993089 0.00321579 0)
(0.993511 0.00350331 0)
(0.993092 0.00406494 0)
(1.00004 -0.000683617 0)
(0.998786 -0.000815792 0)
(0.999645 0.000337615 0)
(0.999836 0.00160838 0)
(0.999175 0.00077351 0)
(0.99965 -0.00176901 0)
(1.00018 -0.00337881 0)
(0.998417 -0.0038333 0)
(0.995477 -0.0032988 0)
(0.992927 -0.00298679 0)
(0.991872 -0.00201231 0)
(0.992397 -0.000869485 0)
(0.992834 0.00023021 0)
(0.992685 0.00123768 0)
(0.992097 0.00187527 0)
(0.991898 0.00245623 0)
(0.992804 0.00250979 0)
(0.993512 0.00296017 0)
(0.993986 0.00323252 0)
(0.993585 0.00378461 0)
(1.00005 -0.000642899 0)
(0.998884 -0.000694359 0)
(0.999801 0.000193526 0)
(0.999915 0.00141974 0)
(0.999073 0.000863578 0)
(0.999502 -0.00155749 0)
(1.00018 -0.00322131 0)
(0.998596 -0.00363256 0)
(0.995751 -0.00297239 0)
(0.993257 -0.00253818 0)
(0.992324 -0.00188423 0)
(0.992908 -0.000780982 0)
(0.993371 0.000190838 0)
(0.993192 0.00121046 0)
(0.992559 0.00184894 0)
(0.992243 0.00244836 0)
(0.99313 0.00241673 0)
(0.993917 0.00273159 0)
(0.994458 0.00298582 0)
(0.994097 0.00347039 0)
(1.00005 -0.000611199 0)
(0.998972 -0.000568517 0)
(0.999946 6.95251e-05 0)